MODEL 1
REMARK VINA RESULT:      -7.2      0.000      0.000
REMARK SMILES COc1cc(OCc2ccccn2)ccc1C=Cc1cc(C=Cc2ccc3cc[nH]c3c2)n[nH]1
REMARK SMILES IDX 17 1 18 2 16 3 3 4 4 5 15 6 5 7 14 8 2 9 1 10 6 11 7 12 8 13
REMARK SMILES IDX 9 14 13 15 10 16 12 17 11 18 19 19 20 20 34 21 21 22 33 23
REMARK SMILES IDX 22 25 23 26 24 27 32 28 25 29 31 30 26 31 27 32 30 33 28 34
REMARK SMILES IDX 29 35
REMARK H PARENT 34 24 30 36
ROOT
ATOM      1  C   UNL     1      19.278  12.083 -22.239  1.00  0.00     0.014 C 
ATOM      2  C   UNL     1      19.491  12.354 -23.535  1.00  0.00     0.028 C 
ENDROOT
BRANCH   1   3
ATOM      3  C   UNL     1      17.947  11.737 -21.708  1.00  0.00     0.017 A 
ATOM      4  C   UNL     1      17.694  10.607 -20.903  1.00  0.00     0.129 A 
ATOM      5  C   UNL     1      16.391  10.365 -20.439  1.00  0.00     0.093 A 
ATOM      6  C   UNL     1      16.895  12.611 -22.011  1.00  0.00     0.016 A 
ATOM      7  C   UNL     1      15.347  11.236 -20.756  1.00  0.00     0.123 A 
ATOM      8  C   UNL     1      15.606  12.357 -21.543  1.00  0.00     0.047 A 
BRANCH   4   9
ATOM      9  O   UNL     1      18.772   9.803 -20.621  1.00  0.00    -0.496 OA
ATOM     10  C   UNL     1      18.555   8.399 -20.566  1.00  0.00     0.278 C 
ENDBRANCH   4   9
BRANCH   7  11
ATOM     11  O   UNL     1      14.037  11.102 -20.378  1.00  0.00    -0.487 OA
BRANCH  11  12
ATOM     12  C   UNL     1      13.747  10.465 -19.129  1.00  0.00     0.285 C 
BRANCH  12  13
ATOM     13  C   UNL     1      13.134  11.403 -18.111  1.00  0.00     0.078 A 
ATOM     14  C   UNL     1      13.945  12.167 -17.274  1.00  0.00     0.027 A 
ATOM     15  N   UNL     1      11.776  11.444 -18.044  1.00  0.00    -0.258 NA
ATOM     16  C   UNL     1      13.348  13.010 -16.342  1.00  0.00     0.004 A 
ATOM     17  C   UNL     1      11.226  12.271 -17.127  1.00  0.00     0.111 A 
ATOM     18  C   UNL     1      11.962  13.065 -16.263  1.00  0.00     0.020 A 
ENDBRANCH  12  13
ENDBRANCH  11  12
ENDBRANCH   7  11
ENDBRANCH   1   3
BRANCH   2  19
ATOM     19  C   UNL     1      20.775  12.705 -24.013  1.00  0.00     0.058 A 
ATOM     20  C   UNL     1      22.080  12.514 -23.608  1.00  0.00     0.057 A 
ATOM     21  N   UNL     1      20.871  13.420 -25.177  1.00  0.00    -0.278 N 
ATOM     22  C   UNL     1      22.886  13.152 -24.585  1.00  0.00     0.085 A 
ATOM     23  N   UNL     1      22.131  13.707 -25.541  1.00  0.00    -0.176 NA
ATOM     24  H   UNL     1      20.119  13.743 -25.775  1.00  0.00     0.190 HD
BRANCH  22  25
ATOM     25  C   UNL     1      24.317  13.193 -24.542  1.00  0.00     0.031 C 
ATOM     26  C   UNL     1      25.095  12.219 -24.039  1.00  0.00     0.010 C 
BRANCH  26  27
ATOM     27  C   UNL     1      26.562  12.287 -23.993  1.00  0.00    -0.023 A 
ATOM     28  C   UNL     1      27.291  11.646 -22.979  1.00  0.00     0.034 A 
ATOM     29  C   UNL     1      27.227  13.052 -24.956  1.00  0.00     0.009 A 
ATOM     30  C   UNL     1      28.687  11.777 -22.987  1.00  0.00     0.046 A 
ATOM     31  C   UNL     1      28.623  13.171 -24.953  1.00  0.00     0.011 A 
ATOM     32  C   UNL     1      29.367  12.521 -23.951  1.00  0.00    -0.001 A 
ATOM     33  N   UNL     1      29.634  11.264 -22.130  1.00  0.00    -0.361 N 
ATOM     34  C   UNL     1      30.754  12.430 -23.649  1.00  0.00     0.028 A 
ATOM     35  C   UNL     1      30.888  11.650 -22.524  1.00  0.00     0.083 A 
ATOM     36  H   UNL     1      29.426  10.687 -21.328  1.00  0.00     0.166 HD
ENDBRANCH  26  27
ENDBRANCH  22  25
ENDBRANCH   2  19
TORSDOF 8
ENDMDL
MODEL 2
REMARK VINA RESULT:      -7.1     14.164     19.145
REMARK SMILES COc1cc(OCc2ccccn2)ccc1C=Cc1cc(C=Cc2ccc3cc[nH]c3c2)n[nH]1
REMARK SMILES IDX 17 1 18 2 16 3 3 4 4 5 15 6 5 7 14 8 2 9 1 10 6 11 7 12 8 13
REMARK SMILES IDX 9 14 13 15 10 16 12 17 11 18 19 19 20 20 34 21 21 22 33 23
REMARK SMILES IDX 22 25 23 26 24 27 32 28 25 29 31 30 26 31 27 32 30 33 28 34
REMARK SMILES IDX 29 35
REMARK H PARENT 34 24 30 36
ROOT
ATOM      1  C   UNL     1      34.240  17.915 -16.357  1.00  0.00     0.014 C 
ATOM      2  C   UNL     1      34.454  19.210 -16.634  1.00  0.00     0.028 C 
ENDROOT
BRANCH   1   3
ATOM      3  C   UNL     1      34.493  16.840 -17.334  1.00  0.00     0.017 A 
ATOM      4  C   UNL     1      35.770  16.300 -17.592  1.00  0.00     0.129 A 
ATOM      5  C   UNL     1      35.908  15.272 -18.538  1.00  0.00     0.093 A 
ATOM      6  C   UNL     1      33.381  16.324 -18.011  1.00  0.00     0.016 A 
ATOM      7  C   UNL     1      34.795  14.771 -19.217  1.00  0.00     0.123 A 
ATOM      8  C   UNL     1      33.534  15.303 -18.949  1.00  0.00     0.047 A 
BRANCH   4   9
ATOM      9  O   UNL     1      36.815  16.832 -16.878  1.00  0.00    -0.496 OA
ATOM     10  C   UNL     1      37.353  16.057 -15.813  1.00  0.00     0.278 C 
ENDBRANCH   4   9
BRANCH   7  11
ATOM     11  O   UNL     1      34.801  13.786 -20.167  1.00  0.00    -0.487 OA
BRANCH  11  12
ATOM     12  C   UNL     1      33.554  13.186 -20.539  1.00  0.00     0.285 C 
BRANCH  12  13
ATOM     13  C   UNL     1      33.461  11.724 -20.159  1.00  0.00     0.078 A 
ATOM     14  C   UNL     1      32.252  11.181 -19.727  1.00  0.00     0.027 A 
ATOM     15  N   UNL     1      34.601  10.987 -20.242  1.00  0.00    -0.258 NA
ATOM     16  C   UNL     1      32.204   9.836 -19.375  1.00  0.00     0.004 A 
ATOM     17  C   UNL     1      34.523   9.684 -19.891  1.00  0.00     0.111 A 
ATOM     18  C   UNL     1      33.360   9.069 -19.456  1.00  0.00     0.020 A 
ENDBRANCH  12  13
ENDBRANCH  11  12
ENDBRANCH   7  11
ENDBRANCH   1   3
BRANCH   2  19
ATOM     19  C   UNL     1      34.182  20.222 -15.685  1.00  0.00     0.058 A 
ATOM     20  C   UNL     1      33.125  21.057 -15.389  1.00  0.00     0.057 A 
ATOM     21  N   UNL     1      35.146  20.538 -14.766  1.00  0.00    -0.278 N 
ATOM     22  C   UNL     1      33.548  21.841 -14.285  1.00  0.00     0.085 A 
ATOM     23  N   UNL     1      34.793  21.514 -13.914  1.00  0.00    -0.176 NA
ATOM     24  H   UNL     1      36.067  20.127 -14.661  1.00  0.00     0.190 HD
BRANCH  22  25
ATOM     25  C   UNL     1      32.743  22.846 -13.659  1.00  0.00     0.031 C 
ATOM     26  C   UNL     1      33.123  24.122 -13.471  1.00  0.00     0.010 C 
BRANCH  26  27
ATOM     27  C   UNL     1      32.286  25.134 -12.812  1.00  0.00    -0.023 A 
ATOM     28  C   UNL     1      30.970  24.849 -12.416  1.00  0.00     0.034 A 
ATOM     29  C   UNL     1      32.809  26.419 -12.628  1.00  0.00     0.009 A 
ATOM     30  C   UNL     1      30.225  25.873 -11.816  1.00  0.00     0.046 A 
ATOM     31  C   UNL     1      32.052  27.432 -12.024  1.00  0.00     0.011 A 
ATOM     32  C   UNL     1      30.736  27.154 -11.609  1.00  0.00    -0.001 A 
ATOM     33  N   UNL     1      28.934  25.872 -11.338  1.00  0.00    -0.361 N 
ATOM     34  C   UNL     1      29.714  27.918 -10.984  1.00  0.00     0.028 A 
ATOM     35  C   UNL     1      28.616  27.103 -10.829  1.00  0.00     0.083 A 
ATOM     36  H   UNL     1      28.316  25.073 -11.363  1.00  0.00     0.166 HD
ENDBRANCH  26  27
ENDBRANCH  22  25
ENDBRANCH   2  19
TORSDOF 8
ENDMDL
MODEL 3
REMARK VINA RESULT:      -7.1      3.544      6.804
REMARK SMILES COc1cc(OCc2ccccn2)ccc1C=Cc1cc(C=Cc2ccc3cc[nH]c3c2)n[nH]1
REMARK SMILES IDX 17 1 18 2 16 3 3 4 4 5 15 6 5 7 14 8 2 9 1 10 6 11 7 12 8 13
REMARK SMILES IDX 9 14 13 15 10 16 12 17 11 18 19 19 20 20 34 21 21 22 33 23
REMARK SMILES IDX 22 25 23 26 24 27 32 28 25 29 31 30 26 31 27 32 30 33 28 34
REMARK SMILES IDX 29 35
REMARK H PARENT 34 24 30 36
ROOT
ATOM      1  C   UNL     1      25.110  11.792 -23.862  1.00  0.00     0.014 C 
ATOM      2  C   UNL     1      26.011  12.709 -24.244  1.00  0.00     0.028 C 
ENDROOT
BRANCH   1   3
ATOM      3  C   UNL     1      23.668  11.933 -24.133  1.00  0.00     0.017 A 
ATOM      4  C   UNL     1      22.790  10.840 -24.292  1.00  0.00     0.129 A 
ATOM      5  C   UNL     1      21.429  11.077 -24.542  1.00  0.00     0.093 A 
ATOM      6  C   UNL     1      23.159  13.236 -24.204  1.00  0.00     0.016 A 
ATOM      7  C   UNL     1      20.933  12.380 -24.622  1.00  0.00     0.123 A 
ATOM      8  C   UNL     1      21.804  13.455 -24.452  1.00  0.00     0.047 A 
BRANCH   4   9
ATOM      9  O   UNL     1      23.345   9.588 -24.187  1.00  0.00    -0.496 OA
ATOM     10  C   UNL     1      22.913   8.592 -25.105  1.00  0.00     0.278 C 
ENDBRANCH   4   9
BRANCH   7  11
ATOM     11  O   UNL     1      19.636  12.740 -24.873  1.00  0.00    -0.487 OA
BRANCH  11  12
ATOM     12  C   UNL     1      18.605  11.764 -24.678  1.00  0.00     0.285 C 
BRANCH  12  13
ATOM     13  C   UNL     1      17.613  12.154 -23.603  1.00  0.00     0.078 A 
ATOM     14  C   UNL     1      16.520  12.963 -23.910  1.00  0.00     0.027 A 
ATOM     15  N   UNL     1      17.849  11.698 -22.344  1.00  0.00    -0.258 NA
ATOM     16  C   UNL     1      15.633  13.311 -22.896  1.00  0.00     0.004 A 
ATOM     17  C   UNL     1      16.972  12.055 -21.381  1.00  0.00     0.111 A 
ATOM     18  C   UNL     1      15.861  12.851 -21.605  1.00  0.00     0.020 A 
ENDBRANCH  12  13
ENDBRANCH  11  12
ENDBRANCH   7  11
ENDBRANCH   1   3
BRANCH   2  19
ATOM     19  C   UNL     1      27.386  12.559 -23.952  1.00  0.00     0.058 A 
ATOM     20  C   UNL     1      28.138  11.936 -22.978  1.00  0.00     0.057 A 
ATOM     21  N   UNL     1      28.304  13.137 -24.787  1.00  0.00    -0.278 N 
ATOM     22  C   UNL     1      29.493  12.200 -23.306  1.00  0.00     0.085 A 
ATOM     23  N   UNL     1      29.580  12.941 -24.419  1.00  0.00    -0.176 NA
ATOM     24  H   UNL     1      28.129  13.677 -25.626  1.00  0.00     0.190 HD
BRANCH  22  25
ATOM     25  C   UNL     1      30.610  11.732 -22.543  1.00  0.00     0.031 C 
ATOM     26  C   UNL     1      30.537  11.278 -21.280  1.00  0.00     0.010 C 
BRANCH  26  27
ATOM     27  C   UNL     1      31.699  10.816 -20.510  1.00  0.00    -0.023 A 
ATOM     28  C   UNL     1      32.626  11.722 -19.971  1.00  0.00     0.034 A 
ATOM     29  C   UNL     1      31.899   9.440 -20.361  1.00  0.00     0.009 A 
ATOM     30  C   UNL     1      33.723  11.205 -19.268  1.00  0.00     0.046 A 
ATOM     31  C   UNL     1      33.000   8.937 -19.653  1.00  0.00     0.011 A 
ATOM     32  C   UNL     1      33.928   9.837 -19.095  1.00  0.00    -0.001 A 
ATOM     33  N   UNL     1      34.767  11.851 -18.646  1.00  0.00    -0.361 N 
ATOM     34  C   UNL     1      35.124   9.683 -18.342  1.00  0.00     0.028 A 
ATOM     35  C   UNL     1      35.618  10.940 -18.079  1.00  0.00     0.083 A 
ATOM     36  H   UNL     1      34.882  12.855 -18.616  1.00  0.00     0.166 HD
ENDBRANCH  26  27
ENDBRANCH  22  25
ENDBRANCH   2  19
TORSDOF 8
ENDMDL
