MODEL 1
REMARK VINA RESULT:      -7.3      0.000      0.000
REMARK SMILES COc1cc2c[n+](C)c3c4cc5c(cc4ccc3c2cc1OC)OCO5
REMARK SMILES IDX 8 1 7 2 6 3 5 4 4 5 3 6 21 7 20 8 19 9 18 10 9 11 10 12
REMARK SMILES IDX 11 13 12 14 13 15 14 16 15 17 16 18 17 19 24 20 25 21 26 22
REMARK SMILES IDX 2 23 1 24 22 25 23 26
REMARK H PARENT
ROOT
ATOM      1  C   UNL     1      21.478  18.099  -7.226  1.00  0.00     0.440 C 
ATOM      2  N   UNL     1      22.572  18.689  -8.033  1.00  0.00    -0.200 N 
ATOM      3  C   UNL     1      22.783  18.086  -9.225  1.00  0.00     0.317 A 
ATOM      4  C   UNL     1      23.928  18.283  -9.977  1.00  0.00     0.050 A 
ATOM      5  C   UNL     1      24.088  17.608 -11.203  1.00  0.00     0.065 A 
ATOM      6  C   UNL     1      25.250  17.751 -11.959  1.00  0.00     0.161 A 
ATOM      7  C   UNL     1      26.274  18.578 -11.479  1.00  0.00     0.161 A 
ATOM      8  C   UNL     1      26.104  19.248 -10.260  1.00  0.00     0.060 A 
ATOM      9  C   UNL     1      24.926  19.124  -9.472  1.00  0.00     0.005 A 
ATOM     10  C   UNL     1      24.679  19.802  -8.231  1.00  0.00     0.055 A 
ATOM     11  C   UNL     1      23.419  19.662  -7.553  1.00  0.00     0.220 A 
ATOM     12  C   UNL     1      23.111  20.517  -6.419  1.00  0.00     0.058 A 
ATOM     13  C   UNL     1      21.828  20.708  -5.825  1.00  0.00     0.066 A 
ATOM     14  C   UNL     1      21.674  21.515  -4.714  1.00  0.00     0.166 A 
ATOM     15  C   UNL     1      22.724  22.188  -4.164  1.00  0.00     0.166 A 
ATOM     16  C   UNL     1      23.976  22.111  -4.718  1.00  0.00     0.059 A 
ATOM     17  C   UNL     1      24.165  21.306  -5.857  1.00  0.00    -0.008 A 
ATOM     18  C   UNL     1      25.416  21.321  -6.455  1.00  0.00     0.010 A 
ATOM     19  C   UNL     1      25.653  20.622  -7.634  1.00  0.00     0.016 A 
ATOM     20  O   UNL     1      22.363  22.930  -3.087  1.00  0.00    -0.454 OA
ATOM     21  C   UNL     1      20.948  22.652  -3.023  1.00  0.00     0.468 C 
ATOM     22  O   UNL     1      20.504  21.748  -4.062  1.00  0.00    -0.454 OA
ENDROOT
BRANCH   6  23
ATOM     23  O   UNL     1      25.486  17.130 -13.155  1.00  0.00    -0.493 OA
ATOM     24  C   UNL     1      26.296  15.963 -13.167  1.00  0.00     0.278 C 
ENDBRANCH   6  23
BRANCH   7  25
ATOM     25  O   UNL     1      27.389  18.670 -12.270  1.00  0.00    -0.493 OA
ATOM     26  C   UNL     1      27.821  19.956 -12.693  1.00  0.00     0.278 C 
ENDBRANCH   7  25
TORSDOF 2
ENDMDL
MODEL 2
REMARK VINA RESULT:      -7.1      1.548      7.728
REMARK SMILES COc1cc2c[n+](C)c3c4cc5c(cc4ccc3c2cc1OC)OCO5
REMARK SMILES IDX 8 1 7 2 6 3 5 4 4 5 3 6 21 7 20 8 19 9 18 10 9 11 10 12
REMARK SMILES IDX 11 13 12 14 13 15 14 16 15 17 16 18 17 19 24 20 25 21 26 22
REMARK SMILES IDX 2 23 1 24 22 25 23 26
REMARK H PARENT
ROOT
ATOM      1  C   UNL     1      22.354  17.282 -10.289  1.00  0.00     0.440 C 
ATOM      2  N   UNL     1      23.001  17.988  -9.158  1.00  0.00    -0.200 N 
ATOM      3  C   UNL     1      22.324  17.924  -7.989  1.00  0.00     0.317 A 
ATOM      4  C   UNL     1      22.594  18.751  -6.915  1.00  0.00     0.050 A 
ATOM      5  C   UNL     1      21.836  18.639  -5.733  1.00  0.00     0.065 A 
ATOM      6  C   UNL     1      22.056  19.491  -4.652  1.00  0.00     0.161 A 
ATOM      7  C   UNL     1      23.046  20.476  -4.753  1.00  0.00     0.161 A 
ATOM      8  C   UNL     1      23.797  20.578  -5.933  1.00  0.00     0.060 A 
ATOM      9  C   UNL     1      23.598  19.718  -7.048  1.00  0.00     0.005 A 
ATOM     10  C   UNL     1      24.349  19.753  -8.271  1.00  0.00     0.055 A 
ATOM     11  C   UNL     1      24.113  18.786  -9.308  1.00  0.00     0.220 A 
ATOM     12  C   UNL     1      25.022  18.705 -10.439  1.00  0.00     0.058 A 
ATOM     13  C   UNL     1      25.103  17.642 -11.387  1.00  0.00     0.066 A 
ATOM     14  C   UNL     1      25.982  17.706 -12.452  1.00  0.00     0.166 A 
ATOM     15  C   UNL     1      26.830  18.760 -12.620  1.00  0.00     0.166 A 
ATOM     16  C   UNL     1      26.861  19.789 -11.713  1.00  0.00     0.059 A 
ATOM     17  C   UNL     1      25.986  19.748 -10.612  1.00  0.00    -0.008 A 
ATOM     18  C   UNL     1      26.104  20.749  -9.660  1.00  0.00     0.010 A 
ATOM     19  C   UNL     1      25.337  20.727  -8.500  1.00  0.00     0.016 A 
ATOM     20  O   UNL     1      27.615  18.629 -13.719  1.00  0.00    -0.454 OA
ATOM     21  C   UNL     1      27.167  17.355 -14.227  1.00  0.00     0.468 C 
ATOM     22  O   UNL     1      26.123  16.761 -13.418  1.00  0.00    -0.454 OA
ENDROOT
BRANCH   6  23
ATOM     23  O   UNL     1      21.363  19.450  -3.472  1.00  0.00    -0.493 OA
ATOM     24  C   UNL     1      21.329  18.230  -2.745  1.00  0.00     0.278 C 
ENDBRANCH   6  23
BRANCH   7  25
ATOM     25  O   UNL     1      23.205  21.280  -3.655  1.00  0.00    -0.493 OA
ATOM     26  C   UNL     1      24.437  21.232  -2.949  1.00  0.00     0.278 C 
ENDBRANCH   7  25
TORSDOF 2
ENDMDL
MODEL 3
REMARK VINA RESULT:      -7.0     16.567     18.670
REMARK SMILES COc1cc2c[n+](C)c3c4cc5c(cc4ccc3c2cc1OC)OCO5
REMARK SMILES IDX 8 1 7 2 6 3 5 4 4 5 3 6 21 7 20 8 19 9 18 10 9 11 10 12
REMARK SMILES IDX 11 13 12 14 13 15 14 16 15 17 16 18 17 19 24 20 25 21 26 22
REMARK SMILES IDX 2 23 1 24 22 25 23 26
REMARK H PARENT
ROOT
ATOM      1  C   UNL     1      20.472   8.611 -23.990  1.00  0.00     0.440 C 
ATOM      2  N   UNL     1      19.679   9.331 -22.966  1.00  0.00    -0.200 N 
ATOM      3  C   UNL     1      18.739   8.579 -22.348  1.00  0.00     0.317 A 
ATOM      4  C   UNL     1      17.713   9.123 -21.598  1.00  0.00     0.050 A 
ATOM      5  C   UNL     1      16.759   8.279 -20.995  1.00  0.00     0.065 A 
ATOM      6  C   UNL     1      15.688   8.802 -20.273  1.00  0.00     0.161 A 
ATOM      7  C   UNL     1      15.562  10.192 -20.154  1.00  0.00     0.161 A 
ATOM      8  C   UNL     1      16.518  11.024 -20.754  1.00  0.00     0.060 A 
ATOM      9  C   UNL     1      17.624  10.516 -21.492  1.00  0.00     0.005 A 
ATOM     10  C   UNL     1      18.649  11.310 -22.106  1.00  0.00     0.055 A 
ATOM     11  C   UNL     1      19.766  10.690 -22.767  1.00  0.00     0.220 A 
ATOM     12  C   UNL     1      20.894  11.501 -23.192  1.00  0.00     0.058 A 
ATOM     13  C   UNL     1      22.178  11.024 -23.591  1.00  0.00     0.066 A 
ATOM     14  C   UNL     1      23.157  11.899 -24.023  1.00  0.00     0.166 A 
ATOM     15  C   UNL     1      22.954  13.246 -24.050  1.00  0.00     0.166 A 
ATOM     16  C   UNL     1      21.770  13.788 -23.618  1.00  0.00     0.059 A 
ATOM     17  C   UNL     1      20.756  12.925 -23.162  1.00  0.00    -0.008 A 
ATOM     18  C   UNL     1      19.608  13.501 -22.640  1.00  0.00     0.010 A 
ATOM     19  C   UNL     1      18.602  12.716 -22.088  1.00  0.00     0.016 A 
ATOM     20  O   UNL     1      24.037  13.929 -24.498  1.00  0.00    -0.454 OA
ATOM     21  C   UNL     1      24.961  12.848 -24.745  1.00  0.00     0.468 C 
ATOM     22  O   UNL     1      24.401  11.549 -24.441  1.00  0.00    -0.454 OA
ENDROOT
BRANCH   6  23
ATOM     23  O   UNL     1      14.719   8.054 -19.661  1.00  0.00    -0.493 OA
ATOM     24  C   UNL     1      14.917   6.653 -19.540  1.00  0.00     0.278 C 
ENDBRANCH   6  23
BRANCH   7  25
ATOM     25  O   UNL     1      14.485  10.636 -19.433  1.00  0.00    -0.493 OA
ATOM     26  C   UNL     1      14.550  11.923 -18.834  1.00  0.00     0.278 C 
ENDBRANCH   7  25
TORSDOF 2
ENDMDL
