MODEL 1
REMARK VINA RESULT:      -7.0      0.000      0.000
REMARK SMILES COc1cc2c(cc1OC)-c1cc3ccc4c(c3c[n+]1CC2)OCO4
REMARK SMILES IDX 3 1 8 2 7 3 6 4 5 5 4 6 22 7 21 8 20 9 11 10 12 11 13 12
REMARK SMILES IDX 14 13 15 14 16 15 17 16 18 17 19 18 23 19 24 20 25 21 2 22
REMARK SMILES IDX 1 23 9 24 10 25
REMARK H PARENT
ROOT
ATOM      1  C   UNL     1      27.009  13.423 -25.004  1.00  0.00     0.161 A 
ATOM      2  C   UNL     1      25.920  14.273 -25.266  1.00  0.00     0.161 A 
ATOM      3  C   UNL     1      24.629  13.897 -24.868  1.00  0.00     0.065 A 
ATOM      4  C   UNL     1      24.388  12.677 -24.206  1.00  0.00     0.054 A 
ATOM      5  C   UNL     1      25.489  11.825 -23.990  1.00  0.00    -0.024 A 
ATOM      6  C   UNL     1      26.786  12.203 -24.367  1.00  0.00     0.055 A 
ATOM      7  C   UNL     1      25.252  10.500 -23.320  1.00  0.00     0.109 C 
ATOM      8  C   UNL     1      23.914   9.956 -23.788  1.00  0.00     0.362 C 
ATOM      9  N   UNL     1      22.840  10.947 -23.514  1.00  0.00    -0.197 N 
ATOM     10  C   UNL     1      23.043  12.279 -23.737  1.00  0.00     0.213 A 
ATOM     11  C   UNL     1      21.997  13.181 -23.477  1.00  0.00     0.089 A 
ATOM     12  C   UNL     1      20.754  12.731 -23.019  1.00  0.00    -0.002 A 
ATOM     13  C   UNL     1      19.681  13.615 -22.751  1.00  0.00     0.013 A 
ATOM     14  C   UNL     1      18.447  13.137 -22.298  1.00  0.00     0.051 A 
ATOM     15  C   UNL     1      18.308  11.780 -22.120  1.00  0.00     0.166 A 
ATOM     16  C   UNL     1      19.341  10.909 -22.374  1.00  0.00     0.179 A 
ATOM     17  C   UNL     1      20.580  11.351 -22.824  1.00  0.00     0.092 A 
ATOM     18  C   UNL     1      21.643  10.486 -23.082  1.00  0.00     0.321 A 
ATOM     19  O   UNL     1      18.992   9.614 -22.130  1.00  0.00    -0.453 OA
ATOM     20  C   UNL     1      17.619   9.772 -21.696  1.00  0.00     0.468 C 
ATOM     21  O   UNL     1      17.188  11.147 -21.688  1.00  0.00    -0.454 OA
ENDROOT
BRANCH   1  22
ATOM     22  O   UNL     1      28.236  13.871 -25.419  1.00  0.00    -0.493 OA
ATOM     23  C   UNL     1      29.389  13.140 -25.025  1.00  0.00     0.278 C 
ENDBRANCH   1  22
BRANCH   2  24
ATOM     24  O   UNL     1      26.221  15.445 -25.913  1.00  0.00    -0.493 OA
ATOM     25  C   UNL     1      25.731  15.642 -27.231  1.00  0.00     0.278 C 
ENDBRANCH   2  24
TORSDOF 2
ENDMDL
MODEL 2
REMARK VINA RESULT:      -6.9     17.423     18.906
REMARK SMILES COc1cc2c(cc1OC)-c1cc3ccc4c(c3c[n+]1CC2)OCO4
REMARK SMILES IDX 3 1 8 2 7 3 6 4 5 5 4 6 22 7 21 8 20 9 11 10 12 11 13 12
REMARK SMILES IDX 14 13 15 14 16 15 17 16 18 17 19 18 23 19 24 20 25 21 2 22
REMARK SMILES IDX 1 23 9 24 10 25
REMARK H PARENT
ROOT
ATOM      1  C   UNL     1      22.841  22.194  -4.119  1.00  0.00     0.161 A 
ATOM      2  C   UNL     1      21.843  21.708  -4.983  1.00  0.00     0.161 A 
ATOM      3  C   UNL     1      22.205  21.038  -6.161  1.00  0.00     0.065 A 
ATOM      4  C   UNL     1      23.555  20.837  -6.510  1.00  0.00     0.054 A 
ATOM      5  C   UNL     1      24.536  21.366  -5.648  1.00  0.00    -0.024 A 
ATOM      6  C   UNL     1      24.183  22.020  -4.457  1.00  0.00     0.055 A 
ATOM      7  C   UNL     1      25.984  21.198  -6.016  1.00  0.00     0.109 C 
ATOM      8  C   UNL     1      26.113  21.315  -7.525  1.00  0.00     0.362 C 
ATOM      9  N   UNL     1      25.225  20.324  -8.187  1.00  0.00    -0.197 N 
ATOM     10  C   UNL     1      23.962  20.095  -7.723  1.00  0.00     0.213 A 
ATOM     11  C   UNL     1      23.150  19.160  -8.387  1.00  0.00     0.089 A 
ATOM     12  C   UNL     1      23.609  18.484  -9.522  1.00  0.00    -0.002 A 
ATOM     13  C   UNL     1      22.813  17.539 -10.214  1.00  0.00     0.013 A 
ATOM     14  C   UNL     1      23.296  16.880 -11.350  1.00  0.00     0.051 A 
ATOM     15  C   UNL     1      24.570  17.180 -11.774  1.00  0.00     0.166 A 
ATOM     16  C   UNL     1      25.356  18.095 -11.113  1.00  0.00     0.179 A 
ATOM     17  C   UNL     1      24.906  18.765  -9.981  1.00  0.00     0.092 A 
ATOM     18  C   UNL     1      25.688  19.691  -9.291  1.00  0.00     0.321 A 
ATOM     19  O   UNL     1      26.578  18.239 -11.698  1.00  0.00    -0.453 OA
ATOM     20  C   UNL     1      26.469  17.311 -12.805  1.00  0.00     0.468 C 
ATOM     21  O   UNL     1      25.195  16.639 -12.851  1.00  0.00    -0.454 OA
ENDROOT
BRANCH   1  22
ATOM     22  O   UNL     1      22.400  22.828  -2.986  1.00  0.00    -0.493 OA
ATOM     23  C   UNL     1      22.548  24.238  -2.903  1.00  0.00     0.278 C 
ENDBRANCH   1  22
BRANCH   2  24
ATOM     24  O   UNL     1      20.550  21.937  -4.588  1.00  0.00    -0.493 OA
ATOM     25  C   UNL     1      19.745  22.816  -5.360  1.00  0.00     0.278 C 
ENDBRANCH   2  24
TORSDOF 2
ENDMDL
MODEL 3
REMARK VINA RESULT:      -6.8      1.415      8.183
REMARK SMILES COc1cc2c(cc1OC)-c1cc3ccc4c(c3c[n+]1CC2)OCO4
REMARK SMILES IDX 3 1 8 2 7 3 6 4 5 5 4 6 22 7 21 8 20 9 11 10 12 11 13 12
REMARK SMILES IDX 14 13 15 14 16 15 17 16 18 17 19 18 23 19 24 20 25 21 2 22
REMARK SMILES IDX 1 23 9 24 10 25
REMARK H PARENT
ROOT
ATOM      1  C   UNL     1      18.004  10.867 -22.142  1.00  0.00     0.161 A 
ATOM      2  C   UNL     1      18.781   9.780 -22.579  1.00  0.00     0.161 A 
ATOM      3  C   UNL     1      20.104   9.990 -22.995  1.00  0.00     0.065 A 
ATOM      4  C   UNL     1      20.684  11.274 -22.990  1.00  0.00     0.054 A 
ATOM      5  C   UNL     1      19.873  12.352 -22.584  1.00  0.00    -0.024 A 
ATOM      6  C   UNL     1      18.555  12.148 -22.147  1.00  0.00     0.055 A 
ATOM      7  C   UNL     1      20.456  13.738 -22.605  1.00  0.00     0.109 C 
ATOM      8  C   UNL     1      21.381  13.852 -23.805  1.00  0.00     0.362 C 
ATOM      9  N   UNL     1      22.415  12.787 -23.750  1.00  0.00    -0.197 N 
ATOM     10  C   UNL     1      22.090  11.513 -23.381  1.00  0.00     0.213 A 
ATOM     11  C   UNL     1      23.096  10.532 -23.355  1.00  0.00     0.089 A 
ATOM     12  C   UNL     1      24.410  10.838 -23.726  1.00  0.00    -0.002 A 
ATOM     13  C   UNL     1      25.444   9.870 -23.713  1.00  0.00     0.013 A 
ATOM     14  C   UNL     1      26.749  10.202 -24.092  1.00  0.00     0.051 A 
ATOM     15  C   UNL     1      26.997  11.500 -24.477  1.00  0.00     0.166 A 
ATOM     16  C   UNL     1      26.004  12.451 -24.493  1.00  0.00     0.179 A 
ATOM     17  C   UNL     1      24.698  12.154 -24.122  1.00  0.00     0.092 A 
ATOM     18  C   UNL     1      23.678  13.104 -24.124  1.00  0.00     0.321 A 
ATOM     19  O   UNL     1      26.465  13.666 -24.903  1.00  0.00    -0.453 OA
ATOM     20  C   UNL     1      27.862  13.367 -25.146  1.00  0.00     0.468 C 
ATOM     21  O   UNL     1      28.198  11.993 -24.873  1.00  0.00    -0.454 OA
ENDROOT
BRANCH   1  22
ATOM     22  O   UNL     1      16.725  10.572 -21.745  1.00  0.00    -0.493 OA
ATOM     23  C   UNL     1      16.361  10.834 -20.397  1.00  0.00     0.278 C 
ENDBRANCH   1  22
BRANCH   2  24
ATOM     24  O   UNL     1      18.159   8.557 -22.562  1.00  0.00    -0.493 OA
ATOM     25  C   UNL     1      18.927   7.405 -22.246  1.00  0.00     0.278 C 
ENDBRANCH   2  24
TORSDOF 2
ENDMDL
