MODEL 1
REMARK VINA RESULT:      -8.5      0.000      0.000
REMARK SMILES Nc1nc2c3ccc(F)cc3nc(Cc3ccc4c(c3)OCO4)n2n1
REMARK SMILES IDX 2 1 3 2 4 3 5 4 6 5 7 6 8 7 9 8 10 9 11 10 12 11 13 12 24 13
REMARK SMILES IDX 25 14 1 15 14 18 15 19 16 20 20 21 17 22 19 23 18 24 21 25
REMARK SMILES IDX 23 26 22 27
REMARK H PARENT 1 16 1 17
ROOT
ATOM      1  C   UNL     1      21.842  18.228  -8.172  1.00  0.00     0.240 A 
ATOM      2  N   UNL     1      22.275  17.572  -9.284  1.00  0.00    -0.192 NA
ATOM      3  C   UNL     1      23.422  18.161  -9.536  1.00  0.00     0.169 A 
ATOM      4  C   UNL     1      24.402  17.976 -10.584  1.00  0.00     0.045 A 
ATOM      5  C   UNL     1      24.251  17.024 -11.596  1.00  0.00     0.017 A 
ATOM      6  C   UNL     1      25.237  16.906 -12.574  1.00  0.00     0.040 A 
ATOM      7  C   UNL     1      26.356  17.737 -12.530  1.00  0.00     0.125 A 
ATOM      8  F   UNL     1      27.298  17.616 -13.475  1.00  0.00    -0.207 F 
ATOM      9  C   UNL     1      26.514  18.687 -11.525  1.00  0.00     0.068 A 
ATOM     10  C   UNL     1      25.538  18.820 -10.540  1.00  0.00     0.079 A 
ATOM     11  N   UNL     1      25.719  19.795  -9.523  1.00  0.00    -0.232 NA
ATOM     12  C   UNL     1      24.803  19.917  -8.596  1.00  0.00     0.137 C 
ATOM     13  N   UNL     1      23.660  19.118  -8.587  1.00  0.00    -0.196 N 
ATOM     14  N   UNL     1      22.650  19.174  -7.699  1.00  0.00    -0.126 NA
ENDROOT
BRANCH   1  15
ATOM     15  N   UNL     1      20.679  17.870  -7.638  1.00  0.00    -0.366 N 
ATOM     16  H   UNL     1      20.341  16.946  -7.876  1.00  0.00     0.159 HD
ATOM     17  H   UNL     1      20.520  18.130  -6.674  1.00  0.00     0.159 HD
ENDBRANCH   1  15
BRANCH  12  18
ATOM     18  C   UNL     1      24.920  20.901  -7.465  1.00  0.00     0.113 C 
BRANCH  18  19
ATOM     19  C   UNL     1      25.729  22.119  -7.851  1.00  0.00    -0.036 A 
ATOM     20  C   UNL     1      26.505  22.791  -6.877  1.00  0.00     0.008 A 
ATOM     21  C   UNL     1      25.695  22.607  -9.167  1.00  0.00     0.054 A 
ATOM     22  C   UNL     1      27.246  23.929  -7.208  1.00  0.00     0.051 A 
ATOM     23  C   UNL     1      26.437  23.731  -9.462  1.00  0.00     0.166 A 
ATOM     24  C   UNL     1      27.191  24.374  -8.509  1.00  0.00     0.165 A 
ATOM     25  O   UNL     1      26.516  24.333 -10.680  1.00  0.00    -0.454 OA
ATOM     26  O   UNL     1      27.841  25.459  -9.007  1.00  0.00    -0.454 OA
ATOM     27  C   UNL     1      27.411  25.425 -10.383  1.00  0.00     0.468 C 
ENDBRANCH  18  19
ENDBRANCH  12  18
TORSDOF 3
ENDMDL
MODEL 2
REMARK VINA RESULT:      -8.5      4.002      5.373
REMARK SMILES Nc1nc2c3ccc(F)cc3nc(Cc3ccc4c(c3)OCO4)n2n1
REMARK SMILES IDX 2 1 3 2 4 3 5 4 6 5 7 6 8 7 9 8 10 9 11 10 12 11 13 12 24 13
REMARK SMILES IDX 25 14 1 15 14 18 15 19 16 20 20 21 17 22 19 23 18 24 21 25
REMARK SMILES IDX 23 26 22 27
REMARK H PARENT 1 16 1 17
ROOT
ATOM      1  C   UNL     1      22.079  15.693 -10.547  1.00  0.00     0.240 A 
ATOM      2  N   UNL     1      23.158  15.852 -11.364  1.00  0.00    -0.192 NA
ATOM      3  C   UNL     1      23.710  16.950 -10.900  1.00  0.00     0.169 A 
ATOM      4  C   UNL     1      24.875  17.703 -11.311  1.00  0.00     0.045 A 
ATOM      5  C   UNL     1      25.678  17.319 -12.388  1.00  0.00     0.017 A 
ATOM      6  C   UNL     1      26.783  18.098 -12.727  1.00  0.00     0.040 A 
ATOM      7  C   UNL     1      27.070  19.246 -11.990  1.00  0.00     0.125 A 
ATOM      8  F   UNL     1      28.134  19.988 -12.324  1.00  0.00    -0.207 F 
ATOM      9  C   UNL     1      26.275  19.636 -10.916  1.00  0.00     0.068 A 
ATOM     10  C   UNL     1      25.166  18.870 -10.564  1.00  0.00     0.079 A 
ATOM     11  N   UNL     1      24.368  19.285  -9.463  1.00  0.00    -0.232 NA
ATOM     12  C   UNL     1      23.328  18.563  -9.131  1.00  0.00     0.137 C 
ATOM     13  N   UNL     1      22.987  17.406  -9.831  1.00  0.00    -0.196 N 
ATOM     14  N   UNL     1      21.932  16.605  -9.589  1.00  0.00    -0.126 NA
ENDROOT
BRANCH   1  15
ATOM     15  N   UNL     1      21.283  14.648 -10.747  1.00  0.00    -0.366 N 
ATOM     16  H   UNL     1      20.850  14.249  -9.924  1.00  0.00     0.159 HD
ATOM     17  H   UNL     1      20.675  14.685 -11.555  1.00  0.00     0.159 HD
ENDBRANCH   1  15
BRANCH  12  18
ATOM     18  C   UNL     1      22.441  18.907  -7.967  1.00  0.00     0.113 C 
BRANCH  18  19
ATOM     19  C   UNL     1      23.114  18.637  -6.639  1.00  0.00    -0.036 A 
ATOM     20  C   UNL     1      24.061  19.554  -6.127  1.00  0.00     0.008 A 
ATOM     21  C   UNL     1      22.823  17.466  -5.921  1.00  0.00     0.054 A 
ATOM     22  C   UNL     1      24.707  19.316  -4.910  1.00  0.00     0.051 A 
ATOM     23  C   UNL     1      23.476  17.260  -4.724  1.00  0.00     0.166 A 
ATOM     24  C   UNL     1      24.392  18.160  -4.232  1.00  0.00     0.165 A 
ATOM     25  O   UNL     1      23.314  16.185  -3.907  1.00  0.00    -0.454 OA
ATOM     26  O   UNL     1      24.921  17.765  -3.044  1.00  0.00    -0.454 OA
ATOM     27  C   UNL     1      24.231  16.515  -2.842  1.00  0.00     0.468 C 
ENDBRANCH  18  19
ENDBRANCH  12  18
TORSDOF 3
ENDMDL
MODEL 3
REMARK VINA RESULT:      -8.4      3.431      4.777
REMARK SMILES Nc1nc2c3ccc(F)cc3nc(Cc3ccc4c(c3)OCO4)n2n1
REMARK SMILES IDX 2 1 3 2 4 3 5 4 6 5 7 6 8 7 9 8 10 9 11 10 12 11 13 12 24 13
REMARK SMILES IDX 25 14 1 15 14 18 15 19 16 20 20 21 17 22 19 23 18 24 21 25
REMARK SMILES IDX 23 26 22 27
REMARK H PARENT 1 16 1 17
ROOT
ATOM      1  C   UNL     1      22.105  15.677 -10.602  1.00  0.00     0.240 A 
ATOM      2  N   UNL     1      23.174  15.850 -11.427  1.00  0.00    -0.192 NA
ATOM      3  C   UNL     1      23.733  16.939 -10.949  1.00  0.00     0.169 A 
ATOM      4  C   UNL     1      24.894  17.699 -11.360  1.00  0.00     0.045 A 
ATOM      5  C   UNL     1      25.684  17.332 -12.453  1.00  0.00     0.017 A 
ATOM      6  C   UNL     1      26.787  18.117 -12.790  1.00  0.00     0.040 A 
ATOM      7  C   UNL     1      27.083  19.251 -12.035  1.00  0.00     0.125 A 
ATOM      8  F   UNL     1      28.145  19.998 -12.367  1.00  0.00    -0.207 F 
ATOM      9  C   UNL     1      26.300  19.622 -10.946  1.00  0.00     0.068 A 
ATOM     10  C   UNL     1      25.195  18.851 -10.595  1.00  0.00     0.079 A 
ATOM     11  N   UNL     1      24.410  19.247  -9.478  1.00  0.00    -0.232 NA
ATOM     12  C   UNL     1      23.373  18.520  -9.148  1.00  0.00     0.137 C 
ATOM     13  N   UNL     1      23.022  17.376  -9.865  1.00  0.00    -0.196 N 
ATOM     14  N   UNL     1      21.969  16.572  -9.626  1.00  0.00    -0.126 NA
ENDROOT
BRANCH   1  15
ATOM     15  N   UNL     1      21.305  14.637 -10.811  1.00  0.00    -0.366 N 
ATOM     16  H   UNL     1      21.013  14.480 -11.767  1.00  0.00     0.159 HD
ATOM     17  H   UNL     1      21.515  13.789 -10.300  1.00  0.00     0.159 HD
ENDBRANCH   1  15
BRANCH  12  18
ATOM     18  C   UNL     1      22.499  18.844  -7.968  1.00  0.00     0.113 C 
BRANCH  18  19
ATOM     19  C   UNL     1      23.238  18.702  -6.656  1.00  0.00    -0.036 A 
ATOM     20  C   UNL     1      22.968  17.603  -5.807  1.00  0.00     0.008 A 
ATOM     21  C   UNL     1      24.173  19.671  -6.260  1.00  0.00     0.054 A 
ATOM     22  C   UNL     1      23.627  17.462  -4.582  1.00  0.00     0.051 A 
ATOM     23  C   UNL     1      24.807  19.504  -5.047  1.00  0.00     0.166 A 
ATOM     24  C   UNL     1      24.542  18.430  -4.231  1.00  0.00     0.165 A 
ATOM     25  O   UNL     1      25.735  20.344  -4.514  1.00  0.00    -0.454 OA
ATOM     26  O   UNL     1      25.269  18.458  -3.083  1.00  0.00    -0.454 OA
ATOM     27  C   UNL     1      26.026  19.671  -3.271  1.00  0.00     0.468 C 
ENDBRANCH  18  19
ENDBRANCH  12  18
TORSDOF 3
ENDMDL
