MODEL 1
REMARK VINA RESULT:      -7.5      0.000      0.000
REMARK SMILES Cc1c(C)c2ccc(OCCN3CCc4ccccc4C3)cc2oc1=O
REMARK SMILES IDX 9 1 8 2 2 3 3 4 25 5 5 6 24 7 26 8 6 9 23 10 7 11 22 12 1 13
REMARK SMILES IDX 4 14 10 15 11 16 12 17 13 18 21 19 14 20 20 21 15 22 19 23
REMARK SMILES IDX 16 24 18 25 17 26
REMARK H PARENT
ROOT
ATOM      1  O   UNL     1      23.526  20.854  -5.865  1.00  0.00    -0.492 OA
ENDROOT
BRANCH   1   2
ATOM      2  C   UNL     1      23.892  20.258  -7.039  1.00  0.00     0.123 A 
ATOM      3  C   UNL     1      24.574  17.677 -11.352  1.00  0.00     0.038 C 
ATOM      4  C   UNL     1      25.364  18.582 -10.734  1.00  0.00    -0.030 C 
ATOM      5  C   UNL     1      23.273  17.241 -10.767  1.00  0.00     0.339 C 
ATOM      6  C   UNL     1      24.901  19.182  -9.465  1.00  0.00     0.021 A 
ATOM      7  O   UNL     1      22.886  17.818  -9.571  1.00  0.00    -0.422 OA
ATOM      8  O   UNL     1      22.570  16.397 -11.314  1.00  0.00    -0.246 OA
ATOM      9  C   UNL     1      25.615  20.155  -8.754  1.00  0.00     0.016 A 
ATOM     10  C   UNL     1      23.681  18.779  -8.930  1.00  0.00     0.142 A 
ATOM     11  C   UNL     1      25.115  20.684  -7.556  1.00  0.00     0.047 A 
ATOM     12  C   UNL     1      23.167  19.297  -7.734  1.00  0.00     0.094 A 
ATOM     13  C   UNL     1      24.868  17.008 -12.670  1.00  0.00     0.052 C 
ATOM     14  C   UNL     1      26.712  19.020 -11.248  1.00  0.00     0.045 C 
ENDBRANCH   1   2
BRANCH   1  15
ATOM     15  C   UNL     1      22.493  21.843  -5.932  1.00  0.00     0.245 C 
BRANCH  15  16
ATOM     16  C   UNL     1      23.062  23.166  -5.390  1.00  0.00     0.126 C 
BRANCH  16  17
ATOM     17  N   UNL     1      22.701  24.351  -6.189  1.00  0.00    -0.295 NA
ATOM     18  C   UNL     1      23.338  25.600  -5.739  1.00  0.00     0.090 C 
ATOM     19  C   UNL     1      23.017  24.145  -7.618  1.00  0.00     0.120 C 
ATOM     20  C   UNL     1      24.869  25.611  -5.855  1.00  0.00     0.051 C 
ATOM     21  C   UNL     1      24.481  24.292  -7.976  1.00  0.00    -0.031 A 
ATOM     22  C   UNL     1      25.356  25.033  -7.160  1.00  0.00    -0.042 A 
ATOM     23  C   UNL     1      24.962  23.742  -9.174  1.00  0.00     0.005 A 
ATOM     24  C   UNL     1      26.698  25.183  -7.534  1.00  0.00     0.004 A 
ATOM     25  C   UNL     1      26.297  23.903  -9.542  1.00  0.00     0.000 A 
ATOM     26  C   UNL     1      27.165  24.622  -8.723  1.00  0.00     0.000 A 
ENDBRANCH  16  17
ENDBRANCH  15  16
ENDBRANCH   1  15
TORSDOF 4
ENDMDL
MODEL 2
REMARK VINA RESULT:      -7.5      1.625      2.461
REMARK SMILES Cc1c(C)c2ccc(OCCN3CCc4ccccc4C3)cc2oc1=O
REMARK SMILES IDX 9 1 8 2 2 3 3 4 25 5 5 6 24 7 26 8 6 9 23 10 7 11 22 12 1 13
REMARK SMILES IDX 4 14 10 15 11 16 12 17 13 18 21 19 14 20 20 21 15 22 19 23
REMARK SMILES IDX 16 24 18 25 17 26
REMARK H PARENT
ROOT
ATOM      1  O   UNL     1      22.692  20.237  -6.139  1.00  0.00    -0.492 OA
ENDROOT
BRANCH   1   2
ATOM      2  C   UNL     1      23.086  19.641  -7.304  1.00  0.00     0.123 A 
ATOM      3  C   UNL     1      25.197  17.834 -11.548  1.00  0.00     0.038 C 
ATOM      4  C   UNL     1      24.000  17.571 -10.979  1.00  0.00    -0.030 C 
ATOM      5  C   UNL     1      26.143  18.827 -10.961  1.00  0.00     0.339 C 
ATOM      6  C   UNL     1      23.643  18.257  -9.720  1.00  0.00     0.021 A 
ATOM      7  O   UNL     1      25.763  19.457  -9.790  1.00  0.00    -0.422 OA
ATOM      8  O   UNL     1      27.217  19.089 -11.494  1.00  0.00    -0.246 OA
ATOM      9  C   UNL     1      22.450  18.038  -9.021  1.00  0.00     0.016 A 
ATOM     10  C   UNL     1      24.536  19.174  -9.171  1.00  0.00     0.142 A 
ATOM     11  C   UNL     1      22.176  18.723  -7.829  1.00  0.00     0.047 A 
ATOM     12  C   UNL     1      24.278  19.867  -7.982  1.00  0.00     0.094 A 
ATOM     13  C   UNL     1      25.737  17.191 -12.798  1.00  0.00     0.052 C 
ATOM     14  C   UNL     1      22.980  16.621 -11.555  1.00  0.00     0.045 C 
ENDBRANCH   1   2
BRANCH   1  15
ATOM     15  C   UNL     1      21.788  21.342  -6.248  1.00  0.00     0.245 C 
BRANCH  15  16
ATOM     16  C   UNL     1      22.592  22.573  -6.700  1.00  0.00     0.126 C 
BRANCH  16  17
ATOM     17  N   UNL     1      23.091  23.408  -5.593  1.00  0.00    -0.295 NA
ATOM     18  C   UNL     1      24.120  22.760  -4.763  1.00  0.00     0.090 C 
ATOM     19  C   UNL     1      23.623  24.692  -6.094  1.00  0.00     0.120 C 
ATOM     20  C   UNL     1      25.423  22.433  -5.507  1.00  0.00     0.051 C 
ATOM     21  C   UNL     1      25.002  24.613  -6.716  1.00  0.00    -0.031 A 
ATOM     22  C   UNL     1      25.880  23.560  -6.399  1.00  0.00    -0.042 A 
ATOM     23  C   UNL     1      25.440  25.638  -7.568  1.00  0.00     0.005 A 
ATOM     24  C   UNL     1      27.163  23.530  -6.962  1.00  0.00     0.004 A 
ATOM     25  C   UNL     1      26.721  25.604  -8.117  1.00  0.00     0.000 A 
ATOM     26  C   UNL     1      27.582  24.550  -7.815  1.00  0.00     0.000 A 
ENDBRANCH  16  17
ENDBRANCH  15  16
ENDBRANCH   1  15
TORSDOF 4
ENDMDL
MODEL 3
REMARK VINA RESULT:      -7.5      1.340      2.007
REMARK SMILES Cc1c(C)c2ccc(OCCN3CCc4ccccc4C3)cc2oc1=O
REMARK SMILES IDX 9 1 8 2 2 3 3 4 25 5 5 6 24 7 26 8 6 9 23 10 7 11 22 12 1 13
REMARK SMILES IDX 4 14 10 15 11 16 12 17 13 18 21 19 14 20 20 21 15 22 19 23
REMARK SMILES IDX 16 24 18 25 17 26
REMARK H PARENT
ROOT
ATOM      1  O   UNL     1      23.619  20.905  -6.309  1.00  0.00    -0.492 OA
ENDROOT
BRANCH   1   2
ATOM      2  C   UNL     1      23.827  20.156  -7.432  1.00  0.00     0.123 A 
ATOM      3  C   UNL     1      25.280  17.727 -11.642  1.00  0.00     0.038 C 
ATOM      4  C   UNL     1      24.141  17.635 -10.921  1.00  0.00    -0.030 C 
ATOM      5  C   UNL     1      26.363  18.687 -11.278  1.00  0.00     0.339 C 
ATOM      6  C   UNL     1      23.988  18.480  -9.719  1.00  0.00     0.021 A 
ATOM      7  O   UNL     1      26.172  19.469 -10.154  1.00  0.00    -0.422 OA
ATOM      8  O   UNL     1      27.384  18.792 -11.950  1.00  0.00    -0.246 OA
ATOM      9  C   UNL     1      22.872  18.444  -8.875  1.00  0.00     0.016 A 
ATOM     10  C   UNL     1      25.008  19.365  -9.378  1.00  0.00     0.142 A 
ATOM     11  C   UNL     1      22.793  19.274  -7.747  1.00  0.00     0.047 A 
ATOM     12  C   UNL     1      24.945  20.201  -8.256  1.00  0.00     0.094 A 
ATOM     13  C   UNL     1      25.619  16.909 -12.861  1.00  0.00     0.052 C 
ATOM     14  C   UNL     1      22.990  16.725 -11.270  1.00  0.00     0.045 C 
ENDBRANCH   1   2
BRANCH   1  15
ATOM     15  C   UNL     1      22.462  21.749  -6.294  1.00  0.00     0.245 C 
BRANCH  15  16
ATOM     16  C   UNL     1      22.800  23.009  -5.480  1.00  0.00     0.126 C 
BRANCH  16  17
ATOM     17  N   UNL     1      22.548  24.274  -6.194  1.00  0.00    -0.295 NA
ATOM     18  C   UNL     1      23.225  25.444  -5.609  1.00  0.00     0.090 C 
ATOM     19  C   UNL     1      22.930  24.167  -7.617  1.00  0.00     0.120 C 
ATOM     20  C   UNL     1      24.758  25.375  -5.646  1.00  0.00     0.051 C 
ATOM     21  C   UNL     1      24.418  24.257  -7.888  1.00  0.00    -0.031 A 
ATOM     22  C   UNL     1      25.285  24.877  -6.969  1.00  0.00    -0.042 A 
ATOM     23  C   UNL     1      24.933  23.779  -9.102  1.00  0.00     0.005 A 
ATOM     24  C   UNL     1      26.652  24.978  -7.262  1.00  0.00     0.004 A 
ATOM     25  C   UNL     1      26.293  23.891  -9.388  1.00  0.00     0.000 A 
ATOM     26  C   UNL     1      27.152  24.490  -8.468  1.00  0.00     0.000 A 
ENDBRANCH  16  17
ENDBRANCH  15  16
ENDBRANCH   1  15
TORSDOF 4
ENDMDL
