MODEL 1
REMARK VINA RESULT:      -8.9      0.000      0.000
REMARK SMILES O=C(Nc1ccccc1Cl)c1cc(C2CCCN(C(=O)CCCc3ccccc3)C2)on1
REMARK SMILES IDX 14 1 15 2 16 3 17 4 18 5 30 6 13 7 11 8 12 9 32 10 31 11
REMARK SMILES IDX 2 12 1 13 3 14 4 16 5 17 9 18 6 19 8 20 7 21 10 22 19 23
REMARK SMILES IDX 20 24 21 25 22 26 23 27 24 28 25 29 29 30 26 31 28 32 27 33
REMARK H PARENT 3 15
ROOT
ATOM      1  C   UNL     1      25.527  21.575  -7.549  1.00  0.00     0.078 C 
ATOM      2  C   UNL     1      26.400  20.628  -6.697  1.00  0.00     0.015 C 
ATOM      3  C   UNL     1      25.877  20.481  -5.271  1.00  0.00     0.022 C 
ATOM      4  C   UNL     1      24.418  20.035  -5.273  1.00  0.00     0.119 C 
ATOM      5  N   UNL     1      23.583  20.805  -6.194  1.00  0.00    -0.342 N 
ATOM      6  C   UNL     1      24.204  21.951  -6.857  1.00  0.00     0.131 C 
ENDROOT
BRANCH   1   7
ATOM      7  C   UNL     1      26.288  22.799  -7.937  1.00  0.00     0.142 A 
ATOM      8  C   UNL     1      27.264  24.632  -8.729  1.00  0.00     0.171 A 
ATOM      9  C   UNL     1      26.288  23.638  -9.028  1.00  0.00     0.083 A 
ATOM     10  N   UNL     1      27.799  24.394  -7.519  1.00  0.00    -0.074 NA
ATOM     11  O   UNL     1      27.195  23.254  -7.036  1.00  0.00    -0.360 OA
BRANCH   8  12
ATOM     12  C   UNL     1      27.700  25.794  -9.530  1.00  0.00     0.277 C 
ATOM     13  O   UNL     1      27.225  26.912  -9.354  1.00  0.00    -0.267 OA
ATOM     14  N   UNL     1      28.675  25.493 -10.468  1.00  0.00    -0.319 N 
ATOM     15  H   UNL     1      29.046  24.551 -10.479  1.00  0.00     0.170 HD
BRANCH  14  16
ATOM     16  C   UNL     1      29.294  26.359 -11.402  1.00  0.00     0.060 A 
ATOM     17  C   UNL     1      28.923  27.694 -11.585  1.00  0.00     0.028 A 
ATOM     18  C   UNL     1      30.341  25.844 -12.193  1.00  0.00     0.064 A 
ATOM     19  C   UNL     1      29.582  28.493 -12.526  1.00  0.00     0.002 A 
ATOM     20  C   UNL     1      30.998  26.642 -13.133  1.00  0.00     0.023 A 
ATOM     21  C   UNL     1      30.617  27.970 -13.299  1.00  0.00     0.002 A 
ATOM     22  Cl  UNL     1      30.849  24.194 -12.025  1.00  0.00    -0.082 Cl
ENDBRANCH  14  16
ENDBRANCH   8  12
ENDBRANCH   1   7
BRANCH   5  23
ATOM     23  C   UNL     1      22.215  20.594  -6.349  1.00  0.00     0.222 C 
ATOM     24  O   UNL     1      21.378  21.285  -5.771  1.00  0.00    -0.275 OA
BRANCH  23  25
ATOM     25  C   UNL     1      21.806  19.470  -7.295  1.00  0.00     0.100 C 
BRANCH  25  26
ATOM     26  C   UNL     1      22.988  18.813  -8.010  1.00  0.00     0.015 C 
BRANCH  26  27
ATOM     27  C   UNL     1      22.577  18.147  -9.326  1.00  0.00     0.036 C 
BRANCH  27  28
ATOM     28  C   UNL     1      23.750  18.005 -10.265  1.00  0.00    -0.048 A 
ATOM     29  C   UNL     1      23.735  17.025 -11.267  1.00  0.00     0.004 A 
ATOM     30  C   UNL     1      24.855  18.861 -10.165  1.00  0.00     0.004 A 
ATOM     31  C   UNL     1      24.812  16.898 -12.147  1.00  0.00     0.000 A 
ATOM     32  C   UNL     1      25.930  18.732 -11.047  1.00  0.00     0.000 A 
ATOM     33  C   UNL     1      25.908  17.751 -12.036  1.00  0.00     0.000 A 
ENDBRANCH  27  28
ENDBRANCH  26  27
ENDBRANCH  25  26
ENDBRANCH  23  25
ENDBRANCH   5  23
TORSDOF 8
ENDMDL
MODEL 2
REMARK VINA RESULT:      -8.5      3.433      4.169
REMARK SMILES O=C(Nc1ccccc1Cl)c1cc(C2CCCN(C(=O)CCCc3ccccc3)C2)on1
REMARK SMILES IDX 14 1 15 2 16 3 17 4 18 5 30 6 13 7 11 8 12 9 32 10 31 11
REMARK SMILES IDX 2 12 1 13 3 14 4 16 5 17 9 18 6 19 8 20 7 21 10 22 19 23
REMARK SMILES IDX 20 24 21 25 22 26 23 27 24 28 25 29 29 30 26 31 28 32 27 33
REMARK H PARENT 3 15
ROOT
ATOM      1  C   UNL     1      25.010  20.085  -7.752  1.00  0.00     0.078 C 
ATOM      2  C   UNL     1      25.571  19.639  -6.385  1.00  0.00     0.015 C 
ATOM      3  C   UNL     1      24.470  19.391  -5.358  1.00  0.00     0.022 C 
ATOM      4  C   UNL     1      23.449  18.388  -5.890  1.00  0.00     0.119 C 
ATOM      5  N   UNL     1      23.011  18.685  -7.253  1.00  0.00    -0.342 N 
ATOM      6  C   UNL     1      23.481  19.936  -7.847  1.00  0.00     0.131 C 
ENDROOT
BRANCH   1   7
ATOM      7  C   UNL     1      25.426  21.484  -8.070  1.00  0.00     0.142 A 
ATOM      8  C   UNL     1      26.092  23.593  -8.283  1.00  0.00     0.171 A 
ATOM      9  C   UNL     1      25.811  22.575  -7.326  1.00  0.00     0.083 A 
ATOM     10  N   UNL     1      25.893  23.117  -9.524  1.00  0.00    -0.074 NA
ATOM     11  O   UNL     1      25.476  21.812  -9.386  1.00  0.00    -0.360 OA
BRANCH   8  12
ATOM     12  C   UNL     1      26.546  24.983  -8.073  1.00  0.00     0.277 C 
ATOM     13  O   UNL     1      27.455  25.470  -8.739  1.00  0.00    -0.267 OA
ATOM     14  N   UNL     1      25.853  25.654  -7.078  1.00  0.00    -0.319 N 
ATOM     15  H   UNL     1      25.073  25.178  -6.642  1.00  0.00     0.170 HD
BRANCH  14  16
ATOM     16  C   UNL     1      26.044  26.979  -6.614  1.00  0.00     0.060 A 
ATOM     17  C   UNL     1      25.621  28.114  -7.312  1.00  0.00     0.028 A 
ATOM     18  C   UNL     1      26.699  27.161  -5.380  1.00  0.00     0.064 A 
ATOM     19  C   UNL     1      25.843  29.393  -6.791  1.00  0.00     0.002 A 
ATOM     20  C   UNL     1      26.920  28.439  -4.859  1.00  0.00     0.023 A 
ATOM     21  C   UNL     1      26.490  29.558  -5.568  1.00  0.00     0.002 A 
ATOM     22  Cl  UNL     1      27.257  25.799  -4.463  1.00  0.00    -0.082 Cl
ENDBRANCH  14  16
ENDBRANCH   8  12
ENDBRANCH   1   7
BRANCH   5  23
ATOM     23  C   UNL     1      22.067  17.924  -7.939  1.00  0.00     0.222 C 
ATOM     24  O   UNL     1      21.233  17.235  -7.353  1.00  0.00    -0.275 OA
BRANCH  23  25
ATOM     25  C   UNL     1      22.107  18.006  -9.461  1.00  0.00     0.100 C 
BRANCH  25  26
ATOM     26  C   UNL     1      22.624  16.729 -10.127  1.00  0.00     0.015 C 
BRANCH  26  27
ATOM     27  C   UNL     1      23.034  16.957 -11.585  1.00  0.00     0.036 C 
BRANCH  27  28
ATOM     28  C   UNL     1      24.486  17.353 -11.697  1.00  0.00    -0.048 A 
ATOM     29  C   UNL     1      25.345  16.645 -12.548  1.00  0.00     0.004 A 
ATOM     30  C   UNL     1      24.989  18.444 -10.974  1.00  0.00     0.004 A 
ATOM     31  C   UNL     1      26.686  17.015 -12.665  1.00  0.00     0.000 A 
ATOM     32  C   UNL     1      26.330  18.811 -11.094  1.00  0.00     0.000 A 
ATOM     33  C   UNL     1      27.178  18.097 -11.938  1.00  0.00     0.000 A 
ENDBRANCH  27  28
ENDBRANCH  26  27
ENDBRANCH  25  26
ENDBRANCH  23  25
ENDBRANCH   5  23
TORSDOF 8
ENDMDL
MODEL 3
REMARK VINA RESULT:      -8.5      3.883      4.689
REMARK SMILES O=C(Nc1ccccc1Cl)c1cc(C2CCCN(C(=O)CCCc3ccccc3)C2)on1
REMARK SMILES IDX 14 1 15 2 16 3 17 4 18 5 30 6 13 7 11 8 12 9 32 10 31 11
REMARK SMILES IDX 2 12 1 13 3 14 4 16 5 17 9 18 6 19 8 20 7 21 10 22 19 23
REMARK SMILES IDX 20 24 21 25 22 26 23 27 24 28 25 29 29 30 26 31 28 32 27 33
REMARK H PARENT 3 15
ROOT
ATOM      1  C   UNL     1      24.701  19.581  -6.924  1.00  0.00     0.078 C 
ATOM      2  C   UNL     1      24.754  19.117  -5.453  1.00  0.00     0.015 C 
ATOM      3  C   UNL     1      23.365  18.997  -4.831  1.00  0.00     0.022 C 
ATOM      4  C   UNL     1      22.474  18.082  -5.668  1.00  0.00     0.119 C 
ATOM      5  N   UNL     1      22.521  18.387  -7.098  1.00  0.00    -0.342 N 
ATOM      6  C   UNL     1      23.274  19.574  -7.502  1.00  0.00     0.131 C 
ENDROOT
BRANCH   1   7
ATOM      7  C   UNL     1      25.329  20.927  -7.083  1.00  0.00     0.142 A 
ATOM      8  C   UNL     1      26.350  22.900  -7.070  1.00  0.00     0.171 A 
ATOM      9  C   UNL     1      26.016  21.782  -6.253  1.00  0.00     0.083 A 
ATOM     10  N   UNL     1      25.892  22.704  -8.319  1.00  0.00    -0.074 NA
ATOM     11  O   UNL     1      25.255  21.482  -8.319  1.00  0.00    -0.360 OA
BRANCH   8  12
ATOM     12  C   UNL     1      27.088  24.132  -6.724  1.00  0.00     0.277 C 
ATOM     13  O   UNL     1      28.097  24.471  -7.334  1.00  0.00    -0.267 OA
ATOM     14  N   UNL     1      26.529  24.842  -5.672  1.00  0.00    -0.319 N 
ATOM     15  H   UNL     1      25.654  24.508  -5.288  1.00  0.00     0.170 HD
BRANCH  14  16
ATOM     16  C   UNL     1      26.989  26.045  -5.080  1.00  0.00     0.060 A 
ATOM     17  C   UNL     1      27.924  26.089  -4.043  1.00  0.00     0.028 A 
ATOM     18  C   UNL     1      26.471  27.262  -5.564  1.00  0.00     0.064 A 
ATOM     19  C   UNL     1      28.335  27.316  -3.508  1.00  0.00     0.002 A 
ATOM     20  C   UNL     1      26.880  28.487  -5.030  1.00  0.00     0.023 A 
ATOM     21  C   UNL     1      27.815  28.512  -3.998  1.00  0.00     0.002 A 
ATOM     22  Cl  UNL     1      25.300  27.282  -6.844  1.00  0.00    -0.082 Cl
ENDBRANCH  14  16
ENDBRANCH   8  12
ENDBRANCH   1   7
BRANCH   5  23
ATOM     23  C   UNL     1      21.776  17.701  -8.053  1.00  0.00     0.222 C 
ATOM     24  O   UNL     1      20.856  16.945  -7.744  1.00  0.00    -0.275 OA
BRANCH  23  25
ATOM     25  C   UNL     1      22.145  17.954  -9.511  1.00  0.00     0.100 C 
BRANCH  25  26
ATOM     26  C   UNL     1      22.634  16.703 -10.242  1.00  0.00     0.015 C 
BRANCH  26  27
ATOM     27  C   UNL     1      23.137  17.012 -11.655  1.00  0.00     0.036 C 
BRANCH  27  28
ATOM     28  C   UNL     1      24.577  17.465 -11.643  1.00  0.00    -0.048 A 
ATOM     29  C   UNL     1      25.514  16.855 -12.488  1.00  0.00     0.004 A 
ATOM     30  C   UNL     1      24.991  18.513 -10.810  1.00  0.00     0.004 A 
ATOM     31  C   UNL     1      26.844  17.280 -12.492  1.00  0.00     0.000 A 
ATOM     32  C   UNL     1      26.322  18.935 -10.815  1.00  0.00     0.000 A 
ATOM     33  C   UNL     1      27.247  18.318 -11.655  1.00  0.00     0.000 A 
ENDBRANCH  27  28
ENDBRANCH  26  27
ENDBRANCH  25  26
ENDBRANCH  23  25
ENDBRANCH   5  23
TORSDOF 8
ENDMDL
