MODEL 1
REMARK VINA RESULT:      -6.7      0.000      0.000
REMARK SMILES O=c1cc(COc2cc(Br)cc(Br)c2)[nH][nH]1
REMARK SMILES IDX 5 1 4 2 1 3 2 4 3 5 16 6 15 7 6 10 7 11 8 12 14 13 9 14
REMARK SMILES IDX 12 15 11 16 10 17 13 18
REMARK H PARENT 16 8 15 9
ROOT
ATOM      1  C   UNL     1      22.126  17.381  -9.553  1.00  0.00     0.285 C 
ENDROOT
BRANCH   1   2
ATOM      2  C   UNL     1      23.053  17.218 -10.719  1.00  0.00     0.074 C 
ATOM      3  O   UNL     1      25.831  17.558 -12.654  1.00  0.00    -0.268 OA
ATOM      4  C   UNL     1      24.718  17.365 -12.202  1.00  0.00     0.264 C 
ATOM      5  C   UNL     1      24.260  17.782 -10.862  1.00  0.00     0.099 C 
ATOM      6  N   UNL     1      23.659  16.703 -12.801  1.00  0.00    -0.266 N 
ATOM      7  N   UNL     1      22.683  16.461 -11.829  1.00  0.00    -0.299 N 
ATOM      8  H   UNL     1      23.857  16.005 -13.511  1.00  0.00     0.191 HD
ATOM      9  H   UNL     1      21.725  16.682 -12.121  1.00  0.00     0.188 HD
ENDBRANCH   1   2
BRANCH   1  10
ATOM     10  O   UNL     1      22.393  18.653  -8.955  1.00  0.00    -0.487 OA
BRANCH  10  11
ATOM     11  C   UNL     1      22.924  18.655  -7.694  1.00  0.00     0.122 A 
ATOM     12  C   UNL     1      22.411  17.978  -6.587  1.00  0.00     0.062 A 
ATOM     13  C   UNL     1      24.084  19.421  -7.554  1.00  0.00     0.062 A 
ATOM     14  C   UNL     1      23.063  18.074  -5.354  1.00  0.00     0.022 A 
ATOM     15  C   UNL     1      24.725  19.509  -6.320  1.00  0.00     0.022 A 
ATOM     16  C   UNL     1      24.220  18.837  -5.211  1.00  0.00     0.031 A 
ATOM     17  Br  UNL     1      22.362  17.155  -3.855  1.00  0.00    -0.051 Br
ATOM     18  Br  UNL     1      26.294  20.550  -6.149  1.00  0.00    -0.051 Br
ENDBRANCH  10  11
ENDBRANCH   1  10
TORSDOF 3
ENDMDL
MODEL 2
REMARK VINA RESULT:      -6.6      0.167      2.344
REMARK SMILES O=c1cc(COc2cc(Br)cc(Br)c2)[nH][nH]1
REMARK SMILES IDX 5 1 4 2 1 3 2 4 3 5 16 6 15 7 6 10 7 11 8 12 14 13 9 14
REMARK SMILES IDX 12 15 11 16 10 17 13 18
REMARK H PARENT 16 8 15 9
ROOT
ATOM      1  C   UNL     1      22.140  17.279  -9.551  1.00  0.00     0.285 C 
ENDROOT
BRANCH   1   2
ATOM      2  C   UNL     1      23.046  17.140 -10.737  1.00  0.00     0.074 C 
ATOM      3  O   UNL     1      25.807  17.483 -12.696  1.00  0.00    -0.268 OA
ATOM      4  C   UNL     1      24.695  17.303 -12.237  1.00  0.00     0.264 C 
ATOM      5  C   UNL     1      24.268  17.675 -10.874  1.00  0.00     0.099 C 
ATOM      6  N   UNL     1      23.609  16.698 -12.848  1.00  0.00    -0.266 N 
ATOM      7  N   UNL     1      22.640  16.443 -11.873  1.00  0.00    -0.299 N 
ATOM      8  H   UNL     1      23.777  16.027 -13.590  1.00  0.00     0.191 HD
ATOM      9  H   UNL     1      21.685  16.705 -12.141  1.00  0.00     0.188 HD
ENDBRANCH   1   2
BRANCH   1  10
ATOM     10  O   UNL     1      22.279  18.612  -9.049  1.00  0.00    -0.487 OA
BRANCH  10  11
ATOM     11  C   UNL     1      22.963  18.771  -7.875  1.00  0.00     0.122 A 
ATOM     12  C   UNL     1      24.151  19.483  -7.707  1.00  0.00     0.062 A 
ATOM     13  C   UNL     1      22.378  18.142  -6.773  1.00  0.00     0.062 A 
ATOM     14  C   UNL     1      24.741  19.559  -6.441  1.00  0.00     0.022 A 
ATOM     15  C   UNL     1      22.975  18.226  -5.516  1.00  0.00     0.022 A 
ATOM     16  C   UNL     1      24.159  18.934  -5.340  1.00  0.00     0.031 A 
ATOM     17  Br  UNL     1      26.353  20.526  -6.220  1.00  0.00    -0.051 Br
ATOM     18  Br  UNL     1      22.168  17.369  -4.036  1.00  0.00    -0.051 Br
ENDBRANCH  10  11
ENDBRANCH   1  10
TORSDOF 3
ENDMDL
MODEL 3
REMARK VINA RESULT:      -6.2      2.734      3.266
REMARK SMILES O=c1cc(COc2cc(Br)cc(Br)c2)[nH][nH]1
REMARK SMILES IDX 5 1 4 2 1 3 2 4 3 5 16 6 15 7 6 10 7 11 8 12 14 13 9 14
REMARK SMILES IDX 12 15 11 16 10 17 13 18
REMARK H PARENT 16 8 15 9
ROOT
ATOM      1  C   UNL     1      26.034  19.503 -10.578  1.00  0.00     0.285 C 
ENDROOT
BRANCH   1   2
ATOM      2  C   UNL     1      25.835  18.281 -11.421  1.00  0.00     0.074 C 
ATOM      3  O   UNL     1      26.554  15.733 -13.559  1.00  0.00    -0.268 OA
ATOM      4  C   UNL     1      26.035  16.589 -12.868  1.00  0.00     0.264 C 
ATOM      5  C   UNL     1      26.751  17.699 -12.210  1.00  0.00     0.099 C 
ATOM      6  N   UNL     1      24.700  16.706 -12.517  1.00  0.00    -0.266 N 
ATOM      7  N   UNL     1      24.595  17.649 -11.490  1.00  0.00    -0.299 N 
ATOM      8  H   UNL     1      24.122  15.872 -12.505  1.00  0.00     0.191 HD
ATOM      9  H   UNL     1      23.842  18.334 -11.613  1.00  0.00     0.188 HD
ENDBRANCH   1   2
BRANCH   1  10
ATOM     10  O   UNL     1      25.132  19.421  -9.470  1.00  0.00    -0.487 OA
BRANCH  10  11
ATOM     11  C   UNL     1      25.401  20.206  -8.382  1.00  0.00     0.122 A 
ATOM     12  C   UNL     1      25.494  19.772  -7.059  1.00  0.00     0.062 A 
ATOM     13  C   UNL     1      25.591  21.559  -8.676  1.00  0.00     0.062 A 
ATOM     14  C   UNL     1      25.775  20.694  -6.046  1.00  0.00     0.022 A 
ATOM     15  C   UNL     1      25.872  22.468  -7.657  1.00  0.00     0.022 A 
ATOM     16  C   UNL     1      25.967  22.043  -6.336  1.00  0.00     0.031 A 
ATOM     17  Br  UNL     1      25.899  20.099  -4.253  1.00  0.00    -0.051 Br
ATOM     18  Br  UNL     1      26.127  24.294  -8.074  1.00  0.00    -0.051 Br
ENDBRANCH  10  11
ENDBRANCH   1  10
TORSDOF 3
ENDMDL
