MODEL 1
REMARK VINA RESULT:      -7.0      0.000      0.000
REMARK SMILES CNC(=O)c1cccc2c(Nc3ccc(NP(=O)(OC)OC)cc3)c3ccccc3nc12
REMARK SMILES IDX 12 1 13 2 14 3 15 4 23 5 24 6 11 7 10 9 5 10 6 11 32 12 7 13
REMARK SMILES IDX 31 14 9 15 8 16 30 17 29 18 25 19 28 20 26 21 27 22 3 23
REMARK SMILES IDX 2 24 4 25 1 26 16 28 17 30 18 31 19 32 20 33 21 34 22 35
REMARK H PARENT 11 8 2 27 16 29
ROOT
ATOM      1  C   UNL     1      25.991  21.913  -7.597  1.00  0.00     0.039 A 
ATOM      2  C   UNL     1      26.212  22.610  -6.408  1.00  0.00     0.028 A 
ATOM      3  C   UNL     1      26.122  24.008  -6.368  1.00  0.00     0.028 A 
ATOM      4  C   UNL     1      25.801  24.744  -7.514  1.00  0.00     0.044 A 
ATOM      5  C   UNL     1      25.509  24.041  -8.684  1.00  0.00     0.028 A 
ATOM      6  C   UNL     1      25.602  22.643  -8.725  1.00  0.00     0.028 A 
ENDROOT
BRANCH   1   7
ATOM      7  N   UNL     1      26.015  20.498  -7.673  1.00  0.00    -0.354 N 
ATOM      8  H   UNL     1      26.322  20.103  -6.786  1.00  0.00     0.167 HD
BRANCH   7   9
ATOM      9  C   UNL     1      24.989  19.687  -8.252  1.00  0.00     0.057 A 
ATOM     10  C   UNL     1      24.191  17.892 -11.400  1.00  0.00     0.066 A 
ATOM     11  C   UNL     1      25.343  18.143 -12.171  1.00  0.00     0.016 A 
ATOM     12  C   UNL     1      24.065  18.392 -10.088  1.00  0.00     0.086 A 
ATOM     13  C   UNL     1      26.381  18.901 -11.658  1.00  0.00     0.002 A 
ATOM     14  N   UNL     1      22.970  18.130  -9.334  1.00  0.00    -0.247 NA
ATOM     15  C   UNL     1      25.123  19.175  -9.572  1.00  0.00     0.025 A 
ATOM     16  C   UNL     1      26.269  19.413 -10.371  1.00  0.00     0.012 A 
ATOM     17  C   UNL     1      22.857  18.594  -8.080  1.00  0.00     0.073 A 
ATOM     18  C   UNL     1      21.715  18.277  -7.355  1.00  0.00     0.029 A 
ATOM     19  C   UNL     1      23.842  19.386  -7.477  1.00  0.00     0.024 A 
ATOM     20  C   UNL     1      21.520  18.726  -6.047  1.00  0.00     0.002 A 
ATOM     21  C   UNL     1      23.640  19.844  -6.152  1.00  0.00     0.012 A 
ATOM     22  C   UNL     1      22.488  19.513  -5.442  1.00  0.00     0.001 A 
BRANCH  10  23
ATOM     23  C   UNL     1      23.132  17.064 -12.067  1.00  0.00     0.253 C 
ATOM     24  N   UNL     1      22.578  17.552 -13.227  1.00  0.00    -0.355 N 
ATOM     25  O   UNL     1      22.796  15.987 -11.582  1.00  0.00    -0.269 OA
ATOM     26  C   UNL     1      21.474  16.901 -13.882  1.00  0.00     0.143 C 
ATOM     27  H   UNL     1      22.798  18.518 -13.469  1.00  0.00     0.163 HD
ENDBRANCH  10  23
ENDBRANCH   7   9
ENDBRANCH   1   7
BRANCH   4  28
ATOM     28  N   UNL     1      25.683  26.140  -7.423  1.00  0.00    -0.293 N 
ATOM     29  H   UNL     1      26.210  26.628  -8.132  1.00  0.00     0.172 HD
BRANCH  28  30
ATOM     30  P   UNL     1      24.417  26.960  -6.796  1.00  0.00     0.432 P 
ATOM     31  O   UNL     1      24.057  28.317  -7.332  1.00  0.00    -0.235 OA
BRANCH  30  32
ATOM     32  O   UNL     1      23.162  25.944  -6.913  1.00  0.00    -0.296 OA
ATOM     33  C   UNL     1      22.231  26.210  -7.941  1.00  0.00     0.208 C 
ENDBRANCH  30  32
BRANCH  30  34
ATOM     34  O   UNL     1      24.609  27.016  -5.192  1.00  0.00    -0.296 OA
ATOM     35  C   UNL     1      23.753  26.262  -4.363  1.00  0.00     0.208 C 
ENDBRANCH  30  34
ENDBRANCH  28  30
ENDBRANCH   4  28
TORSDOF 7
ENDMDL
MODEL 2
REMARK VINA RESULT:      -6.9      0.869      1.458
REMARK SMILES CNC(=O)c1cccc2c(Nc3ccc(NP(=O)(OC)OC)cc3)c3ccccc3nc12
REMARK SMILES IDX 12 1 13 2 14 3 15 4 23 5 24 6 11 7 10 9 5 10 6 11 32 12 7 13
REMARK SMILES IDX 31 14 9 15 8 16 30 17 29 18 25 19 28 20 26 21 27 22 3 23
REMARK SMILES IDX 2 24 4 25 1 26 16 28 17 30 18 31 19 32 20 33 21 34 22 35
REMARK H PARENT 11 8 2 27 16 29
ROOT
ATOM      1  C   UNL     1      26.035  21.910  -7.618  1.00  0.00     0.039 A 
ATOM      2  C   UNL     1      26.510  22.635  -6.523  1.00  0.00     0.028 A 
ATOM      3  C   UNL     1      26.444  24.034  -6.507  1.00  0.00     0.028 A 
ATOM      4  C   UNL     1      25.894  24.745  -7.580  1.00  0.00     0.044 A 
ATOM      5  C   UNL     1      25.354  24.015  -8.640  1.00  0.00     0.028 A 
ATOM      6  C   UNL     1      25.422  22.615  -8.658  1.00  0.00     0.028 A 
ENDROOT
BRANCH   1   7
ATOM      7  N   UNL     1      26.029  20.493  -7.655  1.00  0.00    -0.354 N 
ATOM      8  H   UNL     1      26.307  20.116  -6.752  1.00  0.00     0.167 HD
BRANCH   7   9
ATOM      9  C   UNL     1      24.997  19.689  -8.236  1.00  0.00     0.057 A 
ATOM     10  C   UNL     1      24.199  17.885 -11.378  1.00  0.00     0.066 A 
ATOM     11  C   UNL     1      25.357  18.120 -12.144  1.00  0.00     0.016 A 
ATOM     12  C   UNL     1      24.071  18.394 -10.070  1.00  0.00     0.086 A 
ATOM     13  C   UNL     1      26.400  18.870 -11.629  1.00  0.00     0.002 A 
ATOM     14  N   UNL     1      22.968  18.147  -9.320  1.00  0.00    -0.247 NA
ATOM     15  C   UNL     1      25.134  19.169  -9.552  1.00  0.00     0.025 A 
ATOM     16  C   UNL     1      26.286  19.390 -10.345  1.00  0.00     0.012 A 
ATOM     17  C   UNL     1      22.854  18.619  -8.069  1.00  0.00     0.073 A 
ATOM     18  C   UNL     1      21.704  18.318  -7.349  1.00  0.00     0.029 A 
ATOM     19  C   UNL     1      23.843  19.404  -7.465  1.00  0.00     0.024 A 
ATOM     20  C   UNL     1      21.507  18.776  -6.044  1.00  0.00     0.002 A 
ATOM     21  C   UNL     1      23.639  19.871  -6.144  1.00  0.00     0.012 A 
ATOM     22  C   UNL     1      22.480  19.557  -5.438  1.00  0.00     0.001 A 
BRANCH  10  23
ATOM     23  C   UNL     1      23.135  17.064 -12.046  1.00  0.00     0.253 C 
ATOM     24  N   UNL     1      22.587  17.554 -13.208  1.00  0.00    -0.355 N 
ATOM     25  O   UNL     1      22.790  15.991 -11.560  1.00  0.00    -0.269 OA
ATOM     26  C   UNL     1      21.479  16.911 -13.865  1.00  0.00     0.143 C 
ATOM     27  H   UNL     1      22.815  18.518 -13.450  1.00  0.00     0.163 HD
ENDBRANCH  10  23
ENDBRANCH   7   9
ENDBRANCH   1   7
BRANCH   4  28
ATOM     28  N   UNL     1      25.812  26.144  -7.507  1.00  0.00    -0.293 N 
ATOM     29  H   UNL     1      26.229  26.606  -8.301  1.00  0.00     0.172 HD
BRANCH  28  30
ATOM     30  P   UNL     1      24.670  27.001  -6.713  1.00  0.00     0.432 P 
ATOM     31  O   UNL     1      24.412  26.747  -5.255  1.00  0.00    -0.235 OA
BRANCH  30  32
ATOM     32  O   UNL     1      25.060  28.553  -6.966  1.00  0.00    -0.296 OA
ATOM     33  C   UNL     1      26.225  29.021  -6.319  1.00  0.00     0.208 C 
ENDBRANCH  30  32
BRANCH  30  34
ATOM     34  O   UNL     1      23.296  26.897  -7.559  1.00  0.00    -0.296 OA
ATOM     35  C   UNL     1      22.530  28.059  -7.788  1.00  0.00     0.208 C 
ENDBRANCH  30  34
ENDBRANCH  28  30
ENDBRANCH   4  28
TORSDOF 7
ENDMDL
MODEL 3
REMARK VINA RESULT:      -6.9      0.759      1.273
REMARK SMILES CNC(=O)c1cccc2c(Nc3ccc(NP(=O)(OC)OC)cc3)c3ccccc3nc12
REMARK SMILES IDX 12 1 13 2 14 3 15 4 23 5 24 6 11 7 10 9 5 10 6 11 32 12 7 13
REMARK SMILES IDX 31 14 9 15 8 16 30 17 29 18 25 19 28 20 26 21 27 22 3 23
REMARK SMILES IDX 2 24 4 25 1 26 16 28 17 30 18 31 19 32 20 33 21 34 22 35
REMARK H PARENT 11 8 2 27 16 29
ROOT
ATOM      1  C   UNL     1      26.049  21.896  -7.633  1.00  0.00     0.039 A 
ATOM      2  C   UNL     1      26.422  22.601  -6.487  1.00  0.00     0.028 A 
ATOM      3  C   UNL     1      26.346  23.999  -6.449  1.00  0.00     0.028 A 
ATOM      4  C   UNL     1      25.888  24.729  -7.552  1.00  0.00     0.044 A 
ATOM      5  C   UNL     1      25.448  24.018  -8.669  1.00  0.00     0.028 A 
ATOM      6  C   UNL     1      25.526  22.620  -8.709  1.00  0.00     0.028 A 
ENDROOT
BRANCH   1   7
ATOM      7  N   UNL     1      26.054  20.479  -7.699  1.00  0.00    -0.354 N 
ATOM      8  H   UNL     1      26.361  20.088  -6.811  1.00  0.00     0.167 HD
BRANCH   7   9
ATOM      9  C   UNL     1      25.013  19.678  -8.265  1.00  0.00     0.057 A 
ATOM     10  C   UNL     1      24.175  17.866 -11.393  1.00  0.00     0.066 A 
ATOM     11  C   UNL     1      25.326  18.094 -12.172  1.00  0.00     0.016 A 
ATOM     12  C   UNL     1      24.063  18.380 -10.085  1.00  0.00     0.086 A 
ATOM     13  C   UNL     1      26.377  18.842 -11.671  1.00  0.00     0.002 A 
ATOM     14  N   UNL     1      22.968  18.139  -9.323  1.00  0.00    -0.247 NA
ATOM     15  C   UNL     1      25.134  19.153  -9.581  1.00  0.00     0.025 A 
ATOM     16  C   UNL     1      26.279  19.367 -10.388  1.00  0.00     0.012 A 
ATOM     17  C   UNL     1      22.868  18.616  -8.073  1.00  0.00     0.073 A 
ATOM     18  C   UNL     1      21.725  18.322  -7.339  1.00  0.00     0.029 A 
ATOM     19  C   UNL     1      23.866  19.400  -7.482  1.00  0.00     0.024 A 
ATOM     20  C   UNL     1      21.543  18.785  -6.034  1.00  0.00     0.002 A 
ATOM     21  C   UNL     1      23.678  19.872  -6.160  1.00  0.00     0.012 A 
ATOM     22  C   UNL     1      22.525  19.564  -5.441  1.00  0.00     0.001 A 
BRANCH  10  23
ATOM     23  C   UNL     1      23.101  17.047 -12.047  1.00  0.00     0.253 C 
ATOM     24  N   UNL     1      22.564  17.521 -13.221  1.00  0.00    -0.355 N 
ATOM     25  O   UNL     1      22.740  15.989 -11.540  1.00  0.00    -0.269 OA
ATOM     26  C   UNL     1      21.448  16.881 -13.867  1.00  0.00     0.143 C 
ATOM     27  H   UNL     1      22.806  18.477 -13.481  1.00  0.00     0.163 HD
ENDBRANCH  10  23
ENDBRANCH   7   9
ENDBRANCH   1   7
BRANCH   4  28
ATOM     28  N   UNL     1      25.792  26.126  -7.459  1.00  0.00    -0.293 N 
ATOM     29  H   UNL     1      26.411  26.607  -8.094  1.00  0.00     0.172 HD
BRANCH  28  30
ATOM     30  P   UNL     1      24.479  26.971  -6.979  1.00  0.00     0.432 P 
ATOM     31  O   UNL     1      23.101  26.409  -7.189  1.00  0.00    -0.235 OA
BRANCH  30  32
ATOM     32  O   UNL     1      24.737  27.290  -5.412  1.00  0.00    -0.296 OA
ATOM     33  C   UNL     1      24.048  26.477  -4.484  1.00  0.00     0.208 C 
ENDBRANCH  30  32
BRANCH  30  34
ATOM     34  O   UNL     1      24.589  28.456  -7.608  1.00  0.00    -0.296 OA
ATOM     35  C   UNL     1      24.441  29.579  -6.769  1.00  0.00     0.208 C 
ENDBRANCH  30  34
ENDBRANCH  28  30
ENDBRANCH   4  28
TORSDOF 7
ENDMDL
