MODEL 1
REMARK VINA RESULT:      -7.3      0.000      0.000
REMARK SMILES CN1CC=C(c2c(O)cc(O)c3c(O)cc(-c4ccccc4)nc23)CC1
REMARK SMILES IDX 6 1 7 2 9 3 10 4 12 5 13 6 15 7 16 8 23 9 24 10 5 11 2 12
REMARK SMILES IDX 3 13 26 14 4 15 25 16 1 17 8 18 11 20 17 22 18 23 22 24
REMARK SMILES IDX 19 25 21 26 20 27 14 28
REMARK H PARENT 8 19 11 21 14 29
ROOT
ATOM      1  C   UNL     1      23.424  21.630  -5.764  1.00  0.00     0.046 A 
ATOM      2  C   UNL     1      23.010  22.127  -4.513  1.00  0.00     0.128 A 
ATOM      3  C   UNL     1      22.124  21.416  -3.717  1.00  0.00     0.093 A 
ATOM      4  C   UNL     1      21.650  20.195  -4.181  1.00  0.00     0.132 A 
ATOM      5  C   UNL     1      22.044  19.664  -5.436  1.00  0.00     0.085 A 
ATOM      6  C   UNL     1      21.600  18.428  -5.954  1.00  0.00     0.130 A 
ATOM      7  C   UNL     1      22.020  17.956  -7.189  1.00  0.00     0.076 A 
ATOM      8  C   UNL     1      22.894  18.732  -7.926  1.00  0.00     0.075 A 
ATOM      9  N   UNL     1      23.339  19.918  -7.445  1.00  0.00    -0.247 NA
ATOM     10  C   UNL     1      22.940  20.393  -6.240  1.00  0.00     0.090 A 
ENDROOT
BRANCH   1  11
ATOM     11  C   UNL     1      24.375  22.418  -6.582  1.00  0.00    -0.036 C 
ATOM     12  N   UNL     1      26.257  23.634  -8.345  1.00  0.00    -0.302 NA
ATOM     13  C   UNL     1      24.874  24.139  -8.329  1.00  0.00     0.112 C 
ATOM     14  C   UNL     1      26.705  23.300  -6.986  1.00  0.00     0.089 C 
ATOM     15  C   UNL     1      23.943  23.331  -7.471  1.00  0.00    -0.007 C 
ATOM     16  C   UNL     1      25.847  22.176  -6.379  1.00  0.00     0.051 C 
ATOM     17  C   UNL     1      27.151  24.601  -8.975  1.00  0.00     0.105 C 
ENDBRANCH   1  11
BRANCH   2  18
ATOM     18  O   UNL     1      23.488  23.335  -4.074  1.00  0.00    -0.507 OA
ATOM     19  H   UNL     1      24.454  23.301  -3.996  1.00  0.00     0.293 HD
ENDBRANCH   2  18
BRANCH   4  20
ATOM     20  O   UNL     1      20.772  19.474  -3.402  1.00  0.00    -0.507 OA
ATOM     21  H   UNL     1      20.540  20.002  -2.617  1.00  0.00     0.293 HD
ENDBRANCH   4  20
BRANCH   8  22
ATOM     22  C   UNL     1      23.415  18.351  -9.261  1.00  0.00     0.000 A 
ATOM     23  C   UNL     1      22.691  17.465 -10.086  1.00  0.00     0.010 A 
ATOM     24  C   UNL     1      24.638  18.830  -9.765  1.00  0.00     0.010 A 
ATOM     25  C   UNL     1      23.156  17.088 -11.350  1.00  0.00     0.001 A 
ATOM     26  C   UNL     1      25.107  18.456 -11.031  1.00  0.00     0.001 A 
ATOM     27  C   UNL     1      24.364  17.588 -11.824  1.00  0.00     0.000 A 
ENDBRANCH   8  22
BRANCH   6  28
ATOM     28  O   UNL     1      20.730  17.617  -5.268  1.00  0.00    -0.507 OA
ATOM     29  H   UNL     1      19.844  18.028  -5.345  1.00  0.00     0.293 HD
ENDBRANCH   6  28
TORSDOF 5
ENDMDL
MODEL 2
REMARK VINA RESULT:      -7.3      0.204      1.361
REMARK SMILES CN1CC=C(c2c(O)cc(O)c3c(O)cc(-c4ccccc4)nc23)CC1
REMARK SMILES IDX 6 1 7 2 9 3 10 4 12 5 13 6 15 7 16 8 23 9 24 10 5 11 2 12
REMARK SMILES IDX 3 13 26 14 4 15 25 16 1 17 8 18 11 20 17 22 18 23 22 24
REMARK SMILES IDX 19 25 21 26 20 27 14 28
REMARK H PARENT 8 19 11 21 14 29
ROOT
ATOM      1  C   UNL     1      23.439  21.631  -5.698  1.00  0.00     0.046 A 
ATOM      2  C   UNL     1      23.013  22.120  -4.449  1.00  0.00     0.128 A 
ATOM      3  C   UNL     1      22.109  21.410  -3.671  1.00  0.00     0.093 A 
ATOM      4  C   UNL     1      21.630  20.198  -4.152  1.00  0.00     0.132 A 
ATOM      5  C   UNL     1      22.036  19.674  -5.407  1.00  0.00     0.085 A 
ATOM      6  C   UNL     1      21.588  18.448  -5.942  1.00  0.00     0.130 A 
ATOM      7  C   UNL     1      22.020  17.983  -7.175  1.00  0.00     0.076 A 
ATOM      8  C   UNL     1      22.910  18.757  -7.893  1.00  0.00     0.075 A 
ATOM      9  N   UNL     1      23.360  19.935  -7.396  1.00  0.00    -0.247 NA
ATOM     10  C   UNL     1      22.950  20.403  -6.193  1.00  0.00     0.090 A 
ENDROOT
BRANCH   1  11
ATOM     11  C   UNL     1      24.407  22.417  -6.497  1.00  0.00    -0.036 C 
ATOM     12  N   UNL     1      26.181  24.208  -7.829  1.00  0.00    -0.302 NA
ATOM     13  C   UNL     1      26.747  23.048  -7.121  1.00  0.00     0.112 C 
ATOM     14  C   UNL     1      24.933  23.842  -8.513  1.00  0.00     0.089 C 
ATOM     15  C   UNL     1      25.734  22.259  -6.341  1.00  0.00    -0.007 C 
ATOM     16  C   UNL     1      23.860  23.391  -7.506  1.00  0.00     0.051 C 
ATOM     17  C   UNL     1      27.154  24.765  -8.764  1.00  0.00     0.105 C 
ENDBRANCH   1  11
BRANCH   2  18
ATOM     18  O   UNL     1      23.495  23.320  -3.992  1.00  0.00    -0.507 OA
ATOM     19  H   UNL     1      22.797  23.992  -4.022  1.00  0.00     0.293 HD
ENDBRANCH   2  18
BRANCH   4  20
ATOM     20  O   UNL     1      20.735  19.479  -3.391  1.00  0.00    -0.507 OA
ATOM     21  H   UNL     1      20.180  18.939  -3.983  1.00  0.00     0.293 HD
ENDBRANCH   4  20
BRANCH   8  22
ATOM     22  C   UNL     1      23.446  18.383  -9.225  1.00  0.00     0.000 A 
ATOM     23  C   UNL     1      24.675  18.906  -9.675  1.00  0.00     0.010 A 
ATOM     24  C   UNL     1      22.767  17.516 -10.102  1.00  0.00     0.010 A 
ATOM     25  C   UNL     1      25.206  18.571 -10.925  1.00  0.00     0.001 A 
ATOM     26  C   UNL     1      23.294  17.177 -11.354  1.00  0.00     0.001 A 
ATOM     27  C   UNL     1      24.516  17.703 -11.763  1.00  0.00     0.000 A 
ENDBRANCH   8  22
BRANCH   6  28
ATOM     28  O   UNL     1      20.701  17.639  -5.276  1.00  0.00    -0.507 OA
ATOM     29  H   UNL     1      20.022  17.369  -5.928  1.00  0.00     0.293 HD
ENDBRANCH   6  28
TORSDOF 5
ENDMDL
MODEL 3
REMARK VINA RESULT:      -7.1      0.645      1.158
REMARK SMILES CN1CC=C(c2c(O)cc(O)c3c(O)cc(-c4ccccc4)nc23)CC1
REMARK SMILES IDX 6 1 7 2 9 3 10 4 12 5 13 6 15 7 16 8 23 9 24 10 5 11 2 12
REMARK SMILES IDX 3 13 26 14 4 15 25 16 1 17 8 18 11 20 17 22 18 23 22 24
REMARK SMILES IDX 19 25 21 26 20 27 14 28
REMARK H PARENT 8 19 11 21 14 29
ROOT
ATOM      1  C   UNL     1      23.684  22.015  -5.989  1.00  0.00     0.046 A 
ATOM      2  C   UNL     1      23.158  22.524  -4.787  1.00  0.00     0.128 A 
ATOM      3  C   UNL     1      22.226  21.805  -4.051  1.00  0.00     0.093 A 
ATOM      4  C   UNL     1      21.820  20.565  -4.528  1.00  0.00     0.132 A 
ATOM      5  C   UNL     1      22.327  20.021  -5.737  1.00  0.00     0.085 A 
ATOM      6  C   UNL     1      21.956  18.767  -6.265  1.00  0.00     0.130 A 
ATOM      7  C   UNL     1      22.487  18.283  -7.451  1.00  0.00     0.076 A 
ATOM      8  C   UNL     1      23.399  19.067  -8.130  1.00  0.00     0.075 A 
ATOM      9  N   UNL     1      23.776  20.273  -7.638  1.00  0.00    -0.247 NA
ATOM     10  C   UNL     1      23.269  20.759  -6.479  1.00  0.00     0.090 A 
ENDROOT
BRANCH   1  11
ATOM     11  C   UNL     1      24.680  22.812  -6.743  1.00  0.00    -0.036 C 
ATOM     12  N   UNL     1      26.463  24.630  -8.025  1.00  0.00    -0.302 NA
ATOM     13  C   UNL     1      27.024  23.578  -7.162  1.00  0.00     0.112 C 
ATOM     14  C   UNL     1      25.331  24.113  -8.806  1.00  0.00     0.089 C 
ATOM     15  C   UNL     1      25.988  22.774  -6.431  1.00  0.00    -0.007 C 
ATOM     16  C   UNL     1      24.184  23.657  -7.886  1.00  0.00     0.051 C 
ATOM     17  C   UNL     1      27.495  25.188  -8.893  1.00  0.00     0.105 C 
ENDBRANCH   1  11
BRANCH   2  18
ATOM     18  O   UNL     1      23.570  23.751  -4.333  1.00  0.00    -0.507 OA
ATOM     19  H   UNL     1      24.384  23.657  -3.815  1.00  0.00     0.293 HD
ENDBRANCH   2  18
BRANCH   4  20
ATOM     20  O   UNL     1      20.898  19.836  -3.809  1.00  0.00    -0.507 OA
ATOM     21  H   UNL     1      20.644  19.051  -4.325  1.00  0.00     0.293 HD
ENDBRANCH   4  20
BRANCH   8  22
ATOM     22  C   UNL     1      24.036  18.676  -9.411  1.00  0.00     0.000 A 
ATOM     23  C   UNL     1      23.396  17.771 -10.282  1.00  0.00     0.010 A 
ATOM     24  C   UNL     1      25.293  19.164  -9.816  1.00  0.00     0.010 A 
ATOM     25  C   UNL     1      23.971  17.384 -11.497  1.00  0.00     0.001 A 
ATOM     26  C   UNL     1      25.873  18.780 -11.031  1.00  0.00     0.001 A 
ATOM     27  C   UNL     1      25.209  17.892 -11.873  1.00  0.00     0.000 A 
ENDBRANCH   8  22
BRANCH   6  28
ATOM     28  O   UNL     1      21.052  17.946  -5.636  1.00  0.00    -0.507 OA
ATOM     29  H   UNL     1      20.585  18.498  -4.975  1.00  0.00     0.293 HD
ENDBRANCH   6  28
TORSDOF 5
ENDMDL
