MODEL 1
REMARK VINA RESULT:      -8.4      0.000      0.000
REMARK SMILES COc1cc(C2Oc3cc(-c4cc(=O)c5c(O)cc(O)cc5o4)ccc3OC2c2cc(CN)on2)ccc1O
REMARK SMILES IDX 6 1 7 2 8 3 9 4 10 5 24 6 25 7 26 8 27 9 28 10 5 11 3 12
REMARK SMILES IDX 4 13 38 14 37 15 36 16 2 17 1 18 39 19 29 21 30 22 35 23
REMARK SMILES IDX 31 24 34 25 32 26 33 27 11 30 12 31 23 32 13 33 22 34 14 35
REMARK SMILES IDX 15 36 21 37 16 38 19 39 18 40 17 41 20 43
REMARK H PARENT 39 20 33 28 33 29 17 42 20 44
ROOT
ATOM      1  C   UNL     1      26.847  24.954  -7.151  1.00  0.00     0.251 C 
ATOM      2  O   UNL     1      26.072  24.115  -8.032  1.00  0.00    -0.477 OA
ATOM      3  C   UNL     1      25.712  22.940  -7.437  1.00  0.00     0.163 A 
ATOM      4  C   UNL     1      25.303  21.911  -8.288  1.00  0.00     0.062 A 
ATOM      5  C   UNL     1      24.911  20.674  -7.764  1.00  0.00     0.021 A 
ATOM      6  C   UNL     1      24.939  20.484  -6.375  1.00  0.00     0.016 A 
ATOM      7  C   UNL     1      25.348  21.519  -5.525  1.00  0.00     0.051 A 
ATOM      8  C   UNL     1      25.720  22.750  -6.056  1.00  0.00     0.162 A 
ATOM      9  O   UNL     1      26.085  23.714  -5.159  1.00  0.00    -0.476 OA
ATOM     10  C   UNL     1      26.198  25.028  -5.750  1.00  0.00     0.271 C 
ENDROOT
BRANCH   1  11
ATOM     11  C   UNL     1      26.939  26.313  -7.834  1.00  0.00     0.000 A 
ATOM     12  C   UNL     1      27.743  27.675  -9.687  1.00  0.00     0.160 A 
ATOM     13  C   UNL     1      27.643  26.441  -9.043  1.00  0.00     0.058 A 
ATOM     14  C   UNL     1      27.145  28.801  -9.090  1.00  0.00     0.157 A 
ATOM     15  C   UNL     1      26.444  28.693  -7.895  1.00  0.00     0.050 A 
ATOM     16  C   UNL     1      26.335  27.453  -7.271  1.00  0.00     0.012 A 
BRANCH  12  17
ATOM     17  O   UNL     1      28.412  27.888 -10.865  1.00  0.00    -0.493 OA
ATOM     18  C   UNL     1      29.620  27.170 -11.048  1.00  0.00     0.278 C 
ENDBRANCH  12  17
BRANCH  14  19
ATOM     19  O   UNL     1      27.251  30.015  -9.707  1.00  0.00    -0.504 OA
ATOM     20  H   UNL     1      27.989  30.510  -9.319  1.00  0.00     0.293 HD
ENDBRANCH  14  19
ENDBRANCH   1  11
BRANCH  10  21
ATOM     21  C   UNL     1      26.959  25.930  -4.817  1.00  0.00     0.129 A 
ATOM     22  C   UNL     1      28.335  25.886  -4.480  1.00  0.00     0.078 A 
ATOM     23  N   UNL     1      26.336  26.928  -4.170  1.00  0.00    -0.081 NA
ATOM     24  C   UNL     1      28.502  26.909  -3.576  1.00  0.00     0.150 A 
ATOM     25  O   UNL     1      27.305  27.532  -3.389  1.00  0.00    -0.360 OA
BRANCH  24  26
ATOM     26  C   UNL     1      29.638  27.423  -2.770  1.00  0.00     0.157 C 
BRANCH  26  27
ATOM     27  N   UNL     1      30.925  27.185  -3.413  1.00  0.00    -0.324 NA
ATOM     28  H   UNL     1      31.305  28.084  -3.712  1.00  0.00     0.119 HD
ATOM     29  H   UNL     1      31.585  26.807  -2.736  1.00  0.00     0.119 HD
ENDBRANCH  26  27
ENDBRANCH  24  26
ENDBRANCH  10  21
BRANCH   5  30
ATOM     30  C   UNL     1      24.493  19.600  -8.673  1.00  0.00     0.138 C 
ATOM     31  C   UNL     1      23.330  18.963  -8.500  1.00  0.00     0.100 C 
ATOM     32  O   UNL     1      25.376  19.365  -9.713  1.00  0.00    -0.456 OA
ATOM     33  C   UNL     1      22.951  17.919  -9.458  1.00  0.00     0.197 C 
ATOM     34  C   UNL     1      25.052  18.402 -10.634  1.00  0.00     0.146 A 
ATOM     35  O   UNL     1      21.911  17.282  -9.339  1.00  0.00    -0.289 OA
ATOM     36  C   UNL     1      23.874  17.665 -10.570  1.00  0.00     0.107 A 
ATOM     37  C   UNL     1      25.960  18.173 -11.667  1.00  0.00     0.094 A 
ATOM     38  C   UNL     1      23.599  16.703 -11.545  1.00  0.00     0.134 A 
ATOM     39  C   UNL     1      25.675  17.213 -12.632  1.00  0.00     0.123 A 
ATOM     40  C   UNL     1      24.500  16.476 -12.581  1.00  0.00     0.093 A 
BRANCH  38  41
ATOM     41  O   UNL     1      22.460  15.944 -11.540  1.00  0.00    -0.507 OA
ATOM     42  H   UNL     1      21.709  16.513 -11.249  1.00  0.00     0.293 HD
ENDBRANCH  38  41
BRANCH  39  43
ATOM     43  O   UNL     1      26.587  17.014 -13.624  1.00  0.00    -0.508 OA
ATOM     44  H   UNL     1      26.182  16.464 -14.317  1.00  0.00     0.293 HD
ENDBRANCH  39  43
ENDBRANCH   5  30
TORSDOF 9
ENDMDL
MODEL 2
REMARK VINA RESULT:      -8.0     19.898     21.889
REMARK SMILES COc1cc(C2Oc3cc(-c4cc(=O)c5c(O)cc(O)cc5o4)ccc3OC2c2cc(CN)on2)ccc1O
REMARK SMILES IDX 6 1 7 2 8 3 9 4 10 5 24 6 25 7 26 8 27 9 28 10 5 11 3 12
REMARK SMILES IDX 4 13 38 14 37 15 36 16 2 17 1 18 39 19 29 21 30 22 35 23
REMARK SMILES IDX 31 24 34 25 32 26 33 27 11 30 12 31 23 32 13 33 22 34 14 35
REMARK SMILES IDX 15 36 21 37 16 38 19 39 18 40 17 41 20 43
REMARK H PARENT 39 20 33 28 33 29 17 42 20 44
ROOT
ATOM      1  C   UNL     1      16.668  12.529 -23.175  1.00  0.00     0.251 C 
ATOM      2  O   UNL     1      17.838  12.750 -23.990  1.00  0.00    -0.477 OA
ATOM      3  C   UNL     1      18.918  12.045 -23.541  1.00  0.00     0.163 A 
ATOM      4  C   UNL     1      20.168  12.462 -24.000  1.00  0.00     0.062 A 
ATOM      5  C   UNL     1      21.329  11.792 -23.597  1.00  0.00     0.021 A 
ATOM      6  C   UNL     1      21.216  10.702 -22.723  1.00  0.00     0.016 A 
ATOM      7  C   UNL     1      19.960  10.285 -22.266  1.00  0.00     0.051 A 
ATOM      8  C   UNL     1      18.811  10.948 -22.688  1.00  0.00     0.162 A 
ATOM      9  O   UNL     1      17.623  10.466 -22.215  1.00  0.00    -0.476 OA
ATOM     10  C   UNL     1      16.474  11.021 -22.892  1.00  0.00     0.271 C 
ENDROOT
BRANCH   1  11
ATOM     11  C   UNL     1      15.501  13.144 -23.936  1.00  0.00     0.000 A 
ATOM     12  C   UNL     1      14.032  13.138 -25.880  1.00  0.00     0.160 A 
ATOM     13  C   UNL     1      15.098  12.592 -25.163  1.00  0.00     0.058 A 
ATOM     14  C   UNL     1      13.379  14.273 -25.364  1.00  0.00     0.157 A 
ATOM     15  C   UNL     1      13.763  14.833 -24.150  1.00  0.00     0.050 A 
ATOM     16  C   UNL     1      14.816  14.267 -23.434  1.00  0.00     0.012 A 
BRANCH  12  17
ATOM     17  O   UNL     1      13.578  12.664 -27.084  1.00  0.00    -0.493 OA
ATOM     18  C   UNL     1      14.529  12.566 -28.129  1.00  0.00     0.278 C 
ENDBRANCH  12  17
BRANCH  14  19
ATOM     19  O   UNL     1      12.345  14.822 -26.066  1.00  0.00    -0.504 OA
ATOM     20  H   UNL     1      12.690  15.491 -26.676  1.00  0.00     0.293 HD
ENDBRANCH  14  19
ENDBRANCH   1  11
BRANCH  10  21
ATOM     21  C   UNL     1      15.237  10.750 -22.080  1.00  0.00     0.129 A 
ATOM     22  C   UNL     1      14.971  11.115 -20.737  1.00  0.00     0.078 A 
ATOM     23  N   UNL     1      14.205  10.075 -22.609  1.00  0.00    -0.081 NA
ATOM     24  C   UNL     1      13.719  10.604 -20.482  1.00  0.00     0.150 A 
ATOM     25  O   UNL     1      13.261   9.979 -21.602  1.00  0.00    -0.360 OA
BRANCH  24  26
ATOM     26  C   UNL     1      12.828  10.552 -19.295  1.00  0.00     0.157 C 
BRANCH  26  27
ATOM     27  N   UNL     1      11.680  11.443 -19.424  1.00  0.00    -0.324 NA
ATOM     28  H   UNL     1      11.329  11.650 -18.489  1.00  0.00     0.119 HD
ATOM     29  H   UNL     1      11.976  12.332 -19.822  1.00  0.00     0.119 HD
ENDBRANCH  26  27
ENDBRANCH  24  26
ENDBRANCH  10  21
BRANCH   5  30
ATOM     30  C   UNL     1      22.637  12.251 -24.080  1.00  0.00     0.138 C 
ATOM     31  C   UNL     1      22.731  13.206 -25.013  1.00  0.00     0.100 C 
ATOM     32  O   UNL     1      23.715  11.648 -23.455  1.00  0.00    -0.456 OA
ATOM     33  C   UNL     1      24.065  13.646 -25.435  1.00  0.00     0.197 C 
ATOM     34  C   UNL     1      24.978  12.040 -23.818  1.00  0.00     0.146 A 
ATOM     35  O   UNL     1      24.217  14.498 -26.303  1.00  0.00    -0.289 OA
ATOM     36  C   UNL     1      25.216  13.021 -24.775  1.00  0.00     0.107 A 
ATOM     37  C   UNL     1      26.049  11.411 -23.185  1.00  0.00     0.094 A 
ATOM     38  C   UNL     1      26.528  13.380 -25.093  1.00  0.00     0.134 A 
ATOM     39  C   UNL     1      27.351  11.778 -23.510  1.00  0.00     0.123 A 
ATOM     40  C   UNL     1      27.600  12.760 -24.458  1.00  0.00     0.093 A 
BRANCH  38  41
ATOM     41  O   UNL     1      26.831  14.335 -26.025  1.00  0.00    -0.507 OA
ATOM     42  H   UNL     1      27.201  13.886 -26.822  1.00  0.00     0.293 HD
ENDBRANCH  38  41
BRANCH  39  43
ATOM     43  O   UNL     1      28.372  11.140 -22.873  1.00  0.00    -0.508 OA
ATOM     44  H   UNL     1      28.872  11.791 -22.352  1.00  0.00     0.293 HD
ENDBRANCH  39  43
ENDBRANCH   5  30
TORSDOF 9
ENDMDL
MODEL 3
REMARK VINA RESULT:      -8.0     19.587     21.695
REMARK SMILES COc1cc(C2Oc3cc(-c4cc(=O)c5c(O)cc(O)cc5o4)ccc3OC2c2cc(CN)on2)ccc1O
REMARK SMILES IDX 6 1 7 2 8 3 9 4 10 5 24 6 25 7 26 8 27 9 28 10 5 11 3 12
REMARK SMILES IDX 4 13 38 14 37 15 36 16 2 17 1 18 39 19 29 21 30 22 35 23
REMARK SMILES IDX 31 24 34 25 32 26 33 27 11 30 12 31 23 32 13 33 22 34 14 35
REMARK SMILES IDX 15 36 21 37 16 38 19 39 18 40 17 41 20 43
REMARK H PARENT 39 20 33 28 33 29 17 42 20 44
ROOT
ATOM      1  C   UNL     1      18.893  10.872 -22.854  1.00  0.00     0.251 C 
ATOM      2  O   UNL     1      20.240  10.458 -22.544  1.00  0.00    -0.477 OA
ATOM      3  C   UNL     1      21.172  11.283 -23.107  1.00  0.00     0.163 A 
ATOM      4  C   UNL     1      22.472  10.780 -23.200  1.00  0.00     0.062 A 
ATOM      5  C   UNL     1      23.493  11.559 -23.757  1.00  0.00     0.021 A 
ATOM      6  C   UNL     1      23.189  12.845 -24.224  1.00  0.00     0.016 A 
ATOM      7  C   UNL     1      21.884  13.346 -24.128  1.00  0.00     0.051 A 
ATOM      8  C   UNL     1      20.881  12.570 -23.557  1.00  0.00     0.162 A 
ATOM      9  O   UNL     1      19.641  13.138 -23.480  1.00  0.00    -0.476 OA
ATOM     10  C   UNL     1      18.725  12.395 -22.646  1.00  0.00     0.271 C 
ENDROOT
BRANCH   1  11
ATOM     11  C   UNL     1      17.981  10.047 -21.955  1.00  0.00     0.000 A 
ATOM     12  C   UNL     1      15.942   8.744 -21.671  1.00  0.00     0.160 A 
ATOM     13  C   UNL     1      16.795   9.502 -22.475  1.00  0.00     0.058 A 
ATOM     14  C   UNL     1      16.277   8.554 -20.317  1.00  0.00     0.157 A 
ATOM     15  C   UNL     1      17.447   9.085 -19.785  1.00  0.00     0.050 A 
ATOM     16  C   UNL     1      18.300   9.824 -20.602  1.00  0.00     0.012 A 
BRANCH  12  17
ATOM     17  O   UNL     1      14.767   8.180 -22.097  1.00  0.00    -0.493 OA
ATOM     18  C   UNL     1      14.863   7.220 -23.135  1.00  0.00     0.278 C 
ENDBRANCH  12  17
BRANCH  14  19
ATOM     19  O   UNL     1      15.440   7.827 -19.521  1.00  0.00    -0.504 OA
ATOM     20  H   UNL     1      15.721   6.900 -19.519  1.00  0.00     0.293 HD
ENDBRANCH  14  19
ENDBRANCH   1  11
BRANCH  10  21
ATOM     21  C   UNL     1      17.318  12.854 -22.919  1.00  0.00     0.129 A 
ATOM     22  C   UNL     1      16.653  12.952 -24.166  1.00  0.00     0.078 A 
ATOM     23  N   UNL     1      16.520  13.249 -21.915  1.00  0.00    -0.081 NA
ATOM     24  C   UNL     1      15.407  13.446 -23.855  1.00  0.00     0.150 A 
ATOM     25  O   UNL     1      15.328  13.626 -22.507  1.00  0.00    -0.360 OA
BRANCH  24  26
ATOM     26  C   UNL     1      14.210  13.846 -24.638  1.00  0.00     0.157 C 
BRANCH  26  27
ATOM     27  N   UNL     1      13.308  14.699 -23.873  1.00  0.00    -0.324 NA
ATOM     28  H   UNL     1      12.448  14.178 -23.698  1.00  0.00     0.119 HD
ATOM     29  H   UNL     1      13.712  14.900 -22.961  1.00  0.00     0.119 HD
ENDBRANCH  26  27
ENDBRANCH  24  26
ENDBRANCH  10  21
BRANCH   5  30
ATOM     30  C   UNL     1      24.852  11.012 -23.856  1.00  0.00     0.138 C 
ATOM     31  C   UNL     1      25.055   9.706 -24.068  1.00  0.00     0.100 C 
ATOM     32  O   UNL     1      25.852  11.963 -23.762  1.00  0.00    -0.456 OA
ATOM     33  C   UNL     1      26.433   9.221 -24.189  1.00  0.00     0.197 C 
ATOM     34  C   UNL     1      27.155  11.548 -23.879  1.00  0.00     0.146 A 
ATOM     35  O   UNL     1      26.686   8.034 -24.357  1.00  0.00    -0.289 OA
ATOM     36  C   UNL     1      27.505  10.220 -24.098  1.00  0.00     0.107 A 
ATOM     37  C   UNL     1      28.148  12.520 -23.768  1.00  0.00     0.094 A 
ATOM     38  C   UNL     1      28.850   9.865 -24.216  1.00  0.00     0.134 A 
ATOM     39  C   UNL     1      29.484  12.153 -23.888  1.00  0.00     0.123 A 
ATOM     40  C   UNL     1      29.845  10.832 -24.114  1.00  0.00     0.093 A 
BRANCH  38  41
ATOM     41  O   UNL     1      29.262   8.578 -24.432  1.00  0.00    -0.507 OA
ATOM     42  H   UNL     1      28.497   7.976 -24.276  1.00  0.00     0.293 HD
ENDBRANCH  38  41
BRANCH  39  43
ATOM     43  O   UNL     1      30.427  13.130 -23.771  1.00  0.00    -0.508 OA
ATOM     44  H   UNL     1      31.289  12.714 -23.601  1.00  0.00     0.293 HD
ENDBRANCH  39  43
ENDBRANCH   5  30
TORSDOF 9
ENDMDL
