MODEL 1
REMARK VINA RESULT:      -8.2      0.000      0.000
REMARK SMILES CN1CCN(C2=Nc3cc(Cl)ccc3Nc3ccccc32)CC1
REMARK SMILES IDX 1 1 2 2 3 3 4 4 5 5 6 6 7 7 8 8 9 9 10 10 11 11 12 12 13 13
REMARK SMILES IDX 14 14 15 15 16 16 17 17 18 18 19 19 20 20 21 21 22 22 23 23
REMARK H PARENT 15 24
ROOT
ATOM      1  C   UNL     1      24.309  25.142  -7.980  1.00  0.00     0.105 C 
ATOM      2  N   UNL     1      24.868  24.150  -7.063  1.00  0.00    -0.303 NA
ATOM      3  C   UNL     1      23.807  23.240  -6.572  1.00  0.00     0.105 C 
ATOM      4  C   UNL     1      24.366  22.138  -5.642  1.00  0.00     0.133 C 
ATOM      5  N   UNL     1      25.405  21.344  -6.337  1.00  0.00    -0.353 N 
ATOM      6  C   UNL     1      24.995  20.258  -7.133  1.00  0.00     0.138 C 
ATOM      7  N   UNL     1      25.337  20.260  -8.389  1.00  0.00    -0.229 NA
ATOM      8  C   UNL     1      25.003  19.297  -9.348  1.00  0.00     0.090 A 
ATOM      9  C   UNL     1      25.944  19.121 -10.373  1.00  0.00     0.051 A 
ATOM     10  C   UNL     1      25.673  18.302 -11.464  1.00  0.00     0.043 A 
ATOM     11  Cl  UNL     1      26.849  18.105 -12.704  1.00  0.00    -0.084 Cl
ATOM     12  C   UNL     1      24.448  17.655 -11.566  1.00  0.00     0.023 A 
ATOM     13  C   UNL     1      23.498  17.823 -10.558  1.00  0.00     0.030 A 
ATOM     14  C   UNL     1      23.764  18.632  -9.435  1.00  0.00     0.065 A 
ATOM     15  N   UNL     1      22.786  18.695  -8.414  1.00  0.00    -0.353 N 
ATOM     16  C   UNL     1      23.124  18.534  -7.053  1.00  0.00     0.050 A 
ATOM     17  C   UNL     1      22.357  17.643  -6.278  1.00  0.00     0.027 A 
ATOM     18  C   UNL     1      22.690  17.362  -4.951  1.00  0.00     0.002 A 
ATOM     19  C   UNL     1      23.799  17.968  -4.373  1.00  0.00     0.001 A 
ATOM     20  C   UNL     1      24.555  18.870  -5.117  1.00  0.00     0.014 A 
ATOM     21  C   UNL     1      24.214  19.172  -6.450  1.00  0.00     0.041 A 
ATOM     22  C   UNL     1      26.481  22.231  -6.841  1.00  0.00     0.133 C 
ATOM     23  C   UNL     1      25.914  23.349  -7.745  1.00  0.00     0.105 C 
ATOM     24  H   UNL     1      21.940  18.198  -8.664  1.00  0.00     0.167 HD
ENDROOT
TORSDOF 0
ENDMDL
MODEL 2
REMARK VINA RESULT:      -7.2      1.049      1.085
REMARK SMILES CN1CCN(C2=Nc3cc(Cl)ccc3Nc3ccccc32)CC1
REMARK SMILES IDX 1 1 2 2 3 3 4 4 5 5 6 6 7 7 8 8 9 9 10 10 11 11 12 12 13 13
REMARK SMILES IDX 14 14 15 15 16 16 17 17 18 18 19 19 20 20 21 21 22 22 23 23
REMARK H PARENT 15 24
ROOT
ATOM      1  C   UNL     1      22.888  25.094  -6.749  1.00  0.00     0.105 C 
ATOM      2  N   UNL     1      23.650  24.164  -5.918  1.00  0.00    -0.303 NA
ATOM      3  C   UNL     1      22.803  23.024  -5.502  1.00  0.00     0.105 C 
ATOM      4  C   UNL     1      23.588  21.986  -4.667  1.00  0.00     0.133 C 
ATOM      5  N   UNL     1      24.752  21.474  -5.427  1.00  0.00    -0.353 N 
ATOM      6  C   UNL     1      24.551  20.396  -6.309  1.00  0.00     0.138 C 
ATOM      7  N   UNL     1      24.862  20.567  -7.561  1.00  0.00    -0.229 NA
ATOM      8  C   UNL     1      24.709  19.637  -8.595  1.00  0.00     0.090 A 
ATOM      9  C   UNL     1      25.647  19.736  -9.634  1.00  0.00     0.051 A 
ATOM     10  C   UNL     1      25.525  18.970 -10.788  1.00  0.00     0.043 A 
ATOM     11  Cl  UNL     1      26.693  19.113 -12.043  1.00  0.00    -0.084 Cl
ATOM     12  C   UNL     1      24.452  18.100 -10.940  1.00  0.00     0.023 A 
ATOM     13  C   UNL     1      23.507  17.993  -9.919  1.00  0.00     0.030 A 
ATOM     14  C   UNL     1      23.628  18.746  -8.734  1.00  0.00     0.065 A 
ATOM     15  N   UNL     1      22.676  18.529  -7.709  1.00  0.00    -0.353 N 
ATOM     16  C   UNL     1      23.065  18.330  -6.367  1.00  0.00     0.050 A 
ATOM     17  C   UNL     1      22.507  17.244  -5.666  1.00  0.00     0.027 A 
ATOM     18  C   UNL     1      22.914  16.930  -4.367  1.00  0.00     0.002 A 
ATOM     19  C   UNL     1      23.890  17.698  -3.744  1.00  0.00     0.001 A 
ATOM     20  C   UNL     1      24.436  18.790  -4.413  1.00  0.00     0.014 A 
ATOM     21  C   UNL     1      24.017  19.124  -5.716  1.00  0.00     0.041 A 
ATOM     22  C   UNL     1      25.618  22.597  -5.859  1.00  0.00     0.133 C 
ATOM     23  C   UNL     1      24.823  23.648  -6.666  1.00  0.00     0.105 C 
ATOM     24  H   UNL     1      21.941  17.894  -7.997  1.00  0.00     0.167 HD
ENDROOT
TORSDOF 0
ENDMDL
MODEL 3
REMARK VINA RESULT:      -7.1      1.799      4.714
REMARK SMILES CN1CCN(C2=Nc3cc(Cl)ccc3Nc3ccccc32)CC1
REMARK SMILES IDX 1 1 2 2 3 3 4 4 5 5 6 6 7 7 8 8 9 9 10 10 11 11 12 12 13 13
REMARK SMILES IDX 14 14 15 15 16 16 17 17 18 18 19 19 20 20 21 21 22 22 23 23
REMARK H PARENT 15 24
ROOT
ATOM      1  C   UNL     1      24.241  16.965  -3.099  1.00  0.00     0.105 C 
ATOM      2  N   UNL     1      23.495  18.156  -3.503  1.00  0.00    -0.303 NA
ATOM      3  C   UNL     1      24.421  19.259  -3.842  1.00  0.00     0.105 C 
ATOM      4  C   UNL     1      23.674  20.522  -4.330  1.00  0.00     0.133 C 
ATOM      5  N   UNL     1      22.836  20.211  -5.512  1.00  0.00    -0.353 N 
ATOM      6  C   UNL     1      23.435  20.253  -6.784  1.00  0.00     0.138 C 
ATOM      7  N   UNL     1      23.396  19.173  -7.511  1.00  0.00    -0.229 NA
ATOM      8  C   UNL     1      23.958  19.000  -8.781  1.00  0.00     0.090 A 
ATOM      9  C   UNL     1      23.285  18.095  -9.615  1.00  0.00     0.051 A 
ATOM     10  C   UNL     1      23.814  17.722 -10.847  1.00  0.00     0.043 A 
ATOM     11  Cl  UNL     1      22.964  16.611 -11.847  1.00  0.00    -0.084 Cl
ATOM     12  C   UNL     1      25.037  18.232 -11.266  1.00  0.00     0.023 A 
ATOM     13  C   UNL     1      25.722  19.130 -10.446  1.00  0.00     0.030 A 
ATOM     14  C   UNL     1      25.190  19.534  -9.206  1.00  0.00     0.065 A 
ATOM     15  N   UNL     1      25.901  20.507  -8.462  1.00  0.00    -0.353 N 
ATOM     16  C   UNL     1      25.256  21.632  -7.907  1.00  0.00     0.050 A 
ATOM     17  C   UNL     1      25.830  22.901  -8.117  1.00  0.00     0.027 A 
ATOM     18  C   UNL     1      25.199  24.067  -7.678  1.00  0.00     0.002 A 
ATOM     19  C   UNL     1      23.979  23.987  -7.019  1.00  0.00     0.001 A 
ATOM     20  C   UNL     1      23.407  22.739  -6.781  1.00  0.00     0.014 A 
ATOM     21  C   UNL     1      24.047  21.558  -7.205  1.00  0.00     0.041 A 
ATOM     22  C   UNL     1      21.898  19.106  -5.201  1.00  0.00     0.133 C 
ATOM     23  C   UNL     1      22.647  17.856  -4.683  1.00  0.00     0.105 C 
ATOM     24  H   UNL     1      26.788  20.742  -8.891  1.00  0.00     0.167 HD
ENDROOT
TORSDOF 0
ENDMDL
