MODEL 1
REMARK VINA RESULT:      -7.1      0.000      0.000
REMARK SMILES Cc1ccc2nc(C)c(C(=O)N/N=C/c3ccccc3[N+](=O)[O-])cc2c1
REMARK SMILES IDX 13 1 14 2 12 3 10 4 11 5 9 7 2 8 3 9 26 10 4 11 25 12 5 13
REMARK SMILES IDX 24 14 6 15 7 16 1 17 8 18 15 19 16 20 20 21 17 22 19 23
REMARK SMILES IDX 18 24 21 25 22 26 23 27
REMARK H PARENT 12 6
ROOT
ATOM      1  N   UNL     1      25.039  23.180  -6.391  1.00  0.00    -0.180 NA
ATOM      2  C   UNL     1      25.503  24.301  -6.846  1.00  0.00     0.148 C 
ENDROOT
BRANCH   1   3
ATOM      3  N   UNL     1      24.760  22.231  -7.326  1.00  0.00    -0.243 N 
ATOM      4  C   UNL     1      25.089  20.908  -7.075  1.00  0.00     0.273 C 
ATOM      5  O   UNL     1      25.610  20.464  -6.059  1.00  0.00    -0.267 OA
ATOM      6  H   UNL     1      24.226  22.484  -8.152  1.00  0.00     0.194 HD
BRANCH   4   7
ATOM      7  C   UNL     1      24.704  19.973  -8.146  1.00  0.00     0.063 A 
ATOM      8  C   UNL     1      25.846  17.643 -12.248  1.00  0.00    -0.050 A 
ATOM      9  C   UNL     1      24.607  17.004 -12.182  1.00  0.00     0.005 A 
ATOM     10  C   UNL     1      26.191  18.549 -11.239  1.00  0.00     0.013 A 
ATOM     11  C   UNL     1      23.720  17.290 -11.137  1.00  0.00     0.029 A 
ATOM     12  C   UNL     1      25.296  18.830 -10.190  1.00  0.00     0.001 A 
ATOM     13  C   UNL     1      24.038  18.197 -10.136  1.00  0.00     0.071 A 
ATOM     14  C   UNL     1      25.619  19.732  -9.171  1.00  0.00     0.026 A 
ATOM     15  N   UNL     1      23.147  18.442  -9.156  1.00  0.00    -0.252 NA
ATOM     16  C   UNL     1      23.464  19.339  -8.185  1.00  0.00     0.051 A 
ATOM     17  C   UNL     1      26.814  17.321 -13.347  1.00  0.00     0.044 C 
ATOM     18  C   UNL     1      22.390  19.606  -7.171  1.00  0.00     0.067 C 
ENDBRANCH   4   7
ENDBRANCH   1   3
BRANCH   2  19
ATOM     19  C   UNL     1      25.840  25.416  -5.930  1.00  0.00     0.072 A 
ATOM     20  C   UNL     1      27.058  25.374  -5.235  1.00  0.00     0.017 A 
ATOM     21  C   UNL     1      25.014  26.530  -5.745  1.00  0.00     0.278 A 
ATOM     22  C   UNL     1      27.433  26.423  -4.389  1.00  0.00     0.001 A 
ATOM     23  C   UNL     1      25.385  27.592  -4.906  1.00  0.00     0.086 A 
ATOM     24  C   UNL     1      26.601  27.531  -4.227  1.00  0.00     0.007 A 
BRANCH  21  25
ATOM     25  N   UNL     1      23.731  26.627  -6.409  1.00  0.00     0.063 N 
ATOM     26  O   UNL     1      23.707  27.190  -7.511  1.00  0.00    -0.258 OA
ATOM     27  O   UNL     1      22.751  26.147  -5.824  1.00  0.00    -0.258 OA
ENDBRANCH  21  25
ENDBRANCH   2  19
TORSDOF 4
ENDMDL
MODEL 2
REMARK VINA RESULT:      -7.0      0.886      1.151
REMARK SMILES Cc1ccc2nc(C)c(C(=O)N/N=C/c3ccccc3[N+](=O)[O-])cc2c1
REMARK SMILES IDX 13 1 14 2 12 3 10 4 11 5 9 7 2 8 3 9 26 10 4 11 25 12 5 13
REMARK SMILES IDX 24 14 6 15 7 16 1 17 8 18 15 19 16 20 20 21 17 22 19 23
REMARK SMILES IDX 18 24 21 25 22 26 23 27
REMARK H PARENT 12 6
ROOT
ATOM      1  N   UNL     1      25.467  23.309  -6.221  1.00  0.00    -0.180 NA
ATOM      2  C   UNL     1      25.868  24.453  -6.677  1.00  0.00     0.148 C 
ENDROOT
BRANCH   1   3
ATOM      3  N   UNL     1      25.137  22.379  -7.159  1.00  0.00    -0.243 N 
ATOM      4  C   UNL     1      25.236  21.032  -6.851  1.00  0.00     0.273 C 
ATOM      5  O   UNL     1      25.586  20.551  -5.781  1.00  0.00    -0.267 OA
ATOM      6  H   UNL     1      24.728  22.680  -8.039  1.00  0.00     0.194 HD
BRANCH   4   7
ATOM      7  C   UNL     1      24.817  20.128  -7.937  1.00  0.00     0.063 A 
ATOM      8  C   UNL     1      25.863  17.843 -12.089  1.00  0.00    -0.050 A 
ATOM      9  C   UNL     1      24.607  17.238 -12.025  1.00  0.00     0.005 A 
ATOM     10  C   UNL     1      26.241  18.719 -11.066  1.00  0.00     0.013 A 
ATOM     11  C   UNL     1      23.736  17.531 -10.968  1.00  0.00     0.029 A 
ATOM     12  C   UNL     1      25.361  19.007 -10.005  1.00  0.00     0.001 A 
ATOM     13  C   UNL     1      24.087  18.409  -9.954  1.00  0.00     0.071 A 
ATOM     14  C   UNL     1      25.718  19.880  -8.973  1.00  0.00     0.026 A 
ATOM     15  N   UNL     1      23.210  18.661  -8.963  1.00  0.00    -0.252 NA
ATOM     16  C   UNL     1      23.559  19.531  -7.978  1.00  0.00     0.051 A 
ATOM     17  C   UNL     1      26.813  17.514 -13.201  1.00  0.00     0.044 C 
ATOM     18  C   UNL     1      22.501  19.809  -6.951  1.00  0.00     0.067 C 
ENDBRANCH   4   7
ENDBRANCH   1   3
BRANCH   2  19
ATOM     19  C   UNL     1      26.251  25.549  -5.755  1.00  0.00     0.072 A 
ATOM     20  C   UNL     1      26.745  25.221  -4.484  1.00  0.00     0.017 A 
ATOM     21  C   UNL     1      26.173  26.902  -6.104  1.00  0.00     0.278 A 
ATOM     22  C   UNL     1      27.154  26.223  -3.597  1.00  0.00     0.001 A 
ATOM     23  C   UNL     1      26.589  27.914  -5.225  1.00  0.00     0.086 A 
ATOM     24  C   UNL     1      27.080  27.566  -3.968  1.00  0.00     0.007 A 
BRANCH  21  25
ATOM     25  N   UNL     1      25.648  27.314  -7.388  1.00  0.00     0.063 N 
ATOM     26  O   UNL     1      24.417  27.349  -7.509  1.00  0.00    -0.258 OA
ATOM     27  O   UNL     1      26.467  27.595  -8.273  1.00  0.00    -0.258 OA
ENDBRANCH  21  25
ENDBRANCH   2  19
TORSDOF 4
ENDMDL
MODEL 3
REMARK VINA RESULT:      -6.9     17.876     19.138
REMARK SMILES Cc1ccc2nc(C)c(C(=O)N/N=C/c3ccccc3[N+](=O)[O-])cc2c1
REMARK SMILES IDX 13 1 14 2 12 3 10 4 11 5 9 7 2 8 3 9 26 10 4 11 25 12 5 13
REMARK SMILES IDX 24 14 6 15 7 16 1 17 8 18 15 19 16 20 20 21 17 22 19 23
REMARK SMILES IDX 18 24 21 25 22 26 23 27
REMARK H PARENT 12 6
ROOT
ATOM      1  N   UNL     1      30.615  10.931 -21.824  1.00  0.00    -0.180 NA
ATOM      2  C   UNL     1      30.992  11.319 -20.647  1.00  0.00     0.148 C 
ENDROOT
BRANCH   1   3
ATOM      3  N   UNL     1      29.494  11.528 -22.315  1.00  0.00    -0.243 N 
ATOM      4  C   UNL     1      28.929  11.059 -23.489  1.00  0.00     0.273 C 
ATOM      5  O   UNL     1      29.322  10.117 -24.165  1.00  0.00    -0.267 OA
ATOM      6  H   UNL     1      29.028  12.245 -21.765  1.00  0.00     0.194 HD
BRANCH   4   7
ATOM      7  C   UNL     1      27.701  11.765 -23.897  1.00  0.00     0.063 A 
ATOM      8  C   UNL     1      22.860  12.096 -23.794  1.00  0.00    -0.050 A 
ATOM      9  C   UNL     1      22.965  13.274 -24.535  1.00  0.00     0.005 A 
ATOM     10  C   UNL     1      24.030  11.420 -23.435  1.00  0.00     0.013 A 
ATOM     11  C   UNL     1      24.222  13.748 -24.931  1.00  0.00     0.029 A 
ATOM     12  C   UNL     1      25.291  11.904 -23.834  1.00  0.00     0.001 A 
ATOM     13  C   UNL     1      25.392  13.083 -24.598  1.00  0.00     0.071 A 
ATOM     14  C   UNL     1      26.474  11.244 -23.487  1.00  0.00     0.026 A 
ATOM     15  N   UNL     1      26.576  13.578 -25.008  1.00  0.00    -0.252 NA
ATOM     16  C   UNL     1      27.717  12.914 -24.685  1.00  0.00     0.051 A 
ATOM     17  C   UNL     1      21.521  11.596 -23.341  1.00  0.00     0.044 C 
ATOM     18  C   UNL     1      28.986  13.493 -25.239  1.00  0.00     0.067 C 
ENDBRANCH   4   7
ENDBRANCH   1   3
BRANCH   2  19
ATOM     19  C   UNL     1      32.194  10.739 -20.002  1.00  0.00     0.072 A 
ATOM     20  C   UNL     1      32.253   9.351 -19.807  1.00  0.00     0.017 A 
ATOM     21  C   UNL     1      33.292  11.508 -19.601  1.00  0.00     0.278 A 
ATOM     22  C   UNL     1      33.384   8.758 -19.236  1.00  0.00     0.001 A 
ATOM     23  C   UNL     1      34.435  10.922 -19.036  1.00  0.00     0.086 A 
ATOM     24  C   UNL     1      34.474   9.540 -18.855  1.00  0.00     0.007 A 
BRANCH  21  25
ATOM     25  N   UNL     1      33.288  12.948 -19.746  1.00  0.00     0.063 N 
ATOM     26  O   UNL     1      33.972  13.425 -20.661  1.00  0.00    -0.258 OA
ATOM     27  O   UNL     1      32.609  13.598 -18.941  1.00  0.00    -0.258 OA
ENDBRANCH  21  25
ENDBRANCH   2  19
TORSDOF 4
ENDMDL
