MODEL 1
REMARK VINA RESULT:      -7.4      0.000      0.000
REMARK SMILES COc1ccc(C(=O)C2CCN(C(=O)c3ccc(C)cc3)CC2)cc1
REMARK SMILES IDX 7 1 8 2 6 3 3 4 4 5 25 6 5 7 24 8 2 9 1 10 9 11 10 12 23 13
REMARK SMILES IDX 11 14 22 15 12 16 13 17 14 18 15 19 16 20 21 21 17 22 20 23
REMARK SMILES IDX 18 24 19 25
REMARK H PARENT
ROOT
ATOM      1  C   UNL     1      26.284  26.184  -8.007  1.00  0.00     0.166 C 
ATOM      2  O   UNL     1      25.832  27.222  -7.525  1.00  0.00    -0.294 OA
ENDROOT
BRANCH   1   3
ATOM      3  C   UNL     1      27.226  26.304  -9.145  1.00  0.00     0.018 A 
ATOM      4  C   UNL     1      28.983  26.614 -11.303  1.00  0.00     0.118 A 
ATOM      5  C   UNL     1      28.526  27.729 -10.596  1.00  0.00     0.047 A 
ATOM      6  C   UNL     1      28.542  25.342 -10.935  1.00  0.00     0.047 A 
ATOM      7  C   UNL     1      27.644  27.581  -9.524  1.00  0.00     0.015 A 
ATOM      8  C   UNL     1      27.658  25.185  -9.860  1.00  0.00     0.015 A 
BRANCH   4   9
ATOM      9  O   UNL     1      29.843  26.903 -12.326  1.00  0.00    -0.497 OA
ATOM     10  C   UNL     1      29.698  28.170 -12.955  1.00  0.00     0.278 C 
ENDBRANCH   4   9
ENDBRANCH   1   3
BRANCH   1  11
ATOM     11  C   UNL     1      25.880  24.818  -7.457  1.00  0.00     0.065 C 
ATOM     12  C   UNL     1      24.977  24.052  -8.436  1.00  0.00     0.033 C 
ATOM     13  C   UNL     1      27.031  23.969  -6.908  1.00  0.00     0.033 C 
ATOM     14  C   UNL     1      25.512  22.671  -8.813  1.00  0.00     0.120 C 
ATOM     15  C   UNL     1      26.513  22.592  -6.517  1.00  0.00     0.120 C 
ATOM     16  N   UNL     1      25.921  21.885  -7.648  1.00  0.00    -0.339 N 
ATOM     17  C   UNL     1      25.670  20.522  -7.483  1.00  0.00     0.253 C 
ATOM     18  O   UNL     1      25.817  19.937  -6.412  1.00  0.00    -0.269 OA
BRANCH  17  19
ATOM     19  C   UNL     1      25.213  19.727  -8.645  1.00  0.00     0.040 A 
ATOM     20  C   UNL     1      26.051  19.530  -9.747  1.00  0.00     0.014 A 
ATOM     21  C   UNL     1      23.950  19.133  -8.601  1.00  0.00     0.014 A 
ATOM     22  C   UNL     1      25.605  18.762 -10.824  1.00  0.00     0.004 A 
ATOM     23  C   UNL     1      23.509  18.368  -9.682  1.00  0.00     0.004 A 
ATOM     24  C   UNL     1      24.334  18.170 -10.796  1.00  0.00    -0.051 A 
ATOM     25  C   UNL     1      23.846  17.369 -11.968  1.00  0.00     0.044 C 
ENDBRANCH  17  19
ENDBRANCH   1  11
TORSDOF 4
ENDMDL
MODEL 2
REMARK VINA RESULT:      -7.3      0.547      1.162
REMARK SMILES COc1ccc(C(=O)C2CCN(C(=O)c3ccc(C)cc3)CC2)cc1
REMARK SMILES IDX 7 1 8 2 6 3 3 4 4 5 25 6 5 7 24 8 2 9 1 10 9 11 10 12 23 13
REMARK SMILES IDX 11 14 22 15 12 16 13 17 14 18 15 19 16 20 21 21 17 22 20 23
REMARK SMILES IDX 18 24 19 25
REMARK H PARENT
ROOT
ATOM      1  C   UNL     1      26.188  26.027  -8.013  1.00  0.00     0.166 C 
ATOM      2  O   UNL     1      25.671  27.034  -7.528  1.00  0.00    -0.294 OA
ENDROOT
BRANCH   1   3
ATOM      3  C   UNL     1      27.144  26.212  -9.130  1.00  0.00     0.018 A 
ATOM      4  C   UNL     1      28.974  26.479 -11.233  1.00  0.00     0.118 A 
ATOM      5  C   UNL     1      28.519  25.215 -10.846  1.00  0.00     0.047 A 
ATOM      6  C   UNL     1      28.522  27.608 -10.549  1.00  0.00     0.047 A 
ATOM      7  C   UNL     1      27.613  25.077  -9.793  1.00  0.00     0.015 A 
ATOM      8  C   UNL     1      27.612  27.478  -9.493  1.00  0.00     0.015 A 
BRANCH   4   9
ATOM      9  O   UNL     1      29.856  26.470 -12.278  1.00  0.00    -0.497 OA
ATOM     10  C   UNL     1      30.766  25.379 -12.347  1.00  0.00     0.278 C 
ENDBRANCH   4   9
ENDBRANCH   1   3
BRANCH   1  11
ATOM     11  C   UNL     1      25.849  24.635  -7.487  1.00  0.00     0.065 C 
ATOM     12  C   UNL     1      24.910  23.878  -8.438  1.00  0.00     0.033 C 
ATOM     13  C   UNL     1      27.049  23.799  -7.031  1.00  0.00     0.033 C 
ATOM     14  C   UNL     1      25.455  22.524  -8.890  1.00  0.00     0.120 C 
ATOM     15  C   UNL     1      26.587  22.397  -6.658  1.00  0.00     0.120 C 
ATOM     16  N   UNL     1      25.948  21.712  -7.777  1.00  0.00    -0.339 N 
ATOM     17  C   UNL     1      25.739  20.338  -7.643  1.00  0.00     0.253 C 
ATOM     18  O   UNL     1      25.961  19.723  -6.602  1.00  0.00    -0.269 OA
BRANCH  17  19
ATOM     19  C   UNL     1      25.236  19.569  -8.803  1.00  0.00     0.040 A 
ATOM     20  C   UNL     1      26.046  19.357  -9.923  1.00  0.00     0.014 A 
ATOM     21  C   UNL     1      23.957  19.014  -8.740  1.00  0.00     0.014 A 
ATOM     22  C   UNL     1      25.556  18.614 -10.999  1.00  0.00     0.004 A 
ATOM     23  C   UNL     1      23.471  18.273  -9.819  1.00  0.00     0.004 A 
ATOM     24  C   UNL     1      24.268  18.061 -10.952  1.00  0.00    -0.051 A 
ATOM     25  C   UNL     1      23.733  17.287 -12.121  1.00  0.00     0.044 C 
ENDBRANCH  17  19
ENDBRANCH   1  11
TORSDOF 4
ENDMDL
MODEL 3
REMARK VINA RESULT:      -7.3      0.561      1.129
REMARK SMILES COc1ccc(C(=O)C2CCN(C(=O)c3ccc(C)cc3)CC2)cc1
REMARK SMILES IDX 7 1 8 2 6 3 3 4 4 5 25 6 5 7 24 8 2 9 1 10 9 11 10 12 23 13
REMARK SMILES IDX 11 14 22 15 12 16 13 17 14 18 15 19 16 20 21 21 17 22 20 23
REMARK SMILES IDX 18 24 19 25
REMARK H PARENT
ROOT
ATOM      1  C   UNL     1      26.284  26.407  -8.031  1.00  0.00     0.166 C 
ATOM      2  O   UNL     1      25.644  27.402  -7.694  1.00  0.00    -0.294 OA
ENDROOT
BRANCH   1   3
ATOM      3  C   UNL     1      27.255  26.555  -9.141  1.00  0.00     0.018 A 
ATOM      4  C   UNL     1      29.068  26.918 -11.245  1.00  0.00     0.118 A 
ATOM      5  C   UNL     1      28.599  28.015 -10.516  1.00  0.00     0.047 A 
ATOM      6  C   UNL     1      28.609  25.638 -10.927  1.00  0.00     0.047 A 
ATOM      7  C   UNL     1      27.690  27.840  -9.471  1.00  0.00     0.015 A 
ATOM      8  C   UNL     1      27.699  25.455  -9.879  1.00  0.00     0.015 A 
BRANCH   4   9
ATOM      9  O   UNL     1      29.954  27.231 -12.237  1.00  0.00    -0.497 OA
ATOM     10  C   UNL     1      29.770  28.477 -12.899  1.00  0.00     0.278 C 
ENDBRANCH   4   9
ENDBRANCH   1   3
BRANCH   1  11
ATOM     11  C   UNL     1      26.079  25.063  -7.336  1.00  0.00     0.065 C 
ATOM     12  C   UNL     1      24.950  24.250  -7.988  1.00  0.00     0.033 C 
ATOM     13  C   UNL     1      27.354  24.248  -7.102  1.00  0.00     0.033 C 
ATOM     14  C   UNL     1      25.383  22.857  -8.446  1.00  0.00     0.120 C 
ATOM     15  C   UNL     1      26.994  22.884  -6.527  1.00  0.00     0.120 C 
ATOM     16  N   UNL     1      26.119  22.125  -7.415  1.00  0.00    -0.339 N 
ATOM     17  C   UNL     1      25.951  20.769  -7.131  1.00  0.00     0.253 C 
ATOM     18  O   UNL     1      26.406  20.232  -6.124  1.00  0.00    -0.269 OA
BRANCH  17  19
ATOM     19  C   UNL     1      25.200  19.922  -8.084  1.00  0.00     0.040 A 
ATOM     20  C   UNL     1      23.922  19.452  -7.767  1.00  0.00     0.014 A 
ATOM     21  C   UNL     1      25.768  19.642  -9.329  1.00  0.00     0.014 A 
ATOM     22  C   UNL     1      23.225  18.669  -8.689  1.00  0.00     0.004 A 
ATOM     23  C   UNL     1      25.067  18.856 -10.247  1.00  0.00     0.004 A 
ATOM     24  C   UNL     1      23.790  18.371  -9.938  1.00  0.00    -0.051 A 
ATOM     25  C   UNL     1      23.051  17.505 -10.916  1.00  0.00     0.044 C 
ENDBRANCH  17  19
ENDBRANCH   1  11
TORSDOF 4
ENDMDL
