MODEL 1
REMARK VINA RESULT:      -7.7      0.000      0.000
REMARK SMILES O[C@@](Cn1cnnn1)(c1ccc(F)cc1F)C(F)(F)c1ccc(-c2ccc(OCC(F)(F)F)cc2)cn1
REMARK SMILES IDX 20 1 21 2 22 3 23 4 36 5 37 6 17 7 18 8 19 9 2 10 1 11 3 13
REMARK SMILES IDX 4 14 5 15 8 16 6 17 7 18 9 19 10 20 15 21 11 22 14 23 12 24
REMARK SMILES IDX 16 25 13 26 24 27 25 28 35 29 26 30 34 31 27 32 28 33 29 34
REMARK SMILES IDX 30 35 31 36 32 37 33 38
REMARK H PARENT 1 12
ROOT
ATOM      1  C   UNL     1      20.810  12.077 -22.478  1.00  0.00     0.113 A 
ATOM      2  C   UNL     1      20.718  13.422 -22.832  1.00  0.00     0.031 A 
ATOM      3  C   UNL     1      21.661  13.963 -23.706  1.00  0.00     0.012 A 
ATOM      4  C   UNL     1      22.691  13.169 -24.221  1.00  0.00     0.000 A 
ATOM      5  C   UNL     1      22.706  11.839 -23.805  1.00  0.00     0.120 A 
ATOM      6  N   UNL     1      21.803  11.278 -22.956  1.00  0.00    -0.254 NA
ENDROOT
BRANCH   1   7
ATOM      7  C   UNL     1      19.777  11.503 -21.504  1.00  0.00     0.323 C 
ATOM      8  F   UNL     1      19.293  12.499 -20.697  1.00  0.00    -0.196 F 
ATOM      9  F   UNL     1      20.386  10.625 -20.644  1.00  0.00    -0.196 F 
BRANCH   7  10
ATOM     10  C   UNL     1      18.553  10.773 -22.192  1.00  0.00     0.182 C 
BRANCH  10  11
ATOM     11  O   UNL     1      17.967   9.803 -21.285  1.00  0.00    -0.377 OA
ATOM     12  H   UNL     1      18.575   9.713 -20.519  1.00  0.00     0.212 HD
ENDBRANCH  10  11
BRANCH  10  13
ATOM     13  C   UNL     1      19.060  10.020 -23.452  1.00  0.00     0.195 C 
BRANCH  13  14
ATOM     14  N   UNL     1      18.707   8.618 -23.493  1.00  0.00    -0.229 N 
ATOM     15  C   UNL     1      17.786   7.994 -24.274  1.00  0.00     0.246 A 
ATOM     16  N   UNL     1      19.418   7.704 -22.816  1.00  0.00    -0.045 NA
ATOM     17  N   UNL     1      17.872   6.702 -24.064  1.00  0.00    -0.117 NA
ATOM     18  N   UNL     1      18.887   6.536 -23.151  1.00  0.00    -0.024 NA
ENDBRANCH  13  14
ENDBRANCH  10  13
BRANCH  10  19
ATOM     19  C   UNL     1      17.455  11.805 -22.518  1.00  0.00     0.028 A 
ATOM     20  C   UNL     1      17.334  12.365 -23.806  1.00  0.00     0.013 A 
ATOM     21  C   UNL     1      16.513  12.206 -21.556  1.00  0.00     0.132 A 
ATOM     22  C   UNL     1      16.323  13.283 -24.102  1.00  0.00     0.040 A 
ATOM     23  C   UNL     1      15.501  13.118 -21.842  1.00  0.00     0.078 A 
ATOM     24  C   UNL     1      15.415  13.649 -23.118  1.00  0.00     0.126 A 
ATOM     25  F   UNL     1      16.589  11.729 -20.307  1.00  0.00    -0.206 F 
ATOM     26  F   UNL     1      14.446  14.527 -23.404  1.00  0.00    -0.207 F 
ENDBRANCH  10  19
ENDBRANCH   7  10
ENDBRANCH   1   7
BRANCH   4  27
ATOM     27  C   UNL     1      23.701  13.706 -25.142  1.00  0.00    -0.017 A 
ATOM     28  C   UNL     1      23.430  13.861 -26.509  1.00  0.00     0.012 A 
ATOM     29  C   UNL     1      24.971  14.089 -24.683  1.00  0.00     0.012 A 
ATOM     30  C   UNL     1      24.397  14.376 -27.379  1.00  0.00     0.047 A 
ATOM     31  C   UNL     1      25.942  14.602 -25.556  1.00  0.00     0.047 A 
ATOM     32  C   UNL     1      25.658  14.744 -26.911  1.00  0.00     0.119 A 
BRANCH  32  33
ATOM     33  O   UNL     1      26.496  15.230 -27.874  1.00  0.00    -0.484 OA
BRANCH  33  34
ATOM     34  C   UNL     1      27.461  16.226 -27.516  1.00  0.00     0.344 C 
BRANCH  34  35
ATOM     35  C   UNL     1      26.887  17.634 -27.470  1.00  0.00     0.422 C 
ATOM     36  F   UNL     1      25.917  17.815 -28.392  1.00  0.00    -0.167 F 
ATOM     37  F   UNL     1      26.377  17.942 -26.258  1.00  0.00    -0.167 F 
ATOM     38  F   UNL     1      27.862  18.540 -27.730  1.00  0.00    -0.167 F 
ENDBRANCH  34  35
ENDBRANCH  33  34
ENDBRANCH  32  33
ENDBRANCH   4  27
TORSDOF 10
ENDMDL
MODEL 2
REMARK VINA RESULT:      -7.6      1.900      2.509
REMARK SMILES O[C@@](Cn1cnnn1)(c1ccc(F)cc1F)C(F)(F)c1ccc(-c2ccc(OCC(F)(F)F)cc2)cn1
REMARK SMILES IDX 20 1 21 2 22 3 23 4 36 5 37 6 17 7 18 8 19 9 2 10 1 11 3 13
REMARK SMILES IDX 4 14 5 15 8 16 6 17 7 18 9 19 10 20 15 21 11 22 14 23 12 24
REMARK SMILES IDX 16 25 13 26 24 27 25 28 35 29 26 30 34 31 27 32 28 33 29 34
REMARK SMILES IDX 30 35 31 36 32 37 33 38
REMARK H PARENT 1 12
ROOT
ATOM      1  C   UNL     1      20.512  12.033 -22.299  1.00  0.00     0.113 A 
ATOM      2  C   UNL     1      21.461  11.159 -22.825  1.00  0.00     0.031 A 
ATOM      3  C   UNL     1      22.405  11.642 -23.733  1.00  0.00     0.012 A 
ATOM      4  C   UNL     1      22.400  12.988 -24.114  1.00  0.00     0.000 A 
ATOM      5  C   UNL     1      21.409  13.783 -23.541  1.00  0.00     0.120 A 
ATOM      6  N   UNL     1      20.475  13.346 -22.655  1.00  0.00    -0.254 NA
ENDROOT
BRANCH   1   7
ATOM      7  C   UNL     1      19.472  11.482 -21.318  1.00  0.00     0.323 C 
ATOM      8  F   UNL     1      18.827  12.518 -20.694  1.00  0.00    -0.196 F 
ATOM      9  F   UNL     1      20.102  10.806 -20.305  1.00  0.00    -0.196 F 
BRANCH   7  10
ATOM     10  C   UNL     1      18.389  10.530 -21.968  1.00  0.00     0.182 C 
BRANCH  10  11
ATOM     11  O   UNL     1      17.119  10.661 -21.275  1.00  0.00    -0.377 OA
ATOM     12  H   UNL     1      16.772  11.561 -21.466  1.00  0.00     0.212 HD
ENDBRANCH  10  11
BRANCH  10  13
ATOM     13  C   UNL     1      18.867   9.059 -21.837  1.00  0.00     0.195 C 
BRANCH  13  14
ATOM     14  N   UNL     1      18.109   8.266 -20.894  1.00  0.00    -0.229 N 
ATOM     15  C   UNL     1      18.378   8.012 -19.586  1.00  0.00     0.246 A 
ATOM     16  N   UNL     1      16.893   7.794 -21.205  1.00  0.00    -0.045 NA
ATOM     17  N   UNL     1      17.370   7.342 -19.078  1.00  0.00    -0.117 NA
ATOM     18  N   UNL     1      16.456   7.209 -20.097  1.00  0.00    -0.024 NA
ENDBRANCH  13  14
ENDBRANCH  10  13
BRANCH  10  19
ATOM     19  C   UNL     1      18.146  10.949 -23.432  1.00  0.00     0.028 A 
ATOM     20  C   UNL     1      18.628  10.172 -24.506  1.00  0.00     0.013 A 
ATOM     21  C   UNL     1      17.413  12.103 -23.756  1.00  0.00     0.132 A 
ATOM     22  C   UNL     1      18.386  10.544 -25.831  1.00  0.00     0.040 A 
ATOM     23  C   UNL     1      17.166  12.480 -25.073  1.00  0.00     0.078 A 
ATOM     24  C   UNL     1      17.656  11.693 -26.102  1.00  0.00     0.126 A 
ATOM     25  F   UNL     1      16.951  12.896 -22.782  1.00  0.00    -0.206 F 
ATOM     26  F   UNL     1      17.424  12.047 -27.372  1.00  0.00    -0.207 F 
ENDBRANCH  10  19
ENDBRANCH   7  10
ENDBRANCH   1   7
BRANCH   4  27
ATOM     27  C   UNL     1      23.377  13.530 -25.067  1.00  0.00    -0.017 A 
ATOM     28  C   UNL     1      24.653  13.932 -24.650  1.00  0.00     0.012 A 
ATOM     29  C   UNL     1      23.067  13.658 -26.430  1.00  0.00     0.012 A 
ATOM     30  C   UNL     1      25.580  14.445 -25.565  1.00  0.00     0.047 A 
ATOM     31  C   UNL     1      23.994  14.175 -27.347  1.00  0.00     0.047 A 
ATOM     32  C   UNL     1      25.256  14.575 -26.916  1.00  0.00     0.119 A 
BRANCH  32  33
ATOM     33  O   UNL     1      26.257  15.089 -27.688  1.00  0.00    -0.484 OA
BRANCH  33  34
ATOM     34  C   UNL     1      27.198  15.991 -27.095  1.00  0.00     0.344 C 
BRANCH  34  35
ATOM     35  C   UNL     1      26.810  17.454 -27.248  1.00  0.00     0.422 C 
ATOM     36  F   UNL     1      25.900  17.636 -28.229  1.00  0.00    -0.167 F 
ATOM     37  F   UNL     1      26.307  17.975 -26.108  1.00  0.00    -0.167 F 
ATOM     38  F   UNL     1      27.901  18.192 -27.571  1.00  0.00    -0.167 F 
ENDBRANCH  34  35
ENDBRANCH  33  34
ENDBRANCH  32  33
ENDBRANCH   4  27
TORSDOF 10
ENDMDL
MODEL 3
REMARK VINA RESULT:      -7.5      2.364      3.441
REMARK SMILES O[C@@](Cn1cnnn1)(c1ccc(F)cc1F)C(F)(F)c1ccc(-c2ccc(OCC(F)(F)F)cc2)cn1
REMARK SMILES IDX 20 1 21 2 22 3 23 4 36 5 37 6 17 7 18 8 19 9 2 10 1 11 3 13
REMARK SMILES IDX 4 14 5 15 8 16 6 17 7 18 9 19 10 20 15 21 11 22 14 23 12 24
REMARK SMILES IDX 16 25 13 26 24 27 25 28 35 29 26 30 34 31 27 32 28 33 29 34
REMARK SMILES IDX 30 35 31 36 32 37 33 38
REMARK H PARENT 1 12
ROOT
ATOM      1  C   UNL     1      20.679  12.160 -22.543  1.00  0.00     0.113 A 
ATOM      2  C   UNL     1      21.702  11.296 -22.929  1.00  0.00     0.031 A 
ATOM      3  C   UNL     1      22.728  11.775 -23.745  1.00  0.00     0.012 A 
ATOM      4  C   UNL     1      22.732  13.106 -24.175  1.00  0.00     0.000 A 
ATOM      5  C   UNL     1      21.664  13.892 -23.743  1.00  0.00     0.120 A 
ATOM      6  N   UNL     1      20.650  13.459 -22.948  1.00  0.00    -0.254 NA
ENDROOT
BRANCH   1   7
ATOM      7  C   UNL     1      19.551  11.614 -21.661  1.00  0.00     0.323 C 
ATOM      8  F   UNL     1      19.262  12.511 -20.667  1.00  0.00    -0.196 F 
ATOM      9  F   UNL     1      19.980  10.490 -21.002  1.00  0.00    -0.196 F 
BRANCH   7  10
ATOM     10  C   UNL     1      18.215  11.270 -22.435  1.00  0.00     0.182 C 
BRANCH  10  11
ATOM     11  O   UNL     1      18.495  11.000 -23.834  1.00  0.00    -0.377 OA
ATOM     12  H   UNL     1      19.314  10.457 -23.870  1.00  0.00     0.212 HD
ENDBRANCH  10  11
BRANCH  10  13
ATOM     13  C   UNL     1      17.258  12.491 -22.356  1.00  0.00     0.195 C 
BRANCH  13  14
ATOM     14  N   UNL     1      16.132  12.427 -23.260  1.00  0.00    -0.229 N 
ATOM     15  C   UNL     1      14.831  12.151 -22.982  1.00  0.00     0.246 A 
ATOM     16  N   UNL     1      16.247  12.815 -24.540  1.00  0.00    -0.045 NA
ATOM     17  N   UNL     1      14.129  12.310 -24.079  1.00  0.00    -0.117 NA
ATOM     18  N   UNL     1      15.022  12.718 -25.040  1.00  0.00    -0.024 NA
ENDBRANCH  13  14
ENDBRANCH  10  13
BRANCH  10  19
ATOM     19  C   UNL     1      17.593   9.987 -21.846  1.00  0.00     0.028 A 
ATOM     20  C   UNL     1      17.732   8.742 -22.492  1.00  0.00     0.013 A 
ATOM     21  C   UNL     1      16.891  10.002 -20.630  1.00  0.00     0.132 A 
ATOM     22  C   UNL     1      17.186   7.579 -21.942  1.00  0.00     0.040 A 
ATOM     23  C   UNL     1      16.345   8.849 -20.073  1.00  0.00     0.078 A 
ATOM     24  C   UNL     1      16.500   7.643 -20.738  1.00  0.00     0.126 A 
ATOM     25  F   UNL     1      16.702  11.157 -19.980  1.00  0.00    -0.206 F 
ATOM     26  F   UNL     1      15.979   6.528 -20.211  1.00  0.00    -0.207 F 
ENDBRANCH  10  19
ENDBRANCH   7  10
ENDBRANCH   1   7
BRANCH   4  27
ATOM     27  C   UNL     1      23.795  13.643 -25.034  1.00  0.00    -0.017 A 
ATOM     28  C   UNL     1      23.573  13.889 -26.396  1.00  0.00     0.012 A 
ATOM     29  C   UNL     1      25.067  13.933 -24.518  1.00  0.00     0.012 A 
ATOM     30  C   UNL     1      24.591  14.404 -27.207  1.00  0.00     0.047 A 
ATOM     31  C   UNL     1      26.089  14.445 -25.332  1.00  0.00     0.047 A 
ATOM     32  C   UNL     1      25.854  14.680 -26.684  1.00  0.00     0.119 A 
BRANCH  32  33
ATOM     33  O   UNL     1      26.744  15.177 -27.592  1.00  0.00    -0.484 OA
BRANCH  33  34
ATOM     34  C   UNL     1      27.575  16.281 -27.217  1.00  0.00     0.344 C 
BRANCH  34  35
ATOM     35  C   UNL     1      26.856  17.621 -27.266  1.00  0.00     0.422 C 
ATOM     36  F   UNL     1      25.861  17.629 -28.179  1.00  0.00    -0.167 F 
ATOM     37  F   UNL     1      26.330  17.966 -26.071  1.00  0.00    -0.167 F 
ATOM     38  F   UNL     1      27.726  18.602 -27.612  1.00  0.00    -0.167 F 
ENDBRANCH  34  35
ENDBRANCH  33  34
ENDBRANCH  32  33
ENDBRANCH   4  27
TORSDOF 10
ENDMDL
