MODEL 1
REMARK VINA RESULT:      -8.6      0.000      0.000
REMARK SMILES Cc1ccc(NC(=O)CSc2ccccc2NC(=O)c2ccccc2Cl)cc1Cl
REMARK SMILES IDX 10 1 9 2 7 3 6 4 8 5 5 7 2 8 3 9 28 10 4 11 27 12 1 13 29 14
REMARK SMILES IDX 11 15 12 16 16 17 13 18 15 19 14 20 17 21 18 22 19 23 20 25
REMARK SMILES IDX 21 26 25 27 22 28 24 29 23 30 26 31
REMARK H PARENT 6 6 17 24
ROOT
ATOM      1  S   UNL     1      25.305  22.927  -8.769  1.00  0.00    -0.114 SA
ENDROOT
BRANCH   1   2
ATOM      2  C   UNL     1      26.507  24.288  -8.564  1.00  0.00     0.175 C 
BRANCH   2   3
ATOM      3  C   UNL     1      27.099  24.691  -9.907  1.00  0.00     0.234 C 
ATOM      4  N   UNL     1      28.145  25.593  -9.791  1.00  0.00    -0.325 N 
ATOM      5  O   UNL     1      26.643  24.233 -10.950  1.00  0.00    -0.274 OA
ATOM      6  H   UNL     1      28.429  25.841  -8.852  1.00  0.00     0.169 HD
BRANCH   4   7
ATOM      7  C   UNL     1      28.921  26.153 -10.825  1.00  0.00     0.042 A 
ATOM      8  C   UNL     1      30.381  27.440 -12.876  1.00  0.00    -0.032 A 
ATOM      9  C   UNL     1      29.353  28.114 -12.197  1.00  0.00     0.007 A 
ATOM     10  C   UNL     1      30.677  26.121 -12.502  1.00  0.00     0.046 A 
ATOM     11  C   UNL     1      28.633  27.474 -11.185  1.00  0.00     0.026 A 
ATOM     12  C   UNL     1      29.946  25.480 -11.493  1.00  0.00     0.047 A 
ATOM     13  C   UNL     1      31.161  28.165 -13.938  1.00  0.00     0.046 C 
ATOM     14  Cl  UNL     1      31.961  25.240 -13.253  1.00  0.00    -0.084 Cl
ENDBRANCH   4   7
ENDBRANCH   2   3
ENDBRANCH   1   2
BRANCH   1  15
ATOM     15  C   UNL     1      25.440  22.138  -7.161  1.00  0.00     0.031 A 
ATOM     16  C   UNL     1      25.326  22.927  -6.008  1.00  0.00     0.017 A 
ATOM     17  C   UNL     1      25.642  20.745  -7.043  1.00  0.00     0.055 A 
ATOM     18  C   UNL     1      25.454  22.352  -4.745  1.00  0.00     0.001 A 
ATOM     19  C   UNL     1      25.776  20.186  -5.769  1.00  0.00     0.027 A 
ATOM     20  C   UNL     1      25.690  20.987  -4.628  1.00  0.00     0.002 A 
BRANCH  17  21
ATOM     21  N   UNL     1      25.705  19.975  -8.230  1.00  0.00    -0.321 N 
ATOM     22  C   UNL     1      24.669  19.352  -8.891  1.00  0.00     0.257 C 
ATOM     23  O   UNL     1      23.483  19.345  -8.589  1.00  0.00    -0.269 OA
ATOM     24  H   UNL     1      26.624  19.950  -8.667  1.00  0.00     0.170 HD
BRANCH  22  25
ATOM     25  C   UNL     1      25.059  18.707 -10.164  1.00  0.00     0.058 A 
ATOM     26  C   UNL     1      26.304  19.061 -10.702  1.00  0.00     0.015 A 
ATOM     27  C   UNL     1      24.238  17.793 -10.831  1.00  0.00     0.053 A 
ATOM     28  C   UNL     1      26.740  18.486 -11.893  1.00  0.00     0.001 A 
ATOM     29  C   UNL     1      24.674  17.226 -12.030  1.00  0.00     0.021 A 
ATOM     30  C   UNL     1      25.923  17.571 -12.559  1.00  0.00     0.002 A 
ATOM     31  Cl  UNL     1      22.681  17.347 -10.245  1.00  0.00    -0.083 Cl
ENDBRANCH  22  25
ENDBRANCH  17  21
ENDBRANCH   1  15
TORSDOF 6
ENDMDL
MODEL 2
REMARK VINA RESULT:      -8.5      4.390      7.690
REMARK SMILES Cc1ccc(NC(=O)CSc2ccccc2NC(=O)c2ccccc2Cl)cc1Cl
REMARK SMILES IDX 10 1 9 2 7 3 6 4 8 5 5 7 2 8 3 9 28 10 4 11 27 12 1 13 29 14
REMARK SMILES IDX 11 15 12 16 16 17 13 18 15 19 14 20 17 21 18 22 19 23 20 25
REMARK SMILES IDX 21 26 25 27 22 28 24 29 23 30 26 31
REMARK H PARENT 6 6 17 24
ROOT
ATOM      1  S   UNL     1      22.361  19.596  -7.159  1.00  0.00    -0.114 SA
ENDROOT
BRANCH   1   2
ATOM      2  C   UNL     1      21.445  18.194  -7.891  1.00  0.00     0.175 C 
BRANCH   2   3
ATOM      3  C   UNL     1      22.234  17.573  -9.033  1.00  0.00     0.234 C 
ATOM      4  N   UNL     1      23.278  18.373  -9.470  1.00  0.00    -0.325 N 
ATOM      5  O   UNL     1      21.920  16.475  -9.482  1.00  0.00    -0.274 OA
ATOM      6  H   UNL     1      23.432  19.236  -8.965  1.00  0.00     0.169 HD
BRANCH   4   7
ATOM      7  C   UNL     1      24.211  18.096 -10.491  1.00  0.00     0.042 A 
ATOM      8  C   UNL     1      25.974  17.390 -12.585  1.00  0.00    -0.032 A 
ATOM      9  C   UNL     1      24.836  16.613 -12.313  1.00  0.00     0.007 A 
ATOM     10  C   UNL     1      26.205  18.532 -11.805  1.00  0.00     0.046 A 
ATOM     11  C   UNL     1      23.968  16.964 -11.276  1.00  0.00     0.026 A 
ATOM     12  C   UNL     1      25.337  18.876 -10.760  1.00  0.00     0.047 A 
ATOM     13  C   UNL     1      26.872  17.006 -13.729  1.00  0.00     0.046 C 
ATOM     14  Cl  UNL     1      27.554  19.570 -12.109  1.00  0.00    -0.084 Cl
ENDBRANCH   4   7
ENDBRANCH   2   3
ENDBRANCH   1   2
BRANCH   1  15
ATOM     15  C   UNL     1      23.124  18.778  -5.753  1.00  0.00     0.031 A 
ATOM     16  C   UNL     1      22.748  17.462  -5.449  1.00  0.00     0.017 A 
ATOM     17  C   UNL     1      24.099  19.432  -4.966  1.00  0.00     0.055 A 
ATOM     18  C   UNL     1      23.300  16.809  -4.349  1.00  0.00     0.001 A 
ATOM     19  C   UNL     1      24.635  18.764  -3.862  1.00  0.00     0.027 A 
ATOM     20  C   UNL     1      24.232  17.463  -3.551  1.00  0.00     0.002 A 
BRANCH  17  21
ATOM     21  N   UNL     1      24.485  20.744  -5.332  1.00  0.00    -0.321 N 
ATOM     22  C   UNL     1      25.670  21.147  -5.910  1.00  0.00     0.257 C 
ATOM     23  O   UNL     1      26.624  20.450  -6.230  1.00  0.00    -0.269 OA
ATOM     24  H   UNL     1      23.760  21.447  -5.209  1.00  0.00     0.170 HD
BRANCH  22  25
ATOM     25  C   UNL     1      25.718  22.584  -6.259  1.00  0.00     0.058 A 
ATOM     26  C   UNL     1      25.802  23.495  -5.198  1.00  0.00     0.015 A 
ATOM     27  C   UNL     1      25.669  23.043  -7.578  1.00  0.00     0.053 A 
ATOM     28  C   UNL     1      25.861  24.863  -5.453  1.00  0.00     0.001 A 
ATOM     29  C   UNL     1      25.718  24.416  -7.830  1.00  0.00     0.021 A 
ATOM     30  C   UNL     1      25.815  25.323  -6.769  1.00  0.00     0.002 A 
ATOM     31  Cl  UNL     1      25.525  21.979  -8.925  1.00  0.00    -0.083 Cl
ENDBRANCH  22  25
ENDBRANCH  17  21
ENDBRANCH   1  15
TORSDOF 6
ENDMDL
MODEL 3
REMARK VINA RESULT:      -8.2      4.222      7.708
REMARK SMILES Cc1ccc(NC(=O)CSc2ccccc2NC(=O)c2ccccc2Cl)cc1Cl
REMARK SMILES IDX 10 1 9 2 7 3 6 4 8 5 5 7 2 8 3 9 28 10 4 11 27 12 1 13 29 14
REMARK SMILES IDX 11 15 12 16 16 17 13 18 15 19 14 20 17 21 18 22 19 23 20 25
REMARK SMILES IDX 21 26 25 27 22 28 24 29 23 30 26 31
REMARK H PARENT 6 6 17 24
ROOT
ATOM      1  S   UNL     1      22.061  19.435  -7.159  1.00  0.00    -0.114 SA
ENDROOT
BRANCH   1   2
ATOM      2  C   UNL     1      21.287  17.919  -7.823  1.00  0.00     0.175 C 
BRANCH   2   3
ATOM      3  C   UNL     1      22.124  17.337  -8.951  1.00  0.00     0.234 C 
ATOM      4  N   UNL     1      23.103  18.206  -9.406  1.00  0.00    -0.325 N 
ATOM      5  O   UNL     1      21.898  16.208  -9.376  1.00  0.00    -0.274 OA
ATOM      6  H   UNL     1      23.189  19.089  -8.919  1.00  0.00     0.169 HD
BRANCH   4   7
ATOM      7  C   UNL     1      24.057  17.981 -10.419  1.00  0.00     0.042 A 
ATOM      8  C   UNL     1      25.863  17.380 -12.511  1.00  0.00    -0.032 A 
ATOM      9  C   UNL     1      24.723  16.587 -12.297  1.00  0.00     0.007 A 
ATOM     10  C   UNL     1      26.074  18.486 -11.673  1.00  0.00     0.046 A 
ATOM     11  C   UNL     1      23.835  16.886 -11.262  1.00  0.00     0.026 A 
ATOM     12  C   UNL     1      25.184  18.776 -10.630  1.00  0.00     0.047 A 
ATOM     13  C   UNL     1      26.784  17.054 -13.653  1.00  0.00     0.046 C 
ATOM     14  Cl  UNL     1      27.423  19.542 -11.902  1.00  0.00    -0.084 Cl
ENDBRANCH   4   7
ENDBRANCH   2   3
ENDBRANCH   1   2
BRANCH   1  15
ATOM     15  C   UNL     1      22.959  18.748  -5.762  1.00  0.00     0.031 A 
ATOM     16  C   UNL     1      22.578  17.496  -5.262  1.00  0.00     0.017 A 
ATOM     17  C   UNL     1      24.042  19.441  -5.175  1.00  0.00     0.055 A 
ATOM     18  C   UNL     1      23.234  16.947  -4.162  1.00  0.00     0.001 A 
ATOM     19  C   UNL     1      24.684  18.879  -4.069  1.00  0.00     0.027 A 
ATOM     20  C   UNL     1      24.277  17.643  -3.560  1.00  0.00     0.002 A 
BRANCH  17  21
ATOM     21  N   UNL     1      24.426  20.682  -5.738  1.00  0.00    -0.321 N 
ATOM     22  C   UNL     1      25.658  21.037  -6.246  1.00  0.00     0.257 C 
ATOM     23  O   UNL     1      26.665  20.347  -6.320  1.00  0.00    -0.269 OA
ATOM     24  H   UNL     1      23.668  21.355  -5.831  1.00  0.00     0.170 HD
BRANCH  22  25
ATOM     25  C   UNL     1      25.700  22.385  -6.852  1.00  0.00     0.058 A 
ATOM     26  C   UNL     1      25.828  22.454  -8.246  1.00  0.00     0.015 A 
ATOM     27  C   UNL     1      25.632  23.558  -6.093  1.00  0.00     0.053 A 
ATOM     28  C   UNL     1      25.865  23.691  -8.885  1.00  0.00     0.001 A 
ATOM     29  C   UNL     1      25.680  24.796  -6.736  1.00  0.00     0.021 A 
ATOM     30  C   UNL     1      25.795  24.862  -8.129  1.00  0.00     0.002 A 
ATOM     31  Cl  UNL     1      25.516  23.543  -4.375  1.00  0.00    -0.083 Cl
ENDBRANCH  22  25
ENDBRANCH  17  21
ENDBRANCH   1  15
TORSDOF 6
ENDMDL
