MODEL 1
REMARK VINA RESULT:      -7.3      0.000      0.000
REMARK SMILES O=C(OCc1ccc(F)cc1)c1cn(C2CC2)c2ccc(Cc3ccc(F)cc3)cc2c1=O
REMARK SMILES IDX 1 1 2 2 3 3 4 4 5 5 6 6 11 7 7 8 10 9 8 10 9 11 12 12 13 13
REMARK SMILES IDX 32 14 14 15 31 16 33 17 18 18 30 19 19 20 21 21 20 22 15 23
REMARK SMILES IDX 16 24 17 25 22 26 23 27 24 28 29 29 25 30 28 31 26 32 27 33
REMARK H PARENT
ROOT
ATOM      1  O   UNL     1      25.393  21.572  -2.745  1.00  0.00    -0.246 OA
ATOM      2  C   UNL     1      24.589  21.788  -3.638  1.00  0.00     0.343 C 
ENDROOT
BRANCH   2   3
ATOM      3  O   UNL     1      23.239  21.809  -3.479  1.00  0.00    -0.457 OA
BRANCH   3   4
ATOM      4  C   UNL     1      22.705  20.599  -2.937  1.00  0.00     0.269 C 
BRANCH   4   5
ATOM      5  C   UNL     1      22.572  19.615  -4.072  1.00  0.00    -0.010 A 
ATOM      6  C   UNL     1      21.973  20.008  -5.280  1.00  0.00     0.010 A 
ATOM      7  C   UNL     1      23.077  18.311  -3.951  1.00  0.00     0.010 A 
ATOM      8  C   UNL     1      21.867  19.107  -6.341  1.00  0.00     0.039 A 
ATOM      9  C   UNL     1      22.970  17.412  -5.012  1.00  0.00     0.039 A 
ATOM     10  C   UNL     1      22.365  17.818  -6.196  1.00  0.00     0.123 A 
ATOM     11  F   UNL     1      22.265  16.954  -7.215  1.00  0.00    -0.207 F 
ENDBRANCH   4   5
ENDBRANCH   3   4
ENDBRANCH   2   3
BRANCH   2  12
ATOM     12  C   UNL     1      24.942  22.047  -5.049  1.00  0.00     0.124 C 
ATOM     13  C   UNL     1      24.790  23.265  -5.588  1.00  0.00     0.106 C 
ATOM     14  C   UNL     1      25.453  20.983  -5.934  1.00  0.00     0.203 C 
ATOM     15  N   UNL     1      25.046  23.643  -6.904  1.00  0.00    -0.343 N 
ATOM     16  C   UNL     1      25.579  21.296  -7.379  1.00  0.00     0.047 A 
ATOM     17  O   UNL     1      25.784  19.883  -5.507  1.00  0.00    -0.288 OA
ATOM     18  C   UNL     1      25.361  22.612  -7.845  1.00  0.00     0.052 A 
ATOM     19  C   UNL     1      25.911  20.241  -8.250  1.00  0.00     0.018 A 
ATOM     20  C   UNL     1      25.444  22.796  -9.231  1.00  0.00     0.027 A 
ATOM     21  C   UNL     1      26.015  20.460  -9.623  1.00  0.00    -0.043 A 
ATOM     22  C   UNL     1      25.768  21.746 -10.105  1.00  0.00     0.006 A 
BRANCH  15  23
ATOM     23  C   UNL     1      25.025  25.115  -7.145  1.00  0.00     0.087 C 
ATOM     24  C   UNL     1      25.600  26.129  -6.199  1.00  0.00     0.027 C 
ATOM     25  C   UNL     1      24.123  26.128  -6.506  1.00  0.00     0.027 C 
ENDBRANCH  15  23
BRANCH  21  26
ATOM     26  C   UNL     1      26.346  19.327 -10.565  1.00  0.00     0.071 C 
BRANCH  26  27
ATOM     27  C   UNL     1      25.181  18.397 -10.819  1.00  0.00    -0.043 A 
ATOM     28  C   UNL     1      24.054  18.420  -9.981  1.00  0.00     0.007 A 
ATOM     29  C   UNL     1      25.219  17.484 -11.887  1.00  0.00     0.007 A 
ATOM     30  C   UNL     1      22.986  17.550 -10.210  1.00  0.00     0.039 A 
ATOM     31  C   UNL     1      24.151  16.616 -12.114  1.00  0.00     0.039 A 
ATOM     32  C   UNL     1      23.044  16.658 -11.274  1.00  0.00     0.123 A 
ATOM     33  F   UNL     1      22.019  15.823 -11.491  1.00  0.00    -0.207 F 
ENDBRANCH  26  27
ENDBRANCH  21  26
ENDBRANCH   2  12
TORSDOF 7
ENDMDL
MODEL 2
REMARK VINA RESULT:      -7.3      3.003      7.482
REMARK SMILES O=C(OCc1ccc(F)cc1)c1cn(C2CC2)c2ccc(Cc3ccc(F)cc3)cc2c1=O
REMARK SMILES IDX 1 1 2 2 3 3 4 4 5 5 6 6 11 7 7 8 10 9 8 10 9 11 12 12 13 13
REMARK SMILES IDX 32 14 14 15 31 16 33 17 18 18 30 19 19 20 21 21 20 22 15 23
REMARK SMILES IDX 16 24 17 25 22 26 23 27 24 28 29 29 25 30 28 31 26 32 27 33
REMARK H PARENT
ROOT
ATOM      1  O   UNL     1      21.279  17.358  -7.858  1.00  0.00    -0.246 OA
ATOM      2  C   UNL     1      22.242  18.110  -7.855  1.00  0.00     0.343 C 
ENDROOT
BRANCH   2   3
ATOM      3  O   UNL     1      22.911  18.519  -8.965  1.00  0.00    -0.457 OA
BRANCH   3   4
ATOM      4  C   UNL     1      22.716  17.670 -10.098  1.00  0.00     0.269 C 
BRANCH   4   5
ATOM      5  C   UNL     1      24.005  17.656 -10.880  1.00  0.00    -0.010 A 
ATOM      6  C   UNL     1      24.226  16.673 -11.859  1.00  0.00     0.010 A 
ATOM      7  C   UNL     1      24.981  18.643 -10.668  1.00  0.00     0.010 A 
ATOM      8  C   UNL     1      25.408  16.669 -12.600  1.00  0.00     0.039 A 
ATOM      9  C   UNL     1      26.162  18.637 -11.410  1.00  0.00     0.039 A 
ATOM     10  C   UNL     1      26.365  17.650 -12.368  1.00  0.00     0.123 A 
ATOM     11  F   UNL     1      27.500  17.648 -13.081  1.00  0.00    -0.207 F 
ENDBRANCH   4   5
ENDBRANCH   3   4
ENDBRANCH   2   3
BRANCH   2  12
ATOM     12  C   UNL     1      22.854  18.692  -6.643  1.00  0.00     0.124 C 
ATOM     13  C   UNL     1      22.788  18.061  -5.462  1.00  0.00     0.106 C 
ATOM     14  C   UNL     1      23.540  19.998  -6.666  1.00  0.00     0.203 C 
ATOM     15  N   UNL     1      23.285  18.505  -4.240  1.00  0.00    -0.343 N 
ATOM     16  C   UNL     1      23.935  20.588  -5.363  1.00  0.00     0.047 A 
ATOM     17  O   UNL     1      23.800  20.580  -7.714  1.00  0.00    -0.288 OA
ATOM     18  C   UNL     1      23.790  19.843  -4.171  1.00  0.00     0.052 A 
ATOM     19  C   UNL     1      24.443  21.900  -5.366  1.00  0.00     0.018 A 
ATOM     20  C   UNL     1      24.133  20.505  -2.986  1.00  0.00     0.027 A 
ATOM     21  C   UNL     1      24.804  22.525  -4.173  1.00  0.00    -0.043 A 
ATOM     22  C   UNL     1      24.634  21.817  -2.982  1.00  0.00     0.006 A 
BRANCH  15  23
ATOM     23  C   UNL     1      23.289  17.479  -3.158  1.00  0.00     0.087 C 
ATOM     24  C   UNL     1      24.355  16.435  -2.994  1.00  0.00     0.027 C 
ATOM     25  C   UNL     1      22.931  16.028  -3.281  1.00  0.00     0.027 C 
ENDBRANCH  15  23
BRANCH  21  26
ATOM     26  C   UNL     1      25.325  23.942  -4.167  1.00  0.00     0.071 C 
BRANCH  26  27
ATOM     27  C   UNL     1      25.800  24.414  -5.523  1.00  0.00    -0.043 A 
ATOM     28  C   UNL     1      26.994  23.920  -6.072  1.00  0.00     0.007 A 
ATOM     29  C   UNL     1      25.061  25.368  -6.242  1.00  0.00     0.007 A 
ATOM     30  C   UNL     1      27.436  24.368  -7.318  1.00  0.00     0.039 A 
ATOM     31  C   UNL     1      25.505  25.815  -7.487  1.00  0.00     0.039 A 
ATOM     32  C   UNL     1      26.688  25.310  -8.014  1.00  0.00     0.123 A 
ATOM     33  F   UNL     1      27.115  25.740  -9.208  1.00  0.00    -0.207 F 
ENDBRANCH  26  27
ENDBRANCH  21  26
ENDBRANCH   2  12
TORSDOF 7
ENDMDL
MODEL 3
REMARK VINA RESULT:      -7.2      3.572      7.436
REMARK SMILES O=C(OCc1ccc(F)cc1)c1cn(C2CC2)c2ccc(Cc3ccc(F)cc3)cc2c1=O
REMARK SMILES IDX 1 1 2 2 3 3 4 4 5 5 6 6 11 7 7 8 10 9 8 10 9 11 12 12 13 13
REMARK SMILES IDX 32 14 14 15 31 16 33 17 18 18 30 19 19 20 21 21 20 22 15 23
REMARK SMILES IDX 16 24 17 25 22 26 23 27 24 28 29 29 25 30 28 31 26 32 27 33
REMARK H PARENT
ROOT
ATOM      1  O   UNL     1      26.495  19.999  -7.142  1.00  0.00    -0.246 OA
ATOM      2  C   UNL     1      25.340  20.038  -7.538  1.00  0.00     0.343 C 
ENDROOT
BRANCH   2   3
ATOM      3  O   UNL     1      24.902  19.503  -8.708  1.00  0.00    -0.457 OA
BRANCH   3   4
ATOM      4  C   UNL     1      25.598  19.987  -9.857  1.00  0.00     0.269 C 
BRANCH   4   5
ATOM      5  C   UNL     1      25.739  18.836 -10.820  1.00  0.00    -0.010 A 
ATOM      6  C   UNL     1      24.648  17.988 -11.071  1.00  0.00     0.010 A 
ATOM      7  C   UNL     1      26.945  18.620 -11.505  1.00  0.00     0.010 A 
ATOM      8  C   UNL     1      24.767  16.934 -11.978  1.00  0.00     0.039 A 
ATOM      9  C   UNL     1      27.062  17.565 -12.411  1.00  0.00     0.039 A 
ATOM     10  C   UNL     1      25.973  16.732 -12.638  1.00  0.00     0.123 A 
ATOM     11  F   UNL     1      26.087  15.722 -13.511  1.00  0.00    -0.207 F 
ENDBRANCH   4   5
ENDBRANCH   3   4
ENDBRANCH   2   3
BRANCH   2  12
ATOM     12  C   UNL     1      24.223  20.686  -6.820  1.00  0.00     0.124 C 
ATOM     13  C   UNL     1      23.406  19.979  -6.028  1.00  0.00     0.106 C 
ATOM     14  C   UNL     1      23.939  22.127  -6.959  1.00  0.00     0.203 C 
ATOM     15  N   UNL     1      22.300  20.447  -5.324  1.00  0.00    -0.343 N 
ATOM     16  C   UNL     1      22.677  22.637  -6.366  1.00  0.00     0.047 A 
ATOM     17  O   UNL     1      24.712  22.893  -7.522  1.00  0.00    -0.288 OA
ATOM     18  C   UNL     1      21.871  21.790  -5.572  1.00  0.00     0.052 A 
ATOM     19  C   UNL     1      22.322  23.972  -6.632  1.00  0.00     0.018 A 
ATOM     20  C   UNL     1      20.671  22.343  -5.106  1.00  0.00     0.027 A 
ATOM     21  C   UNL     1      21.135  24.505  -6.131  1.00  0.00    -0.043 A 
ATOM     22  C   UNL     1      20.308  23.672  -5.374  1.00  0.00     0.006 A 
BRANCH  15  23
ATOM     23  C   UNL     1      21.739  19.487  -4.330  1.00  0.00     0.087 C 
ATOM     24  C   UNL     1      22.572  18.541  -3.514  1.00  0.00     0.027 C 
ATOM     25  C   UNL     1      21.561  18.007  -4.498  1.00  0.00     0.027 C 
ENDBRANCH  15  23
BRANCH  21  26
ATOM     26  C   UNL     1      20.736  25.929  -6.434  1.00  0.00     0.071 C 
BRANCH  26  27
ATOM     27  C   UNL     1      20.609  26.216  -7.913  1.00  0.00    -0.043 A 
ATOM     28  C   UNL     1      21.427  27.180  -8.525  1.00  0.00     0.007 A 
ATOM     29  C   UNL     1      19.657  25.535  -8.691  1.00  0.00     0.007 A 
ATOM     30  C   UNL     1      21.298  27.453  -9.888  1.00  0.00     0.039 A 
ATOM     31  C   UNL     1      19.530  25.810 -10.053  1.00  0.00     0.039 A 
ATOM     32  C   UNL     1      20.352  26.765 -10.639  1.00  0.00     0.123 A 
ATOM     33  F   UNL     1      20.229  27.029 -11.946  1.00  0.00    -0.207 F 
ENDBRANCH  26  27
ENDBRANCH  21  26
ENDBRANCH   2  12
TORSDOF 7
ENDMDL
