MODEL 1
REMARK VINA RESULT:      -8.3      0.000      0.000
REMARK SMILES CC(=O)[C@@]1(O)CC[C@H]2[C@@H]3C=C(C)C4=CC(=O)CC[C@@H]4[C@H]3CC[C@@]21C
REMARK SMILES IDX 4 1 6 2 7 3 8 4 9 5 10 6 11 7 12 8 13 9 14 10 15 11 16 12
REMARK SMILES IDX 17 13 18 14 19 15 20 16 21 17 22 18 23 19 24 20 2 21 3 22
REMARK SMILES IDX 1 23 5 24
REMARK H PARENT 5 25
ROOT
ATOM      1  C   UNL     1      23.393  18.998  -5.085  1.00  0.00     0.128 C 
ATOM      2  C   UNL     1      21.963  18.414  -5.280  1.00  0.00     0.044 C 
ATOM      3  C   UNL     1      21.775  18.188  -6.794  1.00  0.00     0.008 C 
ATOM      4  C   UNL     1      23.157  18.432  -7.390  1.00  0.00     0.005 C 
ATOM      5  C   UNL     1      23.275  18.742  -8.886  1.00  0.00     0.019 C 
ATOM      6  C   UNL     1      22.587  17.748  -9.797  1.00  0.00    -0.019 C 
ATOM      7  C   UNL     1      23.120  17.274 -10.942  1.00  0.00    -0.051 C 
ATOM      8  C   UNL     1      22.357  16.306 -11.806  1.00  0.00     0.044 C 
ATOM      9  C   UNL     1      24.460  17.711 -11.356  1.00  0.00    -0.038 C 
ATOM     10  C   UNL     1      25.257  16.950 -12.127  1.00  0.00     0.051 C 
ATOM     11  C   UNL     1      26.687  17.293 -12.312  1.00  0.00     0.156 C 
ATOM     12  O   UNL     1      27.371  16.639 -13.094  1.00  0.00    -0.295 OA
ATOM     13  C   UNL     1      27.270  18.374 -11.437  1.00  0.00     0.081 C 
ATOM     14  C   UNL     1      26.272  19.508 -11.301  1.00  0.00     0.017 C 
ATOM     15  C   UNL     1      24.913  19.044 -10.753  1.00  0.00     0.024 C 
ATOM     16  C   UNL     1      24.796  18.879  -9.221  1.00  0.00     0.004 C 
ATOM     17  C   UNL     1      25.457  19.972  -8.363  1.00  0.00     0.005 C 
ATOM     18  C   UNL     1      25.230  19.733  -6.854  1.00  0.00     0.011 C 
ATOM     19  C   UNL     1      23.736  19.569  -6.500  1.00  0.00     0.007 C 
ATOM     20  C   UNL     1      23.028  20.937  -6.713  1.00  0.00     0.015 C 
ENDROOT
BRANCH   1  21
ATOM     21  C   UNL     1      23.419  20.049  -3.945  1.00  0.00     0.161 C 
ATOM     22  O   UNL     1      24.455  20.606  -3.577  1.00  0.00    -0.297 OA
ATOM     23  C   UNL     1      22.117  20.350  -3.248  1.00  0.00     0.091 C 
ENDBRANCH   1  21
BRANCH   1  24
ATOM     24  O   UNL     1      24.223  17.878  -4.759  1.00  0.00    -0.382 OA
ATOM     25  H   UNL     1      23.900  17.089  -5.221  1.00  0.00     0.212 HD
ENDBRANCH   1  24
TORSDOF 2
ENDMDL
MODEL 2
REMARK VINA RESULT:      -7.8     15.610     16.670
REMARK SMILES CC(=O)[C@@]1(O)CC[C@H]2[C@@H]3C=C(C)C4=CC(=O)CC[C@@H]4[C@H]3CC[C@@]21C
REMARK SMILES IDX 4 1 6 2 7 3 8 4 9 5 10 6 11 7 12 8 13 9 14 10 15 11 16 12
REMARK SMILES IDX 17 13 18 14 19 15 20 16 21 17 22 18 23 19 24 20 2 21 3 22
REMARK SMILES IDX 1 23 5 24
REMARK H PARENT 5 25
ROOT
ATOM      1  C   UNL     1      19.137  12.154 -21.406  1.00  0.00     0.128 C 
ATOM      2  C   UNL     1      19.200  10.607 -21.235  1.00  0.00     0.044 C 
ATOM      3  C   UNL     1      20.394  10.114 -22.078  1.00  0.00     0.008 C 
ATOM      4  C   UNL     1      21.104  11.389 -22.517  1.00  0.00     0.005 C 
ATOM      5  C   UNL     1      22.053  11.333 -23.719  1.00  0.00     0.019 C 
ATOM      6  C   UNL     1      23.117  10.258 -23.639  1.00  0.00    -0.019 C 
ATOM      7  C   UNL     1      24.407  10.443 -23.984  1.00  0.00    -0.051 C 
ATOM      8  C   UNL     1      25.397   9.311 -23.900  1.00  0.00     0.044 C 
ATOM      9  C   UNL     1      24.855  11.761 -24.452  1.00  0.00    -0.038 C 
ATOM     10  C   UNL     1      26.124  12.180 -24.311  1.00  0.00     0.051 C 
ATOM     11  C   UNL     1      26.487  13.598 -24.549  1.00  0.00     0.156 C 
ATOM     12  O   UNL     1      27.666  13.938 -24.506  1.00  0.00    -0.295 OA
ATOM     13  C   UNL     1      25.366  14.590 -24.728  1.00  0.00     0.081 C 
ATOM     14  C   UNL     1      24.276  13.974 -25.585  1.00  0.00     0.017 C 
ATOM     15  C   UNL     1      23.741  12.653 -25.010  1.00  0.00     0.024 C 
ATOM     16  C   UNL     1      22.679  12.755 -23.893  1.00  0.00     0.004 C 
ATOM     17  C   UNL     1      21.586  13.822 -24.084  1.00  0.00     0.005 C 
ATOM     18  C   UNL     1      20.552  13.796 -22.937  1.00  0.00     0.011 C 
ATOM     19  C   UNL     1      19.938  12.396 -22.727  1.00  0.00     0.007 C 
ATOM     20  C   UNL     1      19.050  12.058 -23.960  1.00  0.00     0.015 C 
ENDROOT
BRANCH   1  21
ATOM     21  C   UNL     1      17.671  12.655 -21.442  1.00  0.00     0.161 C 
ATOM     22  O   UNL     1      17.376  13.841 -21.604  1.00  0.00    -0.297 OA
ATOM     23  C   UNL     1      16.582  11.635 -21.223  1.00  0.00     0.091 C 
ENDBRANCH   1  21
BRANCH   1  24
ATOM     24  O   UNL     1      19.828  12.692 -20.272  1.00  0.00    -0.382 OA
ATOM     25  H   UNL     1      20.267  11.975 -19.788  1.00  0.00     0.212 HD
ENDBRANCH   1  24
TORSDOF 2
ENDMDL
MODEL 3
REMARK VINA RESULT:      -6.9     10.252     12.990
REMARK SMILES CC(=O)[C@@]1(O)CC[C@H]2[C@@H]3C=C(C)C4=CC(=O)CC[C@@H]4[C@H]3CC[C@@]21C
REMARK SMILES IDX 4 1 6 2 7 3 8 4 9 5 10 6 11 7 12 8 13 9 14 10 15 11 16 12
REMARK SMILES IDX 17 13 18 14 19 15 20 16 21 17 22 18 23 19 24 20 2 21 3 22
REMARK SMILES IDX 1 23 5 24
REMARK H PARENT 5 25
ROOT
ATOM      1  C   UNL     1      33.624  22.880 -11.697  1.00  0.00     0.128 C 
ATOM      2  C   UNL     1      35.044  23.448 -11.404  1.00  0.00     0.044 C 
ATOM      3  C   UNL     1      34.902  24.980 -11.313  1.00  0.00     0.008 C 
ATOM      4  C   UNL     1      33.397  25.225 -11.330  1.00  0.00     0.005 C 
ATOM      5  C   UNL     1      32.877  26.617 -11.707  1.00  0.00     0.019 C 
ATOM      6  C   UNL     1      33.485  27.757 -10.918  1.00  0.00    -0.019 C 
ATOM      7  C   UNL     1      32.782  28.797 -10.426  1.00  0.00    -0.051 C 
ATOM      8  C   UNL     1      33.470  29.906  -9.674  1.00  0.00     0.044 C 
ATOM      9  C   UNL     1      31.329  28.855 -10.629  1.00  0.00    -0.038 C 
ATOM     10  C   UNL     1      30.511  29.505  -9.783  1.00  0.00     0.051 C 
ATOM     11  C   UNL     1      29.041  29.330  -9.862  1.00  0.00     0.156 C 
ATOM     12  O   UNL     1      28.310  30.005  -9.143  1.00  0.00    -0.295 OA
ATOM     13  C   UNL     1      28.510  28.240 -10.759  1.00  0.00     0.081 C 
ATOM     14  C   UNL     1      29.308  28.211 -12.049  1.00  0.00     0.017 C 
ATOM     15  C   UNL     1      30.816  28.030 -11.813  1.00  0.00     0.024 C 
ATOM     16  C   UNL     1      31.319  26.589 -11.577  1.00  0.00     0.004 C 
ATOM     17  C   UNL     1      30.708  25.496 -12.471  1.00  0.00     0.005 C 
ATOM     18  C   UNL     1      31.323  24.109 -12.185  1.00  0.00     0.011 C 
ATOM     19  C   UNL     1      32.864  24.115 -12.281  1.00  0.00     0.007 C 
ATOM     20  C   UNL     1      33.263  24.336 -13.768  1.00  0.00     0.015 C 
ENDROOT
BRANCH   1  21
ATOM     21  C   UNL     1      33.694  21.659 -12.650  1.00  0.00     0.161 C 
ATOM     22  O   UNL     1      32.706  20.980 -12.936  1.00  0.00    -0.297 OA
ATOM     23  C   UNL     1      35.046  21.284 -13.201  1.00  0.00     0.091 C 
ENDBRANCH   1  21
BRANCH   1  24
ATOM     24  O   UNL     1      33.095  22.496 -10.423  1.00  0.00    -0.382 OA
ATOM     25  H   UNL     1      32.221  22.899 -10.299  1.00  0.00     0.212 HD
ENDBRANCH   1  24
TORSDOF 2
ENDMDL
