MODEL 1
REMARK VINA RESULT:      -6.8      0.000      0.000
REMARK SMILES CCOc1cc(CC(=O)N[C@@H](CC(C)C)c2ccccc2N2CCCCC2)ccc1C(=O)O
REMARK SMILES IDX 8 1 9 2 10 3 7 5 6 6 4 7 5 8 30 9 29 10 28 11 3 12 2 13 1 14
REMARK SMILES IDX 31 15 32 16 33 17 11 19 12 20 13 21 14 22 15 23 16 24 17 25
REMARK SMILES IDX 21 26 18 27 20 28 19 29 22 30 23 31 27 32 24 33 26 34 25 35
REMARK H PARENT 10 4 33 18
ROOT
ATOM      1  C   UNL     1      21.691  17.702  -7.904  1.00  0.00     0.224 C 
ATOM      2  O   UNL     1      20.766  17.231  -7.252  1.00  0.00    -0.275 OA
ATOM      3  N   UNL     1      22.768  18.374  -7.357  1.00  0.00    -0.349 N 
ATOM      4  H   UNL     1      23.590  18.463  -7.941  1.00  0.00     0.164 HD
ENDROOT
BRANCH   1   5
ATOM      5  C   UNL     1      21.772  17.594  -9.420  1.00  0.00     0.135 C 
BRANCH   5   6
ATOM      6  C   UNL     1      23.125  17.945  -9.993  1.00  0.00    -0.035 A 
ATOM      7  C   UNL     1      25.147  19.325  -9.951  1.00  0.00     0.134 A 
ATOM      8  C   UNL     1      23.878  19.002  -9.450  1.00  0.00     0.051 A 
ATOM      9  C   UNL     1      25.659  18.582 -11.030  1.00  0.00     0.101 A 
ATOM     10  C   UNL     1      24.905  17.533 -11.582  1.00  0.00     0.020 A 
ATOM     11  C   UNL     1      23.649  17.216 -11.066  1.00  0.00     0.005 A 
BRANCH   7  12
ATOM     12  O   UNL     1      25.907  20.366  -9.493  1.00  0.00    -0.493 OA
BRANCH  12  13
ATOM     13  C   UNL     1      25.270  21.482  -8.878  1.00  0.00     0.226 C 
ATOM     14  C   UNL     1      25.818  22.776  -9.451  1.00  0.00     0.049 C 
ENDBRANCH  12  13
ENDBRANCH   7  12
BRANCH   9  15
ATOM     15  C   UNL     1      27.011  18.866 -11.576  1.00  0.00     0.339 C 
ATOM     16  O   UNL     1      27.953  18.105 -11.685  1.00  0.00    -0.246 OA
BRANCH  15  17
ATOM     17  O   UNL     1      27.121  20.148 -11.984  1.00  0.00    -0.478 OA
ATOM     18  H   UNL     1      27.185  20.646 -11.142  1.00  0.00     0.297 HD
ENDBRANCH  15  17
ENDBRANCH   9  15
ENDBRANCH   5   6
ENDBRANCH   1   5
BRANCH   3  19
ATOM     19  C   UNL     1      23.076  18.452  -5.932  1.00  0.00     0.114 C 
BRANCH  19  20
ATOM     20  C   UNL     1      23.601  17.152  -5.271  1.00  0.00     0.033 C 
BRANCH  20  21
ATOM     21  C   UNL     1      23.061  16.881  -3.849  1.00  0.00    -0.015 C 
ATOM     22  C   UNL     1      21.777  17.690  -3.630  1.00  0.00     0.007 C 
ATOM     23  C   UNL     1      24.063  17.215  -2.745  1.00  0.00     0.007 C 
ENDBRANCH  20  21
ENDBRANCH  19  20
BRANCH  19  24
ATOM     24  C   UNL     1      23.944  19.682  -5.662  1.00  0.00    -0.002 A 
ATOM     25  C   UNL     1      25.349  19.558  -5.714  1.00  0.00     0.008 A 
ATOM     26  C   UNL     1      23.370  20.961  -5.449  1.00  0.00     0.042 A 
ATOM     27  C   UNL     1      26.180  20.662  -5.546  1.00  0.00     0.001 A 
ATOM     28  C   UNL     1      24.234  22.057  -5.290  1.00  0.00     0.026 A 
ATOM     29  C   UNL     1      25.622  21.912  -5.333  1.00  0.00     0.002 A 
BRANCH  26  30
ATOM     30  N   UNL     1      21.978  21.112  -5.381  1.00  0.00    -0.371 N 
ATOM     31  C   UNL     1      21.459  21.458  -4.047  1.00  0.00     0.116 C 
ATOM     32  C   UNL     1      21.256  21.673  -6.529  1.00  0.00     0.116 C 
ATOM     33  C   UNL     1      21.250  22.962  -3.902  1.00  0.00     0.021 C 
ATOM     34  C   UNL     1      20.937  23.161  -6.381  1.00  0.00     0.021 C 
ATOM     35  C   UNL     1      20.352  23.494  -5.013  1.00  0.00     0.004 C 
ENDBRANCH  26  30
ENDBRANCH  19  24
ENDBRANCH   3  19
TORSDOF 11
ENDMDL
MODEL 2
REMARK VINA RESULT:      -6.6      0.918      1.062
REMARK SMILES CCOc1cc(CC(=O)N[C@@H](CC(C)C)c2ccccc2N2CCCCC2)ccc1C(=O)O
REMARK SMILES IDX 8 1 9 2 10 3 7 5 6 6 4 7 5 8 30 9 29 10 28 11 3 12 2 13 1 14
REMARK SMILES IDX 31 15 32 16 33 17 11 19 12 20 13 21 14 22 15 23 16 24 17 25
REMARK SMILES IDX 21 26 18 27 20 28 19 29 22 30 23 31 27 32 24 33 26 34 25 35
REMARK H PARENT 10 4 33 18
ROOT
ATOM      1  C   UNL     1      22.017  17.638  -7.471  1.00  0.00     0.224 C 
ATOM      2  O   UNL     1      21.934  16.590  -6.841  1.00  0.00    -0.275 OA
ATOM      3  N   UNL     1      22.458  18.835  -6.941  1.00  0.00    -0.349 N 
ATOM      4  H   UNL     1      22.751  19.543  -7.602  1.00  0.00     0.164 HD
ENDROOT
BRANCH   1   5
ATOM      5  C   UNL     1      21.645  17.747  -8.943  1.00  0.00     0.135 C 
BRANCH   5   6
ATOM      6  C   UNL     1      22.831  17.798  -9.878  1.00  0.00    -0.035 A 
ATOM      7  C   UNL     1      24.982  18.779 -10.514  1.00  0.00     0.134 A 
ATOM      8  C   UNL     1      23.861  18.734  -9.673  1.00  0.00     0.051 A 
ATOM      9  C   UNL     1      25.059  17.878 -11.590  1.00  0.00     0.101 A 
ATOM     10  C   UNL     1      24.027  16.949 -11.805  1.00  0.00     0.020 A 
ATOM     11  C   UNL     1      22.924  16.909 -10.953  1.00  0.00     0.005 A 
BRANCH   7  12
ATOM     12  O   UNL     1      25.993  19.693 -10.390  1.00  0.00    -0.493 OA
BRANCH  12  13
ATOM     13  C   UNL     1      26.059  20.514  -9.228  1.00  0.00     0.226 C 
ATOM     14  C   UNL     1      25.662  21.938  -9.572  1.00  0.00     0.049 C 
ENDBRANCH  12  13
ENDBRANCH   7  12
BRANCH   9  15
ATOM     15  C   UNL     1      26.241  17.867 -12.491  1.00  0.00     0.339 C 
ATOM     16  O   UNL     1      27.023  16.958 -12.694  1.00  0.00    -0.246 OA
BRANCH  15  17
ATOM     17  O   UNL     1      26.390  19.047 -13.128  1.00  0.00    -0.478 OA
ATOM     18  H   UNL     1      25.893  19.672 -12.559  1.00  0.00     0.297 HD
ENDBRANCH  15  17
ENDBRANCH   9  15
ENDBRANCH   5   6
ENDBRANCH   1   5
BRANCH   3  19
ATOM     19  C   UNL     1      23.077  18.997  -5.629  1.00  0.00     0.114 C 
BRANCH  19  20
ATOM     20  C   UNL     1      23.857  17.774  -5.083  1.00  0.00     0.033 C 
BRANCH  20  21
ATOM     21  C   UNL     1      23.623  17.468  -3.587  1.00  0.00    -0.015 C 
ATOM     22  C   UNL     1      24.673  18.205  -2.746  1.00  0.00     0.007 C 
ATOM     23  C   UNL     1      23.668  15.977  -3.257  1.00  0.00     0.007 C 
ENDBRANCH  20  21
ENDBRANCH  19  20
BRANCH  19  24
ATOM     24  C   UNL     1      23.868  20.306  -5.593  1.00  0.00    -0.002 A 
ATOM     25  C   UNL     1      25.274  20.264  -5.708  1.00  0.00     0.008 A 
ATOM     26  C   UNL     1      23.215  21.564  -5.537  1.00  0.00     0.042 A 
ATOM     27  C   UNL     1      26.032  21.431  -5.753  1.00  0.00     0.001 A 
ATOM     28  C   UNL     1      24.006  22.724  -5.592  1.00  0.00     0.026 A 
ATOM     29  C   UNL     1      25.397  22.662  -5.694  1.00  0.00     0.002 A 
BRANCH  26  30
ATOM     30  N   UNL     1      21.821  21.635  -5.411  1.00  0.00    -0.371 N 
ATOM     31  C   UNL     1      21.334  21.844  -4.038  1.00  0.00     0.116 C 
ATOM     32  C   UNL     1      21.030  22.248  -6.485  1.00  0.00     0.116 C 
ATOM     33  C   UNL     1      21.056  23.318  -3.762  1.00  0.00     0.021 C 
ATOM     34  C   UNL     1      20.642  23.700  -6.205  1.00  0.00     0.021 C 
ATOM     35  C   UNL     1      20.092  23.890  -4.796  1.00  0.00     0.004 C 
ENDBRANCH  26  30
ENDBRANCH  19  24
ENDBRANCH   3  19
TORSDOF 11
ENDMDL
MODEL 3
REMARK VINA RESULT:      -6.6      3.315      5.277
REMARK SMILES CCOc1cc(CC(=O)N[C@@H](CC(C)C)c2ccccc2N2CCCCC2)ccc1C(=O)O
REMARK SMILES IDX 8 1 9 2 10 3 7 5 6 6 4 7 5 8 30 9 29 10 28 11 3 12 2 13 1 14
REMARK SMILES IDX 31 15 32 16 33 17 11 19 12 20 13 21 14 22 15 23 16 24 17 25
REMARK SMILES IDX 21 26 18 27 20 28 19 29 22 30 23 31 27 32 24 33 26 34 25 35
REMARK H PARENT 10 4 33 18
ROOT
ATOM      1  C   UNL     1      25.311  22.055  -7.756  1.00  0.00     0.224 C 
ATOM      2  O   UNL     1      25.367  22.830  -8.703  1.00  0.00    -0.275 OA
ATOM      3  N   UNL     1      24.725  22.349  -6.539  1.00  0.00    -0.349 N 
ATOM      4  H   UNL     1      24.486  21.563  -5.949  1.00  0.00     0.164 HD
ENDROOT
BRANCH   1   5
ATOM      5  C   UNL     1      25.882  20.645  -7.808  1.00  0.00     0.135 C 
BRANCH   5   6
ATOM      6  C   UNL     1      25.180  19.729  -8.783  1.00  0.00    -0.035 A 
ATOM      7  C   UNL     1      25.134  18.575 -10.941  1.00  0.00     0.134 A 
ATOM      8  C   UNL     1      25.757  19.443 -10.034  1.00  0.00     0.051 A 
ATOM      9  C   UNL     1      23.900  17.999 -10.591  1.00  0.00     0.101 A 
ATOM     10  C   UNL     1      23.315  18.292  -9.348  1.00  0.00     0.020 A 
ATOM     11  C   UNL     1      23.952  19.149  -8.451  1.00  0.00     0.005 A 
BRANCH   7  12
ATOM     12  O   UNL     1      25.624  18.291 -12.187  1.00  0.00    -0.493 OA
BRANCH  12  13
ATOM     13  C   UNL     1      26.806  17.506 -12.313  1.00  0.00     0.226 C 
ATOM     14  C   UNL     1      26.533  16.287 -13.174  1.00  0.00     0.049 C 
ENDBRANCH  12  13
ENDBRANCH   7  12
BRANCH   9  15
ATOM     15  C   UNL     1      23.215  17.050 -11.506  1.00  0.00     0.339 C 
ATOM     16  O   UNL     1      22.742  15.961 -11.243  1.00  0.00    -0.246 OA
BRANCH  15  17
ATOM     17  O   UNL     1      23.147  17.535 -12.764  1.00  0.00    -0.478 OA
ATOM     18  H   UNL     1      23.600  16.846 -13.294  1.00  0.00     0.297 HD
ENDBRANCH  15  17
ENDBRANCH   9  15
ENDBRANCH   5   6
ENDBRANCH   1   5
BRANCH   3  19
ATOM     19  C   UNL     1      23.915  23.532  -6.261  1.00  0.00     0.114 C 
BRANCH  19  20
ATOM     20  C   UNL     1      22.416  23.280  -5.957  1.00  0.00     0.033 C 
BRANCH  20  21
ATOM     21  C   UNL     1      22.087  21.866  -5.431  1.00  0.00    -0.015 C 
ATOM     22  C   UNL     1      21.459  21.036  -6.557  1.00  0.00     0.007 C 
ATOM     23  C   UNL     1      21.150  21.869  -4.224  1.00  0.00     0.007 C 
ENDBRANCH  20  21
ENDBRANCH  19  20
BRANCH  19  24
ATOM     24  C   UNL     1      24.622  24.404  -5.222  1.00  0.00    -0.002 A 
ATOM     25  C   UNL     1      24.803  23.907  -3.914  1.00  0.00     0.008 A 
ATOM     26  C   UNL     1      25.178  25.662  -5.568  1.00  0.00     0.042 A 
ATOM     27  C   UNL     1      25.502  24.633  -2.953  1.00  0.00     0.001 A 
ATOM     28  C   UNL     1      25.885  26.368  -4.579  1.00  0.00     0.026 A 
ATOM     29  C   UNL     1      26.043  25.865  -3.287  1.00  0.00     0.002 A 
BRANCH  26  30
ATOM     30  N   UNL     1      25.005  26.186  -6.856  1.00  0.00    -0.371 N 
ATOM     31  C   UNL     1      23.751  26.930  -7.057  1.00  0.00     0.116 C 
ATOM     32  C   UNL     1      26.173  26.661  -7.606  1.00  0.00     0.116 C 
ATOM     33  C   UNL     1      23.959  28.431  -6.884  1.00  0.00     0.021 C 
ATOM     34  C   UNL     1      26.364  28.176  -7.542  1.00  0.00     0.021 C 
ATOM     35  C   UNL     1      25.067  28.933  -7.804  1.00  0.00     0.004 C 
ENDBRANCH  26  30
ENDBRANCH  19  24
ENDBRANCH   3  19
TORSDOF 11
ENDMDL
