MODEL 1
REMARK VINA RESULT:      -7.3      0.000      0.000
REMARK SMILES O=C(NCc1ccc(-c2ccc(Cl)cc2)cc1F)N1CCNCC1
REMARK SMILES IDX 5 1 6 2 7 3 8 4 16 5 17 6 18 7 4 8 3 9 1 10 2 11 19 12 20 13
REMARK SMILES IDX 24 14 21 15 23 16 22 17 9 20 10 21 15 22 11 23 14 24 12 25
REMARK SMILES IDX 13 26
REMARK H PARENT 3 18 22 19
ROOT
ATOM      1  C   UNL     1      24.751  21.808  -7.410  1.00  0.00     0.007 A 
ATOM      2  C   UNL     1      25.455  22.168  -8.565  1.00  0.00     0.009 A 
ATOM      3  C   UNL     1      25.715  21.221  -9.562  1.00  0.00     0.009 A 
ATOM      4  C   UNL     1      25.274  19.892  -9.437  1.00  0.00    -0.015 A 
ATOM      5  C   UNL     1      24.562  19.543  -8.280  1.00  0.00     0.048 A 
ATOM      6  C   UNL     1      24.307  20.491  -7.290  1.00  0.00     0.128 A 
ATOM      7  F   UNL     1      23.613  20.116  -6.206  1.00  0.00    -0.207 F 
ENDROOT
BRANCH   1   8
ATOM      8  C   UNL     1      24.459  22.822  -6.342  1.00  0.00     0.156 C 
BRANCH   8   9
ATOM      9  N   UNL     1      23.699  23.929  -6.879  1.00  0.00    -0.334 N 
ATOM     10  O   UNL     1      21.727  22.841  -6.540  1.00  0.00    -0.249 OA
ATOM     11  C   UNL     1      22.334  23.823  -6.958  1.00  0.00     0.317 C 
ATOM     12  N   UNL     1      21.705  24.912  -7.548  1.00  0.00    -0.322 N 
ATOM     13  C   UNL     1      22.275  26.266  -7.504  1.00  0.00     0.136 C 
ATOM     14  C   UNL     1      20.242  24.861  -7.599  1.00  0.00     0.136 C 
ATOM     15  C   UNL     1      21.614  27.220  -8.515  1.00  0.00     0.102 C 
ATOM     16  C   UNL     1      19.648  25.853  -8.613  1.00  0.00     0.102 C 
ATOM     17  N   UNL     1      20.143  27.230  -8.431  1.00  0.00    -0.313 NA
ATOM     18  H   UNL     1      24.107  24.360  -7.695  1.00  0.00     0.165 HD
ATOM     19  H   UNL     1      19.875  27.546  -7.498  1.00  0.00     0.122 HD
ENDBRANCH   8   9
ENDBRANCH   1   8
BRANCH   4  20
ATOM     20  C   UNL     1      25.549  18.899 -10.487  1.00  0.00    -0.018 A 
ATOM     21  C   UNL     1      24.552  18.005 -10.917  1.00  0.00     0.010 A 
ATOM     22  C   UNL     1      26.816  18.816 -11.094  1.00  0.00     0.010 A 
ATOM     23  C   UNL     1      24.811  17.060 -11.916  1.00  0.00     0.021 A 
ATOM     24  C   UNL     1      27.078  17.872 -12.092  1.00  0.00     0.021 A 
ATOM     25  C   UNL     1      26.073  16.998 -12.499  1.00  0.00     0.041 A 
ATOM     26  Cl  UNL     1      26.394  15.838 -13.726  1.00  0.00    -0.084 Cl
ENDBRANCH   4  20
TORSDOF 3
ENDMDL
MODEL 2
REMARK VINA RESULT:      -7.3      0.988      1.392
REMARK SMILES O=C(NCc1ccc(-c2ccc(Cl)cc2)cc1F)N1CCNCC1
REMARK SMILES IDX 5 1 6 2 7 3 8 4 16 5 17 6 18 7 4 8 3 9 1 10 2 11 19 12 20 13
REMARK SMILES IDX 24 14 21 15 23 16 22 17 9 20 10 21 15 22 11 23 14 24 12 25
REMARK SMILES IDX 13 26
REMARK H PARENT 3 18 22 19
ROOT
ATOM      1  C   UNL     1      24.792  21.838  -7.506  1.00  0.00     0.007 A 
ATOM      2  C   UNL     1      24.325  20.526  -7.361  1.00  0.00     0.009 A 
ATOM      3  C   UNL     1      24.580  19.569  -8.349  1.00  0.00     0.009 A 
ATOM      4  C   UNL     1      25.312  19.892  -9.505  1.00  0.00    -0.015 A 
ATOM      5  C   UNL     1      25.783  21.207  -9.636  1.00  0.00     0.048 A 
ATOM      6  C   UNL     1      25.524  22.157  -8.648  1.00  0.00     0.128 A 
ATOM      7  F   UNL     1      26.003  23.398  -8.811  1.00  0.00    -0.207 F 
ENDROOT
BRANCH   1   8
ATOM      8  C   UNL     1      24.531  22.866  -6.443  1.00  0.00     0.156 C 
BRANCH   8   9
ATOM      9  N   UNL     1      23.731  23.953  -6.966  1.00  0.00    -0.334 N 
ATOM     10  O   UNL     1      21.792  22.854  -6.501  1.00  0.00    -0.249 OA
ATOM     11  C   UNL     1      22.366  23.832  -6.973  1.00  0.00     0.317 C 
ATOM     12  N   UNL     1      21.696  24.900  -7.554  1.00  0.00    -0.322 N 
ATOM     13  C   UNL     1      22.252  26.260  -7.571  1.00  0.00     0.136 C 
ATOM     14  C   UNL     1      20.233  24.834  -7.528  1.00  0.00     0.136 C 
ATOM     15  C   UNL     1      21.529  27.183  -8.568  1.00  0.00     0.102 C 
ATOM     16  C   UNL     1      19.577  25.796  -8.533  1.00  0.00     0.102 C 
ATOM     17  N   UNL     1      20.065  27.182  -8.409  1.00  0.00    -0.313 NA
ATOM     18  H   UNL     1      24.093  24.368  -7.811  1.00  0.00     0.165 HD
ATOM     19  H   UNL     1      19.841  27.516  -7.471  1.00  0.00     0.122 HD
ENDBRANCH   8   9
ENDBRANCH   1   8
BRANCH   4  20
ATOM     20  C   UNL     1      25.579  18.883 -10.542  1.00  0.00    -0.018 A 
ATOM     21  C   UNL     1      24.575  17.989 -10.957  1.00  0.00     0.010 A 
ATOM     22  C   UNL     1      26.843  18.784 -11.150  1.00  0.00     0.010 A 
ATOM     23  C   UNL     1      24.826  17.030 -11.944  1.00  0.00     0.021 A 
ATOM     24  C   UNL     1      27.097  17.825 -12.136  1.00  0.00     0.021 A 
ATOM     25  C   UNL     1      26.086  16.952 -12.528  1.00  0.00     0.041 A 
ATOM     26  Cl  UNL     1      26.397  15.772 -13.740  1.00  0.00    -0.084 Cl
ENDBRANCH   4  20
TORSDOF 3
ENDMDL
MODEL 3
REMARK VINA RESULT:      -7.2      1.508      2.262
REMARK SMILES O=C(NCc1ccc(-c2ccc(Cl)cc2)cc1F)N1CCNCC1
REMARK SMILES IDX 5 1 6 2 7 3 8 4 16 5 17 6 18 7 4 8 3 9 1 10 2 11 19 12 20 13
REMARK SMILES IDX 24 14 21 15 23 16 22 17 9 20 10 21 15 22 11 23 14 24 12 25
REMARK SMILES IDX 13 26
REMARK H PARENT 3 18 22 19
ROOT
ATOM      1  C   UNL     1      24.888  21.919  -7.550  1.00  0.00     0.007 A 
ATOM      2  C   UNL     1      24.485  20.594  -7.347  1.00  0.00     0.009 A 
ATOM      3  C   UNL     1      24.723  19.621  -8.325  1.00  0.00     0.009 A 
ATOM      4  C   UNL     1      25.373  19.944  -9.529  1.00  0.00    -0.015 A 
ATOM      5  C   UNL     1      25.781  21.272  -9.719  1.00  0.00     0.048 A 
ATOM      6  C   UNL     1      25.540  22.236  -8.741  1.00  0.00     0.128 A 
ATOM      7  F   UNL     1      25.956  23.491  -8.962  1.00  0.00    -0.207 F 
ENDROOT
BRANCH   1   8
ATOM      8  C   UNL     1      24.646  22.963  -6.500  1.00  0.00     0.156 C 
BRANCH   8   9
ATOM      9  N   UNL     1      23.531  23.811  -6.865  1.00  0.00    -0.334 N 
ATOM     10  O   UNL     1      24.863  25.656  -6.953  1.00  0.00    -0.249 OA
ATOM     11  C   UNL     1      23.746  25.153  -7.042  1.00  0.00     0.317 C 
ATOM     12  N   UNL     1      22.601  25.886  -7.326  1.00  0.00    -0.322 N 
ATOM     13  C   UNL     1      21.438  25.296  -8.001  1.00  0.00     0.136 C 
ATOM     14  C   UNL     1      22.799  27.316  -7.578  1.00  0.00     0.136 C 
ATOM     15  C   UNL     1      20.177  26.169  -7.881  1.00  0.00     0.102 C 
ATOM     16  C   UNL     1      21.496  28.125  -7.462  1.00  0.00     0.102 C 
ATOM     17  N   UNL     1      20.398  27.571  -8.277  1.00  0.00    -0.313 NA
ATOM     18  H   UNL     1      22.675  23.611  -6.371  1.00  0.00     0.165 HD
ATOM     19  H   UNL     1      20.686  27.589  -9.256  1.00  0.00     0.122 HD
ENDBRANCH   8   9
ENDBRANCH   1   8
BRANCH   4  20
ATOM     20  C   UNL     1      25.622  18.919 -10.556  1.00  0.00    -0.018 A 
ATOM     21  C   UNL     1      26.882  18.798 -11.168  1.00  0.00     0.010 A 
ATOM     22  C   UNL     1      24.607  18.029 -10.953  1.00  0.00     0.010 A 
ATOM     23  C   UNL     1      27.121  17.824 -12.143  1.00  0.00     0.021 A 
ATOM     24  C   UNL     1      24.843  17.055 -11.929  1.00  0.00     0.021 A 
ATOM     25  C   UNL     1      26.100  16.958 -12.520  1.00  0.00     0.041 A 
ATOM     26  Cl  UNL     1      26.391  15.760 -13.719  1.00  0.00    -0.084 Cl
ENDBRANCH   4  20
TORSDOF 3
ENDMDL
