REMARK SMILES Nc1nc(N)nc(NCCCCNC(=[NH2+])c2ccc(C(=[NH2+])NCCCCNc3[nH+]c(N)nc(N)[nH+]3)cc2)n1
REMARK SMILES IDX 16 1 17 2 18 3 19 4 36 5 37 6 14 7 13 8 15 9 12 13 11 14
REMARK SMILES IDX 10 15 9 16 8 17 7 19 2 20 3 21 38 22 4 23 6 24 1 25 5 28
REMARK SMILES IDX 20 31 21 32 22 33 23 37 24 38 25 39 26 40 27 41 28 43 29 44
REMARK SMILES IDX 35 45 30 46 33 47 32 48 31 51 34 54
REMARK H PARENT 13 10 15 11 15 12 8 18 1 26 1 27 5 29 5 30 21 34 21 35 22 36
REMARK H PARENT 27 42 29 49 35 50 31 52 31 53 34 55 34 56
ROOT
ATOM      1  C   UNL     1       0.562   0.421  -4.141  1.00  0.00     0.063 A 
ATOM      2  C   UNL     1      -0.750  -0.068  -4.033  1.00  0.00     0.017 A 
ATOM      3  C   UNL     1      -1.689   0.547  -3.179  1.00  0.00     0.017 A 
ATOM      4  C   UNL     1      -1.336   1.668  -2.408  1.00  0.00     0.063 A 
ATOM      5  C   UNL     1      -0.021   2.146  -2.498  1.00  0.00     0.017 A 
ATOM      6  C   UNL     1       0.911   1.529  -3.353  1.00  0.00     0.017 A 
ENDROOT
BRANCH   1   7
ATOM      7  C   UNL     1       1.558  -0.186  -5.062  1.00  0.00     0.272 C 
ATOM      8  N   UNL     1       2.756  -0.477  -4.586  1.00  0.00    -0.274 N 
ATOM      9  N   UNL     1       1.220  -0.371  -6.322  1.00  0.00    -0.287 N 
ATOM     10  H   UNL     1       2.894  -0.389  -3.581  1.00  0.00     0.305 HD
ATOM     11  H   UNL     1       1.858  -0.776  -6.996  1.00  0.00     0.302 HD
ATOM     12  H   UNL     1       0.303  -0.103  -6.666  1.00  0.00     0.302 HD
BRANCH   8  13
ATOM     13  C   UNL     1       3.937  -0.968  -5.327  1.00  0.00     0.234 C 
BRANCH  13  14
ATOM     14  C   UNL     1       3.980  -2.496  -5.254  1.00  0.00     0.048 C 
BRANCH  14  15
ATOM     15  C   UNL     1       5.237  -3.076  -5.905  1.00  0.00     0.025 C 
BRANCH  15  16
ATOM     16  C   UNL     1       6.529  -2.847  -5.106  1.00  0.00     0.116 C 
BRANCH  16  17
ATOM     17  N   UNL     1       6.864  -3.991  -4.291  1.00  0.00    -0.354 N 
ATOM     18  H   UNL     1       7.066  -4.860  -4.783  1.00  0.00     0.163 HD
BRANCH  17  19
ATOM     19  C   UNL     1       6.142  -4.281  -3.155  1.00  0.00     0.229 A 
ATOM     20  C   UNL     1       5.329  -5.860  -1.794  1.00  0.00     0.226 A 
ATOM     21  N   UNL     1       4.826  -4.968  -0.953  1.00  0.00    -0.177 NA
ATOM     22  N   UNL     1       6.014  -5.567  -2.884  1.00  0.00    -0.177 NA
ATOM     23  C   UNL     1       5.007  -3.715  -1.321  1.00  0.00     0.226 A 
ATOM     24  N   UNL     1       5.630  -3.306  -2.415  1.00  0.00    -0.177 NA
BRANCH  20  25
ATOM     25  N   UNL     1       5.111  -7.197  -1.527  1.00  0.00    -0.368 N 
ATOM     26  H   UNL     1       5.832  -7.779  -1.925  1.00  0.00     0.159 HD
ATOM     27  H   UNL     1       4.874  -7.360  -0.559  1.00  0.00     0.159 HD
ENDBRANCH  20  25
BRANCH  23  28
ATOM     28  N   UNL     1       4.555  -2.734  -0.438  1.00  0.00    -0.368 N 
ATOM     29  H   UNL     1       5.184  -1.946  -0.529  1.00  0.00     0.159 HD
ATOM     30  H   UNL     1       4.533  -3.172   0.482  1.00  0.00     0.159 HD
ENDBRANCH  23  28
ENDBRANCH  17  19
ENDBRANCH  16  17
ENDBRANCH  15  16
ENDBRANCH  14  15
ENDBRANCH  13  14
ENDBRANCH   8  13
ENDBRANCH   1   7
BRANCH   4  31
ATOM     31  C   UNL     1      -2.336   2.379  -1.582  1.00  0.00     0.272 C 
ATOM     32  N   UNL     1      -2.864   3.472  -2.106  1.00  0.00    -0.287 N 
ATOM     33  N   UNL     1      -2.613   1.919  -0.363  1.00  0.00    -0.274 N 
ATOM     34  H   UNL     1      -2.590   3.776  -3.032  1.00  0.00     0.302 HD
ATOM     35  H   UNL     1      -3.572   4.032  -1.655  1.00  0.00     0.302 HD
ATOM     36  H   UNL     1      -2.161   1.038  -0.119  1.00  0.00     0.305 HD
BRANCH  33  37
ATOM     37  C   UNL     1      -3.543   2.541   0.597  1.00  0.00     0.234 C 
BRANCH  37  38
ATOM     38  C   UNL     1      -3.201   2.123   2.037  1.00  0.00     0.049 C 
BRANCH  38  39
ATOM     39  C   UNL     1      -4.042   2.912   3.064  1.00  0.00     0.045 C 
BRANCH  39  40
ATOM     40  C   UNL     1      -3.650   2.712   4.539  1.00  0.00     0.213 C 
BRANCH  40  41
ATOM     41  N   UNL     1      -4.209   1.471   5.132  1.00  0.00    -0.261 N 
ATOM     42  H   UNL     1      -4.549   0.760   4.483  1.00  0.00     0.279 HD
BRANCH  41  43
ATOM     43  C   UNL     1      -4.395   1.282   6.542  1.00  0.00     0.396 A 
ATOM     44  N   UNL     1      -4.947   0.158   6.975  1.00  0.00    -0.164 N 
ATOM     45  N   UNL     1      -4.020   2.197   7.438  1.00  0.00    -0.180 N 
ATOM     46  C   UNL     1      -5.138  -0.030   8.274  1.00  0.00     0.434 A 
ATOM     47  C   UNL     1      -4.226   1.978   8.734  1.00  0.00     0.368 A 
ATOM     48  N   UNL     1      -4.800   0.861   9.200  1.00  0.00     0.013 NA
ATOM     49  H   UNL     1      -5.248  -0.589   6.356  1.00  0.00     0.294 HD
ATOM     50  H   UNL     1      -3.547   3.042   7.159  1.00  0.00     0.292 HD
BRANCH  46  51
ATOM     51  N   UNL     1      -5.730  -1.231   8.627  1.00  0.00    -0.271 N 
ATOM     52  H   UNL     1      -5.078  -1.790   9.191  1.00  0.00     0.276 HD
ATOM     53  H   UNL     1      -6.470  -1.055   9.321  1.00  0.00     0.276 HD
ENDBRANCH  46  51
BRANCH  47  54
ATOM     54  N   UNL     1      -3.795   2.899   9.642  1.00  0.00    -0.336 N 
ATOM     55  H   UNL     1      -3.694   3.892   9.461  1.00  0.00     0.163 HD
ATOM     56  H   UNL     1      -4.064   2.704  10.607  1.00  0.00     0.163 HD
ENDBRANCH  47  54
ENDBRANCH  41  43
ENDBRANCH  40  41
ENDBRANCH  39  40
ENDBRANCH  38  39
ENDBRANCH  37  38
ENDBRANCH  33  37
ENDBRANCH   4  31
TORSDOF 18
