REMARK SMILES COc1cc2c(cc1OC)-c1cc3cc(OC)c(OC)cc3c[n+]1CC2
REMARK SMILES IDX 3 1 4 2 5 3 6 4 7 5 8 6 11 7 12 8 13 9 14 10 15 11 18 12
REMARK SMILES IDX 21 13 22 14 23 15 24 16 25 17 26 18 2 19 1 20 9 21 10 22
REMARK SMILES IDX 16 23 17 24 19 25 20 26
REMARK H PARENT
ROOT
ATOM      1  C   UNL     1       1.758   2.112   3.060  1.00  0.00     0.161 A 
ATOM      2  C   UNL     1       1.324   0.890   3.573  1.00  0.00     0.055 A 
ATOM      3  C   UNL     1       0.803  -0.094   2.718  1.00  0.00    -0.024 A 
ATOM      4  C   UNL     1       0.666   0.137   1.336  1.00  0.00     0.054 A 
ATOM      5  C   UNL     1       1.127   1.370   0.834  1.00  0.00     0.065 A 
ATOM      6  C   UNL     1       1.669   2.351   1.677  1.00  0.00     0.161 A 
ATOM      7  C   UNL     1       0.052  -0.893   0.473  1.00  0.00     0.213 A 
ATOM      8  C   UNL     1      -0.548  -0.632  -0.769  1.00  0.00     0.089 A 
ATOM      9  C   UNL     1      -1.123  -1.661  -1.521  1.00  0.00    -0.002 A 
ATOM     10  C   UNL     1      -1.725  -1.416  -2.768  1.00  0.00     0.059 A 
ATOM     11  C   UNL     1      -2.291  -2.460  -3.508  1.00  0.00     0.161 A 
ATOM     12  C   UNL     1      -2.257  -3.771  -2.999  1.00  0.00     0.161 A 
ATOM     13  C   UNL     1      -1.661  -4.016  -1.758  1.00  0.00     0.065 A 
ATOM     14  C   UNL     1      -1.094  -2.967  -1.013  1.00  0.00     0.050 A 
ATOM     15  C   UNL     1      -0.499  -3.183   0.231  1.00  0.00     0.317 A 
ATOM     16  N   UNL     1       0.043  -2.171   0.951  1.00  0.00    -0.197 N 
ATOM     17  C   UNL     1       0.676  -2.498   2.257  1.00  0.00     0.362 C 
ATOM     18  C   UNL     1       0.355  -1.417   3.274  1.00  0.00     0.109 C 
ENDROOT
BRANCH   1  19
ATOM     19  O   UNL     1       2.291   3.126   3.813  1.00  0.00    -0.493 OA
ATOM     20  C   UNL     1       2.328   2.969   5.224  1.00  0.00     0.278 C 
ENDBRANCH   1  19
BRANCH   6  21
ATOM     21  O   UNL     1       2.133   3.569   1.251  1.00  0.00    -0.493 OA
ATOM     22  C   UNL     1       2.068   3.879  -0.133  1.00  0.00     0.278 C 
ENDBRANCH   6  21
BRANCH  11  23
ATOM     23  O   UNL     1      -2.895  -2.306  -4.730  1.00  0.00    -0.493 OA
ATOM     24  C   UNL     1      -2.979  -1.001  -5.283  1.00  0.00     0.278 C 
ENDBRANCH  11  23
BRANCH  12  25
ATOM     25  O   UNL     1      -2.833  -4.734  -3.787  1.00  0.00    -0.493 OA
ATOM     26  C   UNL     1      -2.819  -6.081  -3.337  1.00  0.00     0.278 C 
ENDBRANCH  12  25
TORSDOF 4
