REMARK SMILES Cc1ccc2nc(C3=C(N)N(C4CCCC4)CC3=O)[nH]c2c1
REMARK SMILES IDX 8 1 9 2 11 3 17 4 18 5 19 6 7 7 2 8 3 9 22 10 4 11 21 12
REMARK SMILES IDX 5 13 20 14 6 15 1 16 10 18 12 21 13 22 16 23 14 24 15 25
REMARK H PARENT 20 17 10 19 10 20
ROOT
ATOM      1  C   UNL     1      -0.039  -0.763   0.265  1.00  0.00     0.102 C 
ATOM      2  C   UNL     1       0.370  -0.819  -1.020  1.00  0.00     0.114 C 
ATOM      3  N   UNL     1       0.399  -2.119  -1.530  1.00  0.00    -0.347 N 
ATOM      4  C   UNL     1      -0.142  -3.068  -0.549  1.00  0.00     0.199 C 
ATOM      5  C   UNL     1      -0.367  -2.156   0.638  1.00  0.00     0.189 C 
ATOM      6  O   UNL     1      -0.775  -2.491   1.745  1.00  0.00    -0.292 OA
ENDROOT
BRANCH   1   7
ATOM      7  C   UNL     1      -0.128   0.379   1.081  1.00  0.00     0.145 A 
ATOM      8  C   UNL     1      -0.862   3.267   4.525  1.00  0.00    -0.049 A 
ATOM      9  C   UNL     1      -0.320   4.140   3.569  1.00  0.00     0.006 A 
ATOM     10  C   UNL     1      -1.006   1.899   4.237  1.00  0.00     0.031 A 
ATOM     11  C   UNL     1       0.067   3.683   2.301  1.00  0.00     0.031 A 
ATOM     12  C   UNL     1      -0.615   1.473   2.965  1.00  0.00     0.066 A 
ATOM     13  C   UNL     1      -0.088   2.323   2.002  1.00  0.00     0.089 A 
ATOM     14  N   UNL     1      -0.625   0.244   2.359  1.00  0.00    -0.338 N 
ATOM     15  N   UNL     1       0.212   1.636   0.850  1.00  0.00    -0.228 NA
ATOM     16  C   UNL     1      -1.236   3.786   5.885  1.00  0.00     0.044 C 
ATOM     17  H   UNL     1      -0.941  -0.627   2.769  1.00  0.00     0.168 HD
ENDBRANCH   1   7
BRANCH   2  18
ATOM     18  N   UNL     1       0.739   0.268  -1.772  1.00  0.00    -0.385 N 
ATOM     19  H   UNL     1       1.612   0.095  -2.258  1.00  0.00     0.158 HD
ATOM     20  H   UNL     1       0.814   1.108  -1.186  1.00  0.00     0.158 HD
ENDBRANCH   2  18
BRANCH   3  21
ATOM     21  C   UNL     1       0.502  -2.457  -2.952  1.00  0.00     0.084 C 
ATOM     22  C   UNL     1      -0.855  -2.499  -3.650  1.00  0.00     0.025 C 
ATOM     23  C   UNL     1       1.098  -3.838  -3.213  1.00  0.00     0.025 C 
ATOM     24  C   UNL     1      -1.302  -3.960  -3.651  1.00  0.00     0.002 C 
ATOM     25  C   UNL     1      -0.083  -4.798  -3.277  1.00  0.00     0.002 C 
ENDBRANCH   3  21
TORSDOF 3
