REMARK SMILES NCCNc1c2c(c(NCCN)c3occc13)C(=O)c1ccccc1C2=O
REMARK SMILES IDX 5 1 6 2 7 3 8 4 13 5 14 6 15 7 16 8 17 9 18 10 19 11 20 12
REMARK SMILES IDX 21 13 22 14 23 15 24 16 25 17 26 18 27 19 4 20 3 22 2 23
REMARK SMILES IDX 1 24 9 27 10 29 11 30 12 31
REMARK H PARENT 4 21 1 25 1 26 9 28 12 32 12 33
ROOT
ATOM      1  C   UNL     1      -1.532  -0.055  -0.621  1.00  0.00     0.058 A 
ATOM      2  C   UNL     1      -0.823  -0.908   0.278  1.00  0.00     0.060 A 
ATOM      3  C   UNL     1       0.575  -0.813   0.424  1.00  0.00     0.063 A 
ATOM      4  C   UNL     1       1.344   0.108  -0.341  1.00  0.00     0.090 A 
ATOM      5  C   UNL     1       0.600   0.925  -1.204  1.00  0.00     0.159 A 
ATOM      6  O   UNL     1       1.126   1.895  -2.012  1.00  0.00    -0.462 OA
ATOM      7  C   UNL     1       0.100   2.455  -2.699  1.00  0.00     0.196 A 
ATOM      8  C   UNL     1      -1.089   1.868  -2.340  1.00  0.00     0.053 A 
ATOM      9  C   UNL     1      -0.776   0.877  -1.365  1.00  0.00     0.046 A 
ATOM     10  C   UNL     1       1.260  -1.665   1.437  1.00  0.00     0.196 C 
ATOM     11  O   UNL     1       2.451  -1.513   1.697  1.00  0.00    -0.288 OA
ATOM     12  C   UNL     1       0.509  -2.696   2.170  1.00  0.00     0.034 A 
ATOM     13  C   UNL     1       1.178  -3.544   3.064  1.00  0.00     0.013 A 
ATOM     14  C   UNL     1       0.473  -4.522   3.766  1.00  0.00     0.001 A 
ATOM     15  C   UNL     1      -0.901  -4.656   3.579  1.00  0.00     0.001 A 
ATOM     16  C   UNL     1      -1.569  -3.810   2.692  1.00  0.00     0.013 A 
ATOM     17  C   UNL     1      -0.860  -2.827   1.986  1.00  0.00     0.034 A 
ATOM     18  C   UNL     1      -1.572  -1.937   1.056  1.00  0.00     0.196 C 
ATOM     19  O   UNL     1      -2.786  -2.076   0.926  1.00  0.00    -0.288 OA
ENDROOT
BRANCH   1  20
ATOM     20  N   UNL     1      -2.942  -0.078  -0.752  1.00  0.00    -0.383 N 
ATOM     21  H   UNL     1      -3.272  -1.011  -0.470  1.00  0.00     0.160 HD
BRANCH  20  22
ATOM     22  C   UNL     1      -3.593   0.920   0.117  1.00  0.00     0.128 C 
BRANCH  22  23
ATOM     23  C   UNL     1      -5.125   0.748   0.073  1.00  0.00     0.098 C 
BRANCH  23  24
ATOM     24  N   UNL     1      -5.572  -0.631   0.317  1.00  0.00    -0.329 NA
ATOM     25  H   UNL     1      -4.970  -1.062   1.024  1.00  0.00     0.118 HD
ATOM     26  H   UNL     1      -5.397  -1.176  -0.528  1.00  0.00     0.118 HD
ENDBRANCH  23  24
ENDBRANCH  22  23
ENDBRANCH  20  22
ENDBRANCH   1  20
BRANCH   4  27
ATOM     27  N   UNL     1       2.755   0.190  -0.291  1.00  0.00    -0.380 N 
ATOM     28  H   UNL     1       3.042  -0.053   0.669  1.00  0.00     0.160 HD
BRANCH  27  29
ATOM     29  C   UNL     1       3.430  -0.756  -1.205  1.00  0.00     0.128 C 
BRANCH  29  30
ATOM     30  C   UNL     1       3.600  -0.190  -2.630  1.00  0.00     0.098 C 
BRANCH  30  31
ATOM     31  N   UNL     1       4.091   1.195  -2.644  1.00  0.00    -0.329 NA
ATOM     32  H   UNL     1       3.360   1.744  -2.172  1.00  0.00     0.118 HD
ATOM     33  H   UNL     1       4.879   1.266  -2.001  1.00  0.00     0.118 HD
ENDBRANCH  30  31
ENDBRANCH  29  30
ENDBRANCH  27  29
ENDBRANCH   4  27
TORSDOF 8
