REMARK SMILES N=C(N)c1ccc(-c2ccc(-c3ccc(C(=N)N)cc3)o2)cc1
REMARK SMILES IDX 8 1 9 2 10 3 11 4 21 5 7 6 4 7 5 8 23 9 6 10 22 11 2 12 1 13
REMARK SMILES IDX 3 14 12 18 13 19 20 20 14 21 19 22 15 23 16 24 17 25 18 26
REMARK H PARENT 1 15 3 16 3 17 17 27 18 28 18 29
ROOT
ATOM      1  C   UNL     1       0.003  -1.336   1.519  1.00  0.00     0.134 A 
ATOM      2  C   UNL     1       0.369  -2.648   1.744  1.00  0.00     0.051 A 
ATOM      3  C   UNL     1       0.542  -3.248   0.471  1.00  0.00     0.051 A 
ATOM      4  C   UNL     1       0.270  -2.275  -0.469  1.00  0.00     0.134 A 
ATOM      5  O   UNL     1      -0.057  -1.113   0.172  1.00  0.00    -0.456 OA
ENDROOT
BRANCH   1   6
ATOM      6  C   UNL     1      -0.321  -0.199   2.379  1.00  0.00     0.017 A 
ATOM      7  C   UNL     1      -0.948   1.989   4.055  1.00  0.00     0.016 A 
ATOM      8  C   UNL     1      -0.862   2.162   2.671  1.00  0.00     0.012 A 
ATOM      9  C   UNL     1      -0.708   0.727   4.605  1.00  0.00     0.012 A 
ATOM     10  C   UNL     1      -0.555   1.076   1.843  1.00  0.00     0.013 A 
ATOM     11  C   UNL     1      -0.398  -0.356   3.772  1.00  0.00     0.013 A 
BRANCH   7  12
ATOM     12  C   UNL     1      -1.287   3.154   4.926  1.00  0.00     0.122 C 
ATOM     13  N   UNL     1      -1.127   4.355   4.474  1.00  0.00    -0.284 NA
ATOM     14  N   UNL     1      -1.777   2.961   6.186  1.00  0.00    -0.384 N 
ATOM     15  H   UNL     1      -1.369   5.035   5.195  1.00  0.00     0.189 HD
ATOM     16  H   UNL     1      -2.267   3.753   6.586  1.00  0.00     0.158 HD
ATOM     17  H   UNL     1      -2.298   2.102   6.325  1.00  0.00     0.158 HD
ENDBRANCH   7  12
ENDBRANCH   1   6
BRANCH   4  18
ATOM     18  C   UNL     1       0.265  -2.233  -1.930  1.00  0.00     0.017 A 
ATOM     19  C   UNL     1      -0.175  -1.095  -2.624  1.00  0.00     0.013 A 
ATOM     20  C   UNL     1       0.695  -3.340  -2.678  1.00  0.00     0.013 A 
ATOM     21  C   UNL     1      -0.181  -1.062  -4.023  1.00  0.00     0.012 A 
ATOM     22  C   UNL     1       0.694  -3.310  -4.079  1.00  0.00     0.012 A 
ATOM     23  C   UNL     1       0.262  -2.165  -4.756  1.00  0.00     0.016 A 
BRANCH  23  24
ATOM     24  C   UNL     1       0.260  -2.111  -6.249  1.00  0.00     0.122 C 
ATOM     25  N   UNL     1      -0.478  -1.239  -6.853  1.00  0.00    -0.284 NA
ATOM     26  N   UNL     1       1.042  -2.963  -6.977  1.00  0.00    -0.384 N 
ATOM     27  H   UNL     1      -0.395  -1.352  -7.864  1.00  0.00     0.189 HD
ATOM     28  H   UNL     1       1.229  -2.671  -7.928  1.00  0.00     0.158 HD
ATOM     29  H   UNL     1       1.891  -3.276  -6.517  1.00  0.00     0.158 HD
ENDBRANCH  23  24
ENDBRANCH   4  18
TORSDOF 4
