REMARK SMILES C[n+]1ccc(Nc2ccc(NC(=O)c3ccc(Nc4cc[n+](C)c5ccc(N)cc45)cc3)cc2)cc1
REMARK SMILES IDX 14 1 15 2 16 3 17 4 31 5 32 6 12 7 11 8 13 9 10 11 7 12 8 13
REMARK SMILES IDX 34 14 9 15 33 16 6 17 5 19 2 20 3 21 36 22 4 23 35 24 1 25
REMARK SMILES IDX 18 26 19 28 20 29 30 30 21 31 29 32 24 33 22 34 27 35 25 36
REMARK SMILES IDX 26 37 23 38 28 39
REMARK H PARENT 11 10 6 18 18 27 28 40 28 41
ROOT
ATOM      1  C   UNL     1       0.190   0.157  -2.165  1.00  0.00     0.040 A 
ATOM      2  C   UNL     1       1.085  -0.720  -1.543  1.00  0.00     0.016 A 
ATOM      3  C   UNL     1       2.009  -1.443  -2.312  1.00  0.00     0.027 A 
ATOM      4  C   UNL     1       2.052  -1.310  -3.707  1.00  0.00     0.038 A 
ATOM      5  C   UNL     1       1.162  -0.411  -4.313  1.00  0.00     0.027 A 
ATOM      6  C   UNL     1       0.239   0.315  -3.553  1.00  0.00     0.016 A 
ENDROOT
BRANCH   1   7
ATOM      7  C   UNL     1      -0.772   0.991  -1.390  1.00  0.00     0.255 C 
ATOM      8  N   UNL     1      -1.321   0.385  -0.273  1.00  0.00    -0.322 N 
ATOM      9  O   UNL     1      -1.023   2.114  -1.811  1.00  0.00    -0.269 OA
ATOM     10  H   UNL     1      -1.138  -0.603  -0.146  1.00  0.00     0.170 HD
BRANCH   8  11
ATOM     11  C   UNL     1      -2.190   0.979   0.668  1.00  0.00     0.041 A 
ATOM     12  C   UNL     1      -3.919   2.042   2.652  1.00  0.00     0.039 A 
ATOM     13  C   UNL     1      -3.611   0.679   2.625  1.00  0.00     0.028 A 
ATOM     14  C   UNL     1      -3.354   2.860   1.667  1.00  0.00     0.028 A 
ATOM     15  C   UNL     1      -2.749   0.155   1.651  1.00  0.00     0.028 A 
ATOM     16  C   UNL     1      -2.499   2.337   0.688  1.00  0.00     0.028 A 
BRANCH  12  17
ATOM     17  N   UNL     1      -4.797   2.616   3.591  1.00  0.00    -0.355 N 
ATOM     18  H   UNL     1      -4.632   3.612   3.717  1.00  0.00     0.167 HD
BRANCH  17  19
ATOM     19  C   UNL     1      -5.949   2.124   4.221  1.00  0.00     0.050 A 
ATOM     20  N   UNL     1      -8.178   1.171   5.591  1.00  0.00    -0.208 N 
ATOM     21  C   UNL     1      -7.505   2.239   6.070  1.00  0.00     0.310 A 
ATOM     22  C   UNL     1      -7.779   0.565   4.452  1.00  0.00     0.310 A 
ATOM     23  C   UNL     1      -6.383   2.726   5.403  1.00  0.00     0.096 A 
ATOM     24  C   UNL     1      -6.664   1.021   3.757  1.00  0.00     0.096 A 
ATOM     25  C   UNL     1      -9.369   0.667   6.299  1.00  0.00     0.439 C 
ENDBRANCH  17  19
ENDBRANCH  12  17
ENDBRANCH   8  11
ENDBRANCH   1   7
BRANCH   4  26
ATOM     26  N   UNL     1       3.018  -1.946  -4.523  1.00  0.00    -0.355 N 
ATOM     27  H   UNL     1       2.632  -2.152  -5.444  1.00  0.00     0.167 HD
BRANCH  26  28
ATOM     28  C   UNL     1       4.080  -2.797  -4.146  1.00  0.00     0.059 A 
ATOM     29  C   UNL     1       4.009  -4.135  -4.521  1.00  0.00     0.097 A 
ATOM     30  C   UNL     1       5.177  -2.363  -3.362  1.00  0.00     0.072 A 
ATOM     31  C   UNL     1       4.998  -5.014  -4.122  1.00  0.00     0.310 A 
ATOM     32  C   UNL     1       5.351  -1.011  -2.979  1.00  0.00     0.042 A 
ATOM     33  C   UNL     1       6.164  -3.305  -2.964  1.00  0.00     0.214 A 
ATOM     34  N   UNL     1       6.040  -4.610  -3.361  1.00  0.00    -0.201 N 
ATOM     35  C   UNL     1       6.450  -0.576  -2.235  1.00  0.00     0.033 A 
ATOM     36  C   UNL     1       7.239  -2.865  -2.166  1.00  0.00     0.082 A 
ATOM     37  C   UNL     1       7.362  -1.524  -1.791  1.00  0.00     0.032 A 
ATOM     38  C   UNL     1       7.047  -5.625  -2.975  1.00  0.00     0.440 C 
BRANCH  35  39
ATOM     39  N   UNL     1       6.504   0.731  -1.759  1.00  0.00    -0.399 N 
ATOM     40  H   UNL     1       7.431   1.067  -1.502  1.00  0.00     0.156 HD
ATOM     41  H   UNL     1       5.999   1.417  -2.315  1.00  0.00     0.156 HD
ENDBRANCH  35  39
ENDBRANCH  26  28
ENDBRANCH   4  26
TORSDOF 7
