REMARK SMILES COC(=O)c1ccc(O)c2[nH]c3c(C=O)c(=O)cc(O)c-3nc12
REMARK SMILES IDX 5 1 6 2 7 3 8 4 10 5 11 6 12 7 13 8 16 9 17 10 18 11 19 12
REMARK SMILES IDX 21 13 22 14 23 15 3 17 4 18 2 19 1 20 9 21 20 23 14 25 15 26
REMARK H PARENT 11 16 9 22 20 24
ROOT
ATOM      1  C   UNL     1       0.329  -0.992   2.018  1.00  0.00     0.088 A 
ATOM      2  C   UNL     1       1.564  -1.371   2.573  1.00  0.00     0.022 A 
ATOM      3  C   UNL     1       2.726  -1.345   1.803  1.00  0.00     0.049 A 
ATOM      4  C   UNL     1       2.651  -0.930   0.478  1.00  0.00     0.141 A 
ATOM      5  C   UNL     1       1.430  -0.530  -0.087  1.00  0.00     0.108 A 
ATOM      6  N   UNL     1       1.377  -0.094  -1.422  1.00  0.00    -0.348 N 
ATOM      7  C   UNL     1       0.213   0.331  -2.021  1.00  0.00     0.083 C 
ATOM      8  C   UNL     1       0.066   0.766  -3.286  1.00  0.00     0.088 C 
ATOM      9  C   UNL     1      -1.246   1.201  -3.813  1.00  0.00     0.195 C 
ATOM     10  O   UNL     1      -1.374   1.600  -4.966  1.00  0.00    -0.289 OA
ATOM     11  C   UNL     1      -2.413   1.147  -2.923  1.00  0.00     0.101 C 
ATOM     12  C   UNL     1      -2.297   0.721  -1.668  1.00  0.00     0.147 C 
ATOM     13  C   UNL     1      -0.989   0.285  -1.112  1.00  0.00     0.130 C 
ATOM     14  N   UNL     1      -0.983  -0.109   0.132  1.00  0.00    -0.240 NA
ATOM     15  C   UNL     1       0.246  -0.550   0.687  1.00  0.00     0.106 A 
ATOM     16  H   UNL     1       2.249  -0.096  -1.958  1.00  0.00     0.167 HD
ENDROOT
BRANCH   1  17
ATOM     17  C   UNL     1      -0.846  -1.048   2.912  1.00  0.00     0.340 C 
ATOM     18  O   UNL     1      -0.806  -0.697   4.081  1.00  0.00    -0.246 OA
BRANCH  17  19
ATOM     19  O   UNL     1      -1.899  -1.630   2.286  1.00  0.00    -0.465 OA
ATOM     20  C   UNL     1      -3.057  -1.768   3.109  1.00  0.00     0.282 C 
ENDBRANCH  17  19
ENDBRANCH   1  17
BRANCH   4  21
ATOM     21  O   UNL     1       3.771  -0.892  -0.308  1.00  0.00    -0.506 OA
ATOM     22  H   UNL     1       4.538  -1.181   0.215  1.00  0.00     0.293 HD
ENDBRANCH   4  21
BRANCH  12  23
ATOM     23  O   UNL     1      -3.394   0.660  -0.829  1.00  0.00    -0.505 OA
ATOM     24  H   UNL     1      -3.038   0.303   0.016  1.00  0.00     0.293 HD
ENDBRANCH  12  23
BRANCH   8  25
ATOM     25  C   UNL     1       1.245   0.818  -4.192  1.00  0.00     0.266 C 
ATOM     26  O   UNL     1       2.378   0.481  -3.861  1.00  0.00    -0.298 OA
ENDBRANCH   8  25
TORSDOF 5
