REMARK SMILES Nc1nc(N)c2c(N)c(N)ccc2n1
REMARK SMILES IDX 2 1 3 2 4 3 6 4 7 5 9 6 11 7 12 8 13 9 14 10 1 11 5 14 8 17
REMARK SMILES IDX 10 20
REMARK H PARENT 1 12 1 13 5 15 5 16 8 18 8 19 10 21 10 22
ROOT
ATOM      1  C   UNL     1      -1.764   0.938  -2.159  1.00  0.00     0.222 A 
ATOM      2  N   UNL     1      -2.265  -0.111  -1.522  1.00  0.00    -0.196 NA
ATOM      3  C   UNL     1      -1.554  -0.608  -0.499  1.00  0.00     0.139 A 
ATOM      4  C   UNL     1      -0.315  -0.076  -0.074  1.00  0.00     0.068 A 
ATOM      5  C   UNL     1       0.527  -0.504   1.012  1.00  0.00     0.068 A 
ATOM      6  C   UNL     1       1.792   0.100   1.210  1.00  0.00     0.056 A 
ATOM      7  C   UNL     1       2.153   1.199   0.446  1.00  0.00     0.030 A 
ATOM      8  C   UNL     1       1.312   1.635  -0.576  1.00  0.00     0.031 A 
ATOM      9  C   UNL     1       0.103   1.015  -0.854  1.00  0.00     0.080 A 
ATOM     10  N   UNL     1      -0.597   1.509  -1.877  1.00  0.00    -0.213 NA
ENDROOT
BRANCH   1  11
ATOM     11  N   UNL     1      -2.482   1.444  -3.222  1.00  0.00    -0.368 N 
ATOM     12  H   UNL     1      -3.095   0.726  -3.584  1.00  0.00     0.159 HD
ATOM     13  H   UNL     1      -1.860   1.901  -3.873  1.00  0.00     0.159 HD
ENDBRANCH   1  11
BRANCH   3  14
ATOM     14  N   UNL     1      -2.177  -1.682   0.155  1.00  0.00    -0.383 N 
ATOM     15  H   UNL     1      -2.480  -1.386   1.077  1.00  0.00     0.158 HD
ATOM     16  H   UNL     1      -1.549  -2.475   0.204  1.00  0.00     0.158 HD
ENDBRANCH   3  14
BRANCH   5  17
ATOM     17  N   UNL     1       0.280  -1.690   1.770  1.00  0.00    -0.396 N 
ATOM     18  H   UNL     1      -0.707  -1.861   1.914  1.00  0.00     0.156 HD
ATOM     19  H   UNL     1       0.731  -2.487   1.325  1.00  0.00     0.156 HD
ENDBRANCH   5  17
BRANCH   6  20
ATOM     20  N   UNL     1       2.580  -0.279   2.310  1.00  0.00    -0.397 N 
ATOM     21  H   UNL     1       2.277  -1.179   2.679  1.00  0.00     0.156 HD
ATOM     22  H   UNL     1       3.579  -0.197   2.168  1.00  0.00     0.156 HD
ENDBRANCH   6  20
TORSDOF 4
