REMARK SMILES N=C(NCCCc1c(N)nc(N)nc1N)c1cccc(C(=N)NCCCc2c(N)nc(N)nc2N)c1
REMARK SMILES IDX 16 1 17 2 18 3 19 4 20 5 36 6 2 7 1 8 3 9 4 12 5 13 6 14
REMARK SMILES IDX 7 15 8 16 14 17 10 18 13 19 11 20 9 21 15 24 12 27 21 30
REMARK SMILES IDX 22 31 23 32 24 35 25 36 26 37 27 38 28 39 34 40 30 41 33 42
REMARK SMILES IDX 31 43 29 44 35 47 32 50
REMARK H PARENT 1 10 3 11 9 22 9 23 15 25 15 26 12 28 12 29 22 33 23 34 29 45
REMARK H PARENT 29 46 35 48 35 49 32 51 32 52
ROOT
ATOM      1  C   UNL     1      -0.437   1.778   1.207  1.00  0.00     0.017 A 
ATOM      2  C   UNL     1      -0.670   2.857   2.069  1.00  0.00     0.012 A 
ATOM      3  C   UNL     1      -1.970   3.141   2.497  1.00  0.00     0.002 A 
ATOM      4  C   UNL     1      -3.038   2.360   2.054  1.00  0.00     0.012 A 
ATOM      5  C   UNL     1      -2.815   1.301   1.166  1.00  0.00     0.017 A 
ATOM      6  C   UNL     1      -1.513   1.006   0.752  1.00  0.00     0.023 A 
ENDROOT
BRANCH   1   7
ATOM      7  C   UNL     1       0.947   1.435   0.735  1.00  0.00     0.125 C 
ATOM      8  N   UNL     1       1.041   0.823  -0.399  1.00  0.00    -0.284 NA
ATOM      9  N   UNL     1       2.029   1.795   1.506  1.00  0.00    -0.370 N 
ATOM     10  H   UNL     1       2.030   0.693  -0.653  1.00  0.00     0.189 HD
ATOM     11  H   UNL     1       1.787   2.121   2.437  1.00  0.00     0.162 HD
BRANCH   9  12
ATOM     12  C   UNL     1       3.314   1.108   1.517  1.00  0.00     0.115 C 
BRANCH  12  13
ATOM     13  C   UNL     1       4.445   2.136   1.584  1.00  0.00     0.026 C 
BRANCH  13  14
ATOM     14  C   UNL     1       4.617   2.962   0.301  1.00  0.00     0.045 C 
BRANCH  14  15
ATOM     15  C   UNL     1       5.436   2.277  -0.762  1.00  0.00     0.037 A 
ATOM     16  C   UNL     1       4.866   1.532  -1.784  1.00  0.00     0.134 A 
ATOM     17  C   UNL     1       6.825   2.329  -0.786  1.00  0.00     0.134 A 
ATOM     18  N   UNL     1       5.582   0.898  -2.719  1.00  0.00    -0.196 NA
ATOM     19  N   UNL     1       7.556   1.715  -1.722  1.00  0.00    -0.196 NA
ATOM     20  C   UNL     1       6.904   1.037  -2.661  1.00  0.00     0.223 A 
BRANCH  16  21
ATOM     21  N   UNL     1       3.490   1.329  -1.875  1.00  0.00    -0.383 N 
ATOM     22  H   UNL     1       3.319   0.811  -2.738  1.00  0.00     0.158 HD
ATOM     23  H   UNL     1       2.963   2.201  -1.869  1.00  0.00     0.158 HD
ENDBRANCH  16  21
BRANCH  17  24
ATOM     24  N   UNL     1       7.553   3.045   0.173  1.00  0.00    -0.383 N 
ATOM     25  H   UNL     1       7.344   2.706   1.106  1.00  0.00     0.158 HD
ATOM     26  H   UNL     1       7.325   4.034   0.123  1.00  0.00     0.158 HD
ENDBRANCH  17  24
BRANCH  20  27
ATOM     27  N   UNL     1       7.659   0.395  -3.623  1.00  0.00    -0.368 N 
ATOM     28  H   UNL     1       8.587   0.228  -3.261  1.00  0.00     0.159 HD
ATOM     29  H   UNL     1       7.148  -0.394  -3.993  1.00  0.00     0.159 HD
ENDBRANCH  20  27
ENDBRANCH  14  15
ENDBRANCH  13  14
ENDBRANCH  12  13
ENDBRANCH   9  12
ENDBRANCH   1   7
BRANCH   5  30
ATOM     30  C   UNL     1      -3.974   0.487   0.676  1.00  0.00     0.125 C 
ATOM     31  N   UNL     1      -4.988   0.369   1.467  1.00  0.00    -0.284 NA
ATOM     32  N   UNL     1      -3.890  -0.089  -0.568  1.00  0.00    -0.370 N 
ATOM     33  H   UNL     1      -5.713  -0.207   1.043  1.00  0.00     0.189 HD
ATOM     34  H   UNL     1      -3.112   0.203  -1.157  1.00  0.00     0.162 HD
BRANCH  32  35
ATOM     35  C   UNL     1      -4.898  -0.849  -1.276  1.00  0.00     0.115 C 
BRANCH  35  36
ATOM     36  C   UNL     1      -4.463  -2.306  -1.399  1.00  0.00     0.026 C 
BRANCH  36  37
ATOM     37  C   UNL     1      -4.460  -3.032  -0.048  1.00  0.00     0.045 C 
BRANCH  37  38
ATOM     38  C   UNL     1      -4.046  -4.472  -0.198  1.00  0.00     0.037 A 
ATOM     39  C   UNL     1      -4.946  -5.461  -0.565  1.00  0.00     0.134 A 
ATOM     40  C   UNL     1      -2.734  -4.901  -0.046  1.00  0.00     0.134 A 
ATOM     41  N   UNL     1      -4.597  -6.734  -0.772  1.00  0.00    -0.196 NA
ATOM     42  N   UNL     1      -2.366  -6.172  -0.242  1.00  0.00    -0.196 NA
ATOM     43  C   UNL     1      -3.309  -7.032  -0.617  1.00  0.00     0.223 A 
BRANCH  39  44
ATOM     44  N   UNL     1      -6.302  -5.184  -0.769  1.00  0.00    -0.383 N 
ATOM     45  H   UNL     1      -6.729  -4.795   0.063  1.00  0.00     0.158 HD
ATOM     46  H   UNL     1      -6.742  -6.068  -1.022  1.00  0.00     0.158 HD
ENDBRANCH  39  44
BRANCH  40  47
ATOM     47  N   UNL     1      -1.703  -4.017   0.300  1.00  0.00    -0.383 N 
ATOM     48  H   UNL     1      -1.598  -3.305  -0.416  1.00  0.00     0.158 HD
ATOM     49  H   UNL     1      -1.913  -3.553   1.177  1.00  0.00     0.158 HD
ENDBRANCH  40  47
BRANCH  43  50
ATOM     50  N   UNL     1      -2.928  -8.346  -0.809  1.00  0.00    -0.368 N 
ATOM     51  H   UNL     1      -2.075  -8.518  -0.295  1.00  0.00     0.159 HD
ATOM     52  H   UNL     1      -3.711  -8.959  -0.635  1.00  0.00     0.159 HD
ENDBRANCH  43  50
ENDBRANCH  37  38
ENDBRANCH  36  37
ENDBRANCH  35  36
ENDBRANCH  32  35
ENDBRANCH   5  30
TORSDOF 16
