REMARK SMILES CN(C)CCCn1c(N)nc2ccc3oc(CN(C)C)cc3c21
REMARK SMILES IDX 6 1 5 2 4 3 2 4 1 5 3 6 7 7 8 8 23 9 10 10 22 11 11 12 21 13
REMARK SMILES IDX 14 14 12 15 16 16 13 17 15 18 9 19 17 22 18 23 19 24 20 25
REMARK H PARENT 9 20 9 21
ROOT
ATOM      1  C   UNL     1       1.034   0.322   1.794  1.00  0.00     0.127 C 
ENDROOT
BRANCH   1   2
ATOM      2  C   UNL     1       0.979   1.698   1.120  1.00  0.00     0.037 C 
BRANCH   2   3
ATOM      3  C   UNL     1       0.361   1.673  -0.283  1.00  0.00     0.085 C 
BRANCH   3   4
ATOM      4  N   UNL     1       0.390   2.999  -0.925  1.00  0.00    -0.309 NA
ATOM      5  C   UNL     1       0.120   2.864  -2.361  1.00  0.00     0.104 C 
ATOM      6  C   UNL     1      -0.578   3.925  -0.333  1.00  0.00     0.104 C 
ENDBRANCH   3   4
ENDBRANCH   2   3
ENDBRANCH   1   2
BRANCH   1   7
ATOM      7  N   UNL     1       1.878  -0.647   1.130  1.00  0.00    -0.310 N 
ATOM      8  C   UNL     1       3.257  -0.711   1.287  1.00  0.00     0.201 A 
ATOM      9  C   UNL     1       1.547  -1.689   0.334  1.00  0.00     0.081 A 
ATOM     10  N   UNL     1       3.783  -1.717   0.630  1.00  0.00    -0.213 NA
ATOM     11  C   UNL     1       0.355  -2.147  -0.155  1.00  0.00     0.047 A 
ATOM     12  C   UNL     1       2.731  -2.339   0.023  1.00  0.00     0.092 A 
ATOM     13  C   UNL     1      -0.969  -1.681   0.013  1.00  0.00     0.058 A 
ATOM     14  C   UNL     1       0.314  -3.256  -0.974  1.00  0.00     0.136 A 
ATOM     15  C   UNL     1       2.689  -3.477  -0.814  1.00  0.00     0.034 A 
ATOM     16  C   UNL     1      -1.751  -2.558  -0.725  1.00  0.00     0.119 A 
ATOM     17  C   UNL     1       1.460  -3.957  -1.334  1.00  0.00     0.050 A 
ATOM     18  O   UNL     1      -0.972  -3.510  -1.333  1.00  0.00    -0.460 OA
BRANCH   8  19
ATOM     19  N   UNL     1       3.956   0.162   2.035  1.00  0.00    -0.369 N 
ATOM     20  H   UNL     1       3.693   1.140   2.020  1.00  0.00     0.159 HD
ATOM     21  H   UNL     1       4.962   0.061   1.918  1.00  0.00     0.159 HD
ENDBRANCH   8  19
BRANCH  16  22
ATOM     22  C   UNL     1      -3.220  -2.640  -0.983  1.00  0.00     0.159 C 
BRANCH  22  23
ATOM     23  N   UNL     1      -3.988  -3.485  -0.054  1.00  0.00    -0.302 NA
ATOM     24  C   UNL     1      -3.604  -4.892  -0.135  1.00  0.00     0.105 C 
ATOM     25  C   UNL     1      -3.950  -3.006   1.323  1.00  0.00     0.105 C 
ENDBRANCH  22  23
ENDBRANCH  16  22
ENDBRANCH   1   7
TORSDOF 7
