REMARK SMILES CS/C(=N\c1ccc(Cl)cc1)N1CC=Cc2ccccc21
REMARK SMILES IDX 3 1 4 2 2 3 1 4 12 5 13 6 21 7 14 8 20 9 16 10 15 11 19 12
REMARK SMILES IDX 17 13 18 14 5 15 6 16 11 17 7 18 10 19 8 20 9 21
REMARK H PARENT
ROOT
ATOM      1  C   UNL     1       0.062  -0.250  -0.029  1.00  0.00     0.168 C 
ATOM      2  N   UNL     1       1.348  -0.471   0.042  1.00  0.00    -0.225 NA
ENDROOT
BRANCH   1   3
ATOM      3  S   UNL     1      -0.706   1.139   0.782  1.00  0.00    -0.091 SA
ATOM      4  C   UNL     1      -1.433   1.937  -0.664  1.00  0.00     0.094 C 
ENDBRANCH   1   3
BRANCH   1   5
ATOM      5  N   UNL     1      -0.755  -1.047  -0.819  1.00  0.00    -0.317 N 
ATOM      6  C   UNL     1      -0.155  -1.667  -2.010  1.00  0.00     0.152 C 
ATOM      7  C   UNL     1      -1.944  -1.696  -0.371  1.00  0.00     0.050 A 
ATOM      8  C   UNL     1      -1.188  -1.989  -3.052  1.00  0.00    -0.005 C 
ATOM      9  C   UNL     1      -2.305  -1.776   0.983  1.00  0.00     0.027 A 
ATOM     10  C   UNL     1      -2.819  -2.281  -1.319  1.00  0.00    -0.002 A 
ATOM     11  C   UNL     1      -2.459  -2.265  -2.737  1.00  0.00     0.008 C 
ATOM     12  C   UNL     1      -3.503  -2.379   1.382  1.00  0.00     0.002 A 
ATOM     13  C   UNL     1      -4.024  -2.874  -0.917  1.00  0.00     0.010 A 
ATOM     14  C   UNL     1      -4.364  -2.920   0.433  1.00  0.00     0.001 A 
ENDBRANCH   1   5
BRANCH   2  15
ATOM     15  C   UNL     1       2.195   0.332   0.813  1.00  0.00     0.066 A 
ATOM     16  C   UNL     1       2.429   0.026   2.157  1.00  0.00     0.030 A 
ATOM     17  C   UNL     1       2.871   1.406   0.226  1.00  0.00     0.030 A 
ATOM     18  C   UNL     1       3.301   0.808   2.919  1.00  0.00     0.023 A 
ATOM     19  C   UNL     1       3.744   2.191   0.984  1.00  0.00     0.023 A 
ATOM     20  C   UNL     1       3.952   1.889   2.329  1.00  0.00     0.041 A 
ATOM     21  Cl  UNL     1       5.028   2.853   3.264  1.00  0.00    -0.084 Cl
ENDBRANCH   2  15
TORSDOF 3
