REMARK SMILES Cc1cc2ccccc2nc1-c1ccccc1F
REMARK SMILES IDX 1 1 2 2 3 3 4 4 5 5 6 6 7 7 8 8 9 9 10 10 11 11 12 12 13 13
REMARK SMILES IDX 17 14 14 15 16 16 15 17 18 18
REMARK H PARENT
ROOT
ATOM      1  C   UNL     1      -2.237   1.325  -0.078  1.00  0.00     0.047 C 
ATOM      2  C   UNL     1      -1.005   0.572   0.331  1.00  0.00    -0.024 A 
ATOM      3  C   UNL     1      -0.541   0.685   1.647  1.00  0.00     0.016 A 
ATOM      4  C   UNL     1       0.612   0.006   2.057  1.00  0.00     0.000 A 
ATOM      5  C   UNL     1       1.106   0.106   3.370  1.00  0.00     0.010 A 
ATOM      6  C   UNL     1       2.261  -0.579   3.742  1.00  0.00     0.001 A 
ATOM      7  C   UNL     1       2.923  -1.364   2.806  1.00  0.00     0.002 A 
ATOM      8  C   UNL     1       2.426  -1.460   1.502  1.00  0.00     0.029 A 
ATOM      9  C   UNL     1       1.277  -0.788   1.107  1.00  0.00     0.071 A 
ATOM     10  N   UNL     1       0.839  -0.916  -0.156  1.00  0.00    -0.247 NA
ATOM     11  C   UNL     1      -0.297  -0.269  -0.536  1.00  0.00     0.077 A 
ENDROOT
BRANCH  11  12
ATOM     12  C   UNL     1      -0.669  -0.514  -1.937  1.00  0.00     0.036 A 
ATOM     13  C   UNL     1       0.231  -0.210  -2.975  1.00  0.00     0.013 A 
ATOM     14  C   UNL     1      -1.900  -1.080  -2.293  1.00  0.00     0.132 A 
ATOM     15  C   UNL     1      -0.103  -0.441  -4.313  1.00  0.00     0.001 A 
ATOM     16  C   UNL     1      -2.241  -1.314  -3.625  1.00  0.00     0.040 A 
ATOM     17  C   UNL     1      -1.341  -0.991  -4.639  1.00  0.00     0.003 A 
ATOM     18  F   UNL     1      -2.790  -1.420  -1.347  1.00  0.00    -0.206 F 
ENDBRANCH  11  12
TORSDOF 1
