REMARK SMILES Nc1ccc(-c2cc3ccc(C4=NCCN4)cc3[nH]2)cc1
REMARK SMILES IDX 6 1 7 2 8 3 9 4 10 5 11 6 17 7 18 8 19 9 5 11 2 12 3 13
REMARK SMILES IDX 21 14 4 15 20 16 1 17 12 20 13 21 16 22 14 23 15 24
REMARK H PARENT 19 10 1 18 1 19 16 25
ROOT
ATOM      1  C   UNL     1      -0.434  -1.672   1.226  1.00  0.00     0.046 A 
ATOM      2  C   UNL     1       0.899  -1.882   0.916  1.00  0.00     0.037 A 
ATOM      3  C   UNL     1       1.285  -0.949  -0.085  1.00  0.00     0.000 A 
ATOM      4  C   UNL     1       2.490  -0.683  -0.762  1.00  0.00     0.011 A 
ATOM      5  C   UNL     1       2.525   0.338  -1.721  1.00  0.00     0.013 A 
ATOM      6  C   UNL     1       1.379   1.084  -2.015  1.00  0.00     0.019 A 
ATOM      7  C   UNL     1       0.172   0.838  -1.343  1.00  0.00     0.038 A 
ATOM      8  C   UNL     1       0.161  -0.185  -0.384  1.00  0.00     0.047 A 
ATOM      9  N   UNL     1      -0.859  -0.638   0.421  1.00  0.00    -0.355 N 
ATOM     10  H   UNL     1      -1.801  -0.276   0.405  1.00  0.00     0.167 HD
ENDROOT
BRANCH   1  11
ATOM     11  C   UNL     1      -1.312  -2.359   2.173  1.00  0.00    -0.002 A 
ATOM     12  C   UNL     1      -2.973  -3.703   4.026  1.00  0.00     0.031 A 
ATOM     13  C   UNL     1      -3.124  -2.335   3.795  1.00  0.00     0.026 A 
ATOM     14  C   UNL     1      -2.038  -4.407   3.267  1.00  0.00     0.026 A 
ATOM     15  C   UNL     1      -2.289  -1.663   2.894  1.00  0.00     0.012 A 
ATOM     16  C   UNL     1      -1.198  -3.740   2.367  1.00  0.00     0.012 A 
BRANCH  12  17
ATOM     17  N   UNL     1      -3.887  -4.388   4.834  1.00  0.00    -0.399 N 
ATOM     18  H   UNL     1      -4.296  -3.816   5.566  1.00  0.00     0.156 HD
ATOM     19  H   UNL     1      -3.537  -5.272   5.188  1.00  0.00     0.156 HD
ENDBRANCH  12  17
ENDBRANCH   1  11
BRANCH   6  20
ATOM     20  C   UNL     1       1.451   2.151  -3.047  1.00  0.00     0.128 C 
ATOM     21  N   UNL     1       2.600   2.605  -3.487  1.00  0.00    -0.266 NA
ATOM     22  N   UNL     1       0.325   2.699  -3.622  1.00  0.00    -0.368 N 
ATOM     23  C   UNL     1       2.236   3.649  -4.482  1.00  0.00     0.165 C 
ATOM     24  C   UNL     1       0.749   3.458  -4.778  1.00  0.00     0.138 C 
ATOM     25  H   UNL     1      -0.451   2.064  -3.771  1.00  0.00     0.162 HD
ENDBRANCH   6  20
TORSDOF 3
