REMARK SMILES CCN1CCN(c2ccc3cc(-c4cn5cc(C)nc(C)c5n4)c(=O)oc3c2)C[C@@H]1C
REMARK SMILES IDX 7 1 8 2 9 3 10 4 11 5 12 6 24 7 25 8 26 9 27 10 28 11 6 12
REMARK SMILES IDX 3 13 4 14 30 15 5 16 29 17 31 18 2 19 1 20 13 21 14 22 23 23
REMARK SMILES IDX 15 24 22 25 16 26 20 27 17 28 19 29 21 30 18 31
REMARK H PARENT
ROOT
ATOM      1  C   UNL     1       0.732  -0.608   2.217  1.00  0.00     0.040 A 
ATOM      2  C   UNL     1       1.479  -1.631   1.593  1.00  0.00     0.027 A 
ATOM      3  C   UNL     1       1.428  -1.882   0.211  1.00  0.00     0.014 A 
ATOM      4  C   UNL     1       0.598  -1.123  -0.601  1.00  0.00     0.018 A 
ATOM      5  C   UNL     1       0.513  -1.316  -2.037  1.00  0.00     0.030 C 
ATOM      6  C   UNL     1      -0.349  -0.599  -2.781  1.00  0.00     0.088 C 
ATOM      7  C   UNL     1      -1.273   0.377  -2.131  1.00  0.00     0.345 C 
ATOM      8  O   UNL     1      -2.199   0.918  -2.726  1.00  0.00    -0.246 OA
ATOM      9  O   UNL     1      -1.065   0.630  -0.774  1.00  0.00    -0.422 OA
ATOM     10  C   UNL     1      -0.165  -0.133  -0.008  1.00  0.00     0.140 A 
ATOM     11  C   UNL     1      -0.106   0.130   1.366  1.00  0.00     0.073 A 
ENDROOT
BRANCH   1  12
ATOM     12  N   UNL     1       0.791  -0.390   3.591  1.00  0.00    -0.369 N 
ATOM     13  N   UNL     1       0.568  -0.336   6.522  1.00  0.00    -0.297 NA
ATOM     14  C   UNL     1       1.862  -0.601   5.861  1.00  0.00     0.106 C 
ATOM     15  C   UNL     1      -0.270   0.545   5.659  1.00  0.00     0.073 C 
ATOM     16  C   UNL     1       1.770  -1.134   4.412  1.00  0.00     0.132 C 
ATOM     17  C   UNL     1       0.277   0.840   4.224  1.00  0.00     0.135 C 
ATOM     18  C   UNL     1      -0.467   1.869   6.407  1.00  0.00     0.026 C 
BRANCH  13  19
ATOM     19  C   UNL     1      -0.122  -1.598   6.840  1.00  0.00     0.081 C 
ATOM     20  C   UNL     1      -1.238  -1.398   7.861  1.00  0.00     0.021 C 
ENDBRANCH  13  19
ENDBRANCH   1  12
BRANCH   6  21
ATOM     21  C   UNL     1      -0.421  -0.743  -4.196  1.00  0.00     0.097 A 
ATOM     22  C   UNL     1      -0.746  -1.880  -4.908  1.00  0.00     0.122 A 
ATOM     23  N   UNL     1      -0.092   0.299  -5.026  1.00  0.00    -0.226 NA
ATOM     24  N   UNL     1      -0.661  -1.500  -6.220  1.00  0.00    -0.303 N 
ATOM     25  C   UNL     1      -0.275  -0.186  -6.235  1.00  0.00     0.158 A 
ATOM     26  C   UNL     1      -0.880  -2.180  -7.402  1.00  0.00     0.116 C 
ATOM     27  C   UNL     1      -0.123   0.466  -7.512  1.00  0.00     0.081 C 
ATOM     28  C   UNL     1      -0.713  -1.519  -8.565  1.00  0.00     0.054 C 
ATOM     29  N   UNL     1      -0.330  -0.181  -8.631  1.00  0.00    -0.253 NA
ATOM     30  C   UNL     1       0.284   1.913  -7.541  1.00  0.00     0.071 C 
ATOM     31  C   UNL     1      -0.930  -2.190  -9.890  1.00  0.00     0.068 C 
ENDBRANCH   6  21
TORSDOF 3
