REMARK SMILES CCCCCc1cc(/C=C2\N=CC(c3ccc[nH]3)=C2OC)[nH]c1C
REMARK SMILES IDX 5 1 4 2 3 3 2 4 1 5 6 6 7 7 23 8 8 9 22 10 24 11 9 13 10 14
REMARK SMILES IDX 11 15 19 16 12 17 13 18 20 19 21 20 14 21 15 22 18 23 16 24
REMARK SMILES IDX 17 25
REMARK H PARENT 22 12 18 26
ROOT
ATOM      1  C   UNL     1      -0.276  -3.450   3.274  1.00  0.00     0.037 C 
ENDROOT
BRANCH   1   2
ATOM      2  C   UNL     1      -0.381  -4.865   2.696  1.00  0.00     0.005 C 
BRANCH   2   3
ATOM      3  C   UNL     1      -1.067  -4.973   1.329  1.00  0.00     0.000 C 
BRANCH   3   4
ATOM      4  C   UNL     1      -2.530  -4.528   1.345  1.00  0.00    -0.003 C 
ATOM      5  C   UNL     1      -3.188  -4.740  -0.011  1.00  0.00     0.004 C 
ENDBRANCH   3   4
ENDBRANCH   2   3
ENDBRANCH   1   2
BRANCH   1   6
ATOM      6  C   UNL     1       0.572  -2.525   2.459  1.00  0.00    -0.027 A 
ATOM      7  C   UNL     1       0.098  -1.577   1.508  1.00  0.00     0.031 A 
ATOM      8  C   UNL     1       1.952  -2.407   2.479  1.00  0.00     0.015 A 
ATOM      9  C   UNL     1       1.181  -0.915   0.965  1.00  0.00     0.041 A 
ATOM     10  N   UNL     1       2.300  -1.434   1.572  1.00  0.00    -0.359 N 
ATOM     11  C   UNL     1       2.976  -3.127   3.279  1.00  0.00     0.064 C 
ATOM     12  H   UNL     1       3.249  -1.148   1.378  1.00  0.00     0.166 HD
BRANCH   9  13
ATOM     13  C   UNL     1       1.363   0.107  -0.004  1.00  0.00     0.058 C 
ATOM     14  C   UNL     1       0.379   0.619  -0.761  1.00  0.00     0.108 C 
ATOM     15  N   UNL     1      -0.950   0.246  -0.767  1.00  0.00    -0.252 NA
ATOM     16  C   UNL     1       0.538   1.664  -1.761  1.00  0.00     0.155 C 
ATOM     17  C   UNL     1      -1.493   0.949  -1.713  1.00  0.00     0.126 C 
ATOM     18  C   UNL     1      -0.604   1.870  -2.424  1.00  0.00     0.061 C 
BRANCH  16  19
ATOM     19  O   UNL     1       1.751   2.266  -1.987  1.00  0.00    -0.494 OA
ATOM     20  C   UNL     1       1.917   3.389  -1.117  1.00  0.00     0.278 C 
ENDBRANCH  16  19
BRANCH  18  21
ATOM     21  C   UNL     1      -0.908   2.733  -3.486  1.00  0.00     0.051 A 
ATOM     22  C   UNL     1      -2.093   3.170  -4.047  1.00  0.00     0.028 A 
ATOM     23  N   UNL     1       0.114   3.305  -4.211  1.00  0.00    -0.361 N 
ATOM     24  C   UNL     1      -1.774   4.040  -5.119  1.00  0.00     0.020 A 
ATOM     25  C   UNL     1      -0.402   4.104  -5.197  1.00  0.00     0.083 A 
ATOM     26  H   UNL     1       1.101   3.147  -4.041  1.00  0.00     0.166 HD
ENDBRANCH  18  21
ENDBRANCH   9  13
ENDBRANCH   1   6
TORSDOF 7
