REMARK SMILES NC1CCCN(c2ncccn2)C1
REMARK SMILES IDX 4 1 3 2 2 3 13 4 6 5 5 6 1 7 7 10 8 11 12 12 9 13 11 14
REMARK SMILES IDX 10 15
REMARK H PARENT 1 8 1 9
ROOT
ATOM      1  C   UNL     1      -2.163  -1.264  -0.762  1.00  0.00     0.023 C 
ATOM      2  C   UNL     1      -2.798   0.057  -0.318  1.00  0.00     0.022 C 
ATOM      3  C   UNL     1      -1.798   1.011   0.346  1.00  0.00     0.070 C 
ATOM      4  C   UNL     1      -0.437   0.995  -0.392  1.00  0.00     0.138 C 
ATOM      5  N   UNL     1       0.086  -0.362  -0.514  1.00  0.00    -0.339 N 
ATOM      6  C   UNL     1      -0.768  -1.493  -0.183  1.00  0.00     0.120 C 
ENDROOT
BRANCH   3   7
ATOM      7  N   UNL     1      -2.394   2.351   0.447  1.00  0.00    -0.326 NA
ATOM      8  H   UNL     1      -1.728   2.984   0.889  1.00  0.00     0.119 HD
ATOM      9  H   UNL     1      -2.555   2.724  -0.489  1.00  0.00     0.119 HD
ENDBRANCH   3   7
BRANCH   5  10
ATOM     10  C   UNL     1       1.456  -0.530  -0.439  1.00  0.00     0.225 A 
ATOM     11  N   UNL     1       2.251   0.532  -0.662  1.00  0.00    -0.221 NA
ATOM     12  N   UNL     1       1.950  -1.750  -0.166  1.00  0.00    -0.221 NA
ATOM     13  C   UNL     1       3.583   0.344  -0.604  1.00  0.00     0.117 A 
ATOM     14  C   UNL     1       3.288  -1.892  -0.117  1.00  0.00     0.117 A 
ATOM     15  C   UNL     1       4.167  -0.864  -0.332  1.00  0.00     0.040 A 
ENDBRANCH   5  10
TORSDOF 2
