REMARK SMILES CC[C@@]1(O)C(=O)OCc2c1cc1n(c2=O)Cc2cc3c(CN(C)C)c(O)ccc3nc2-1
REMARK SMILES IDX 3 1 5 2 6 3 7 4 8 5 9 6 10 7 11 8 12 9 13 10 14 11 15 12
REMARK SMILES IDX 16 13 17 14 18 15 19 16 20 17 25 18 27 19 28 20 29 21 30 22
REMARK SMILES IDX 31 23 2 24 1 25 4 26 21 28 22 29 23 30 24 31 26 32
REMARK H PARENT 4 27 26 33
ROOT
ATOM      1  C   UNL     1      -0.606   1.758   4.695  1.00  0.00     0.187 C 
ATOM      2  C   UNL     1       0.096   2.839   5.545  1.00  0.00     0.343 C 
ATOM      3  O   UNL     1      -0.547   3.515   6.351  1.00  0.00    -0.248 OA
ATOM      4  O   UNL     1       1.431   2.989   5.435  1.00  0.00    -0.458 OA
ATOM      5  C   UNL     1       2.197   2.518   4.306  1.00  0.00     0.275 C 
ATOM      6  C   UNL     1       1.413   1.806   3.265  1.00  0.00     0.062 C 
ATOM      7  C   UNL     1       0.123   1.452   3.417  1.00  0.00     0.009 C 
ATOM      8  C   UNL     1      -0.573   0.744   2.349  1.00  0.00     0.036 C 
ATOM      9  C   UNL     1       0.089   0.447   1.228  1.00  0.00     0.071 C 
ATOM     10  N   UNL     1       1.414   0.800   1.064  1.00  0.00    -0.302 N 
ATOM     11  C   UNL     1       2.153   1.470   2.004  1.00  0.00     0.258 C 
ATOM     12  O   UNL     1       3.331   1.776   1.860  1.00  0.00    -0.269 OA
ATOM     13  C   UNL     1       1.920   0.378  -0.246  1.00  0.00     0.164 C 
ATOM     14  C   UNL     1       0.723  -0.287  -0.853  1.00  0.00     0.000 A 
ATOM     15  C   UNL     1       0.553  -0.897  -2.078  1.00  0.00     0.018 A 
ATOM     16  C   UNL     1      -0.707  -1.462  -2.400  1.00  0.00     0.009 A 
ATOM     17  C   UNL     1      -0.998  -2.126  -3.634  1.00  0.00     0.017 A 
ATOM     18  C   UNL     1      -2.309  -2.591  -3.845  1.00  0.00     0.120 A 
ATOM     19  C   UNL     1      -3.297  -2.453  -2.883  1.00  0.00     0.049 A 
ATOM     20  C   UNL     1      -2.996  -1.835  -1.674  1.00  0.00     0.033 A 
ATOM     21  C   UNL     1      -1.735  -1.336  -1.407  1.00  0.00     0.072 A 
ATOM     22  N   UNL     1      -1.564  -0.743  -0.212  1.00  0.00    -0.246 NA
ATOM     23  C   UNL     1      -0.349  -0.242   0.020  1.00  0.00     0.092 A 
ENDROOT
BRANCH   1  24
ATOM     24  C   UNL     1      -0.862   0.513   5.571  1.00  0.00     0.049 C 
ATOM     25  C   UNL     1       0.385  -0.254   5.992  1.00  0.00     0.008 C 
ENDBRANCH   1  24
BRANCH   1  26
ATOM     26  O   UNL     1      -1.898   2.295   4.346  1.00  0.00    -0.374 OA
ATOM     27  H   UNL     1      -2.220   2.767   5.140  1.00  0.00     0.212 HD
ENDBRANCH   1  26
BRANCH  17  28
ATOM     28  C   UNL     1       0.044  -2.239  -4.742  1.00  0.00     0.124 C 
BRANCH  28  29
ATOM     29  N   UNL     1      -0.081  -3.466  -5.569  1.00  0.00    -0.305 NA
ATOM     30  C   UNL     1       0.415  -4.640  -4.831  1.00  0.00     0.105 C 
ATOM     31  C   UNL     1       0.693  -3.312  -6.807  1.00  0.00     0.105 C 
ENDBRANCH  28  29
ENDBRANCH  17  28
BRANCH  18  32
ATOM     32  O   UNL     1      -2.689  -3.212  -5.003  1.00  0.00    -0.508 OA
ATOM     33  H   UNL     1      -1.864  -3.431  -5.491  1.00  0.00     0.293 HD
ENDBRANCH  18  32
TORSDOF 5
