REMARK SMILES COc1cc2nc(N3CCCN(C)CC3)nc(NC3CCN(Cc4ccccc4)CC3)c2cc1OC
REMARK SMILES IDX 18 1 17 3 3 4 4 5 34 6 5 7 33 8 6 9 32 10 7 11 16 12 2 13
REMARK SMILES IDX 1 14 35 15 36 16 8 17 9 18 15 19 10 20 14 21 11 22 12 23
REMARK SMILES IDX 13 24 19 25 20 26 31 27 21 28 30 29 22 30 23 31 24 32 25 33
REMARK SMILES IDX 29 34 26 35 28 36 27 37
REMARK H PARENT 18 2
ROOT
ATOM      1  N   UNL     1      -0.928   0.630  -0.407  1.00  0.00    -0.367 N 
ATOM      2  H   UNL     1      -1.801   1.136  -0.278  1.00  0.00     0.162 HD
ENDROOT
BRANCH   1   3
ATOM      3  C   UNL     1      -0.372   0.439   0.880  1.00  0.00     0.139 A 
ATOM      4  C   UNL     1      -2.455  -1.614   3.901  1.00  0.00     0.162 A 
ATOM      5  C   UNL     1      -1.211  -1.008   4.112  1.00  0.00     0.079 A 
ATOM      6  C   UNL     1      -3.036  -1.567   2.625  1.00  0.00     0.161 A 
ATOM      7  C   UNL     1      -0.531  -0.348   3.096  1.00  0.00     0.082 A 
ATOM      8  C   UNL     1      -2.370  -0.889   1.603  1.00  0.00     0.064 A 
ATOM      9  N   UNL     1       0.659   0.187   3.369  1.00  0.00    -0.213 NA
ATOM     10  C   UNL     1      -1.117  -0.268   1.837  1.00  0.00     0.047 A 
ATOM     11  C   UNL     1       1.337   0.806   2.389  1.00  0.00     0.227 A 
ATOM     12  N   UNL     1       0.841   0.945   1.152  1.00  0.00    -0.195 NA
BRANCH   4  13
ATOM     13  O   UNL     1      -3.166  -2.281   4.867  1.00  0.00    -0.493 OA
ATOM     14  C   UNL     1      -2.614  -2.332   6.176  1.00  0.00     0.278 C 
ENDBRANCH   4  13
BRANCH   6  15
ATOM     15  O   UNL     1      -4.253  -2.182   2.486  1.00  0.00    -0.493 OA
ATOM     16  C   UNL     1      -4.712  -2.424   1.161  1.00  0.00     0.278 C 
ENDBRANCH   6  15
BRANCH  11  17
ATOM     17  N   UNL     1       2.573   1.369   2.696  1.00  0.00    -0.339 N 
ATOM     18  C   UNL     1       3.224   0.789   3.876  1.00  0.00     0.121 C 
ATOM     19  C   UNL     1       3.394   1.823   1.571  1.00  0.00     0.135 C 
ATOM     20  C   UNL     1       4.693   1.199   4.004  1.00  0.00     0.037 C 
ATOM     21  C   UNL     1       4.277   0.713   0.960  1.00  0.00     0.105 C 
ATOM     22  C   UNL     1       5.626   0.454   3.035  1.00  0.00     0.086 C 
ATOM     23  N   UNL     1       4.979  -0.194   1.891  1.00  0.00    -0.305 NA
ATOM     24  C   UNL     1       5.910  -1.059   1.169  1.00  0.00     0.105 C 
ENDBRANCH  11  17
ENDBRANCH   1   3
BRANCH   1  25
ATOM     25  C   UNL     1      -0.060   1.263  -1.417  1.00  0.00     0.083 C 
ATOM     26  C   UNL     1       0.968   0.237  -1.934  1.00  0.00     0.040 C 
ATOM     27  C   UNL     1      -0.934   1.794  -2.564  1.00  0.00     0.040 C 
ATOM     28  C   UNL     1       1.155   0.318  -3.448  1.00  0.00     0.087 C 
ATOM     29  C   UNL     1      -1.273   0.675  -3.542  1.00  0.00     0.087 C 
ATOM     30  N   UNL     1      -0.084   0.112  -4.209  1.00  0.00    -0.299 NA
BRANCH  30  31
ATOM     31  C   UNL     1      -0.278  -1.316  -4.542  1.00  0.00     0.120 C 
BRANCH  31  32
ATOM     32  C   UNL     1      -1.465  -1.575  -5.453  1.00  0.00    -0.034 A 
ATOM     33  C   UNL     1      -2.462  -2.488  -5.084  1.00  0.00     0.005 A 
ATOM     34  C   UNL     1      -1.578  -0.909  -6.685  1.00  0.00     0.005 A 
ATOM     35  C   UNL     1      -3.556  -2.717  -5.921  1.00  0.00     0.000 A 
ATOM     36  C   UNL     1      -2.673  -1.137  -7.517  1.00  0.00     0.000 A 
ATOM     37  C   UNL     1      -3.661  -2.042  -7.137  1.00  0.00     0.000 A 
ENDBRANCH  31  32
ENDBRANCH  30  31
ENDBRANCH   1  25
TORSDOF 7
