REMARK  Name = 
REMARK  5 active torsions:
REMARK  status: ('A' for Active; 'I' for Inactive)
REMARK    1  A    between atoms: C_3  and  O_17
REMARK    2  A    between atoms: C_6  and  C_7
REMARK    3  A    between atoms: C_8  and  C_9
REMARK    4  A    between atoms: C_11  and  O_16
REMARK    5  A    between atoms: C_13  and  O_15
REMARK                            x       y       z     vdW  Elec       q    Type
REMARK                         _______ _______ _______ _____ _____    ______ ____
ROOT
ATOM      1  C   UNL     1       0.962  -0.680  -2.534  0.00  0.00    +0.000 C 
ATOM      2  C   UNL     1       2.322  -0.680  -2.534  0.00  0.00    +0.000 C 
ENDROOT
BRANCH   1   8
ATOM      3  C   UNL     1       0.922   0.004  -0.063  0.00  0.00    +0.000 A 
ATOM      4  C   UNL     1       0.202   0.336   1.139  0.00  0.00    +0.000 A 
ATOM      5  C   UNL     1       0.922   0.668   2.342  0.00  0.00    +0.000 A 
ATOM      6  C   UNL     1       0.202   1.001   3.544  0.00  0.00    +0.000 A 
ATOM      7  C   UNL     1       0.922   1.333   4.746  0.00  0.00    +0.000 A 
ATOM      8  C   UNL     1       0.202  -0.329  -1.265  0.00  0.00    +0.000 A 
BRANCH   5   9
ATOM      9  O   UNL     1       2.342   0.668   2.342  0.00  0.00    +0.000 OA
ATOM     10  H   UNL     1       2.842   0.899   3.176  0.00  0.00    +0.000 HD
ENDBRANCH   5   9
ENDBRANCH   1   8
BRANCH   2  11
ATOM     11  C   UNL     1       3.082  -1.030  -3.802  0.00  0.00    +0.000 A 
ATOM     12  C   UNL     1       2.362  -1.363  -5.004  0.00  0.00    +0.000 A 
ATOM     13  C   UNL     1       0.922  -1.363  -5.004  0.00  0.00    +0.000 A 
ATOM     14  C   UNL     1       0.202  -1.695  -6.207  0.00  0.00    +0.000 A 
ATOM     15  C   UNL     1      -1.238  -1.695  -6.207  0.00  0.00    +0.000 A 
ATOM     16  C   UNL     1       4.523  -1.030  -3.802  0.00  0.00    +0.000 A 
BRANCH  15  17
ATOM     17  O   UNL     1      -1.948  -1.367  -5.021  0.00  0.00    +0.000 OA
ATOM     18  H   UNL     1      -2.948  -1.367  -5.021  0.00  0.00    +0.000 HD
ENDBRANCH  15  17
BRANCH  13  19
ATOM     19  O   UNL     1       0.212  -1.035  -3.819  0.00  0.00    +0.000 OA
ATOM     20  H   UNL     1      -0.788  -1.035  -3.819  0.00  0.00    +0.000 HD
ENDBRANCH  13  19
ENDBRANCH   2  11
TORSDOF 5
