REMARK  Name = 
REMARK  8 active torsions:
REMARK  status: ('A' for Active; 'I' for Inactive)
REMARK    1  A    between atoms: C_1  and  N_2
REMARK    2  A    between atoms: C_3  and  C_22
REMARK    3  A    between atoms: C_4  and  C_12
REMARK    4  A    between atoms: N_7  and  S_8
REMARK    5  A    between atoms: S_8  and  O_11
REMARK    6  A    between atoms: N_14  and  C_15
REMARK    7  A    between atoms: C_15  and  C_16
REMARK    8  A    between atoms: N_24  and  O_25
REMARK                            x       y       z     vdW  Elec       q    Type
REMARK                         _______ _______ _______ _____ _____    ______ ____
ROOT
ATOM      1  C   UNL     1       1.064  -0.037  -0.067  0.00  0.00    +0.000 C 
ATOM      2  N   UNL     1       0.574   0.095   1.312  0.00  0.00    +0.000 N 
ATOM      3  C   UNL     1       0.910  -0.863   2.266  0.00  0.00    +0.000 A 
ATOM      4  C   UNL     1       1.738  -1.983   1.900  0.00  0.00    +0.000 A 
ATOM      5  C   UNL     1       2.086  -2.973   2.886  0.00  0.00    +0.000 A 
ATOM      6  O   UNL     1       1.663  -2.859   4.079  0.00  0.00    +0.000 OA
ATOM      7  N   UNL     1      -0.200   1.142   1.654  0.00  0.00    +0.000 N 
ENDROOT
BRANCH   4   8
ATOM      8  C   UNL     1       2.245  -2.120   0.474  0.00  0.00    +0.000 C 
ATOM      9  O   UNL     1       1.938  -1.246  -0.396  0.00  0.00    +0.000 OA
ATOM     10  N   UNL     1       3.090  -3.263   0.100  0.00  0.00    +0.000 N 
ATOM     11  H   UNL     1       3.430  -3.355  -0.857  0.00  0.00    +0.000 HD
BRANCH  10  12
ATOM     12  C   UNL     1       3.445  -4.274   1.107  0.00  0.00    +0.000 C 
BRANCH  12  13
ATOM     13  C   UNL     1       2.930  -5.634   0.663  0.00  0.00    +0.000 A 
ATOM     14  C   UNL     1       1.520  -5.835   0.450  0.00  0.00    +0.000 A 
ATOM     15  C   UNL     1       0.598  -4.748   0.658  0.00  0.00    +0.000 A 
ATOM     16  C   UNL     1      -0.812  -4.949   0.445  0.00  0.00    +0.000 A 
ATOM     17  C   UNL     1      -1.734  -3.863   0.653  0.00  0.00    +0.000 A 
ATOM     18  C   UNL     1       3.852  -6.720   0.455  0.00  0.00    +0.000 A 
ENDBRANCH  12  13
ENDBRANCH  10  12
ENDBRANCH   4   8
BRANCH   3  19
ATOM     19  C   UNL     1       0.404  -0.726   3.692  0.00  0.00    +0.000 C 
ATOM     20  O   UNL     1      -0.327   0.263   4.015  0.00  0.00    +0.000 OA
ATOM     21  N   UNL     1       0.759  -1.737   4.699  0.00  0.00    +0.000 N 
ATOM     22  H   UNL     1       0.419  -1.645   5.656  0.00  0.00    +0.000 HD
BRANCH  21  23
ATOM     23  O   UNL     1       1.547  -2.802   4.351  0.00  0.00    +0.000 OA
ATOM     24  H   UNL     1       1.788  -2.736   3.383  0.00  0.00    +0.000 HD
ENDBRANCH  21  23
ENDBRANCH   3  19
BRANCH   7  25
ATOM     25  S   UNL     1      -0.625   2.352   0.449  0.00  0.00    +0.000 S 
ATOM     26  O   UNL     1       0.651   2.998  -0.097  0.00  0.00    +0.000 OA
ATOM     27  O   UNL     1      -1.390   1.685  -0.696  0.00  0.00    +0.000 OA
BRANCH  25  28
ATOM     28  O   UNL     1      -1.608   3.552   1.169  0.00  0.00    +0.000 OA
ATOM     29  H   UNL     1      -1.849   4.240   0.484  0.00  0.00    +0.000 HD
ENDBRANCH  25  28
ENDBRANCH   7  25
TORSDOF 7
