REMARK  Name = 
REMARK  8 active torsions:
REMARK  status: ('A' for Active; 'I' for Inactive)
REMARK    1  A    between atoms: C_1  and  C_2
REMARK    2  A    between atoms: C_2  and  C_3
REMARK    3  A    between atoms: C_2  and  C_4
REMARK    4  A    between atoms: C_4  and  C_5
REMARK    5  A    between atoms: C_8  and  C_11
REMARK    6  A    between atoms: C_11  and  C_12
REMARK    7  A    between atoms: C_11  and  C_13
REMARK    8  A    between atoms: C_13  and  O_15
REMARK                            x       y       z     vdW  Elec       q    Type
REMARK                         _______ _______ _______ _____ _____    ______ ____
ROOT
ATOM      1  C   UNL     1      -1.602  -0.847   1.079  0.00  0.00    +0.000 A 
ATOM      2  C   UNL     1      -1.254  -1.539  -0.135  0.00  0.00    +0.000 A 
ATOM      3  C   UNL     1      -0.426  -0.892  -1.120  0.00  0.00    +0.000 A 
ATOM      4  C   UNL     1      -0.079  -1.583  -2.335  0.00  0.00    +0.000 A 
ATOM      5  C   UNL     1       0.749  -0.936  -3.320  0.00  0.00    +0.000 A 
ATOM      6  C   UNL     1      -2.430  -1.494   2.064  0.00  0.00    +0.000 A 
ENDROOT
BRANCH   4   7
ATOM      7  C   UNL     1      -0.585  -2.995  -2.577  0.00  0.00    +0.000 C 
ATOM      8  C   UNL     1      -0.079  -3.912  -1.475  0.00  0.00    +0.000 C 
BRANCH   7   9
ATOM      9  C   UNL     1      -2.105  -2.995  -2.577  0.00  0.00    +0.000 C 
ATOM     10  O   UNL     1      -2.741  -3.377  -3.610  0.00  0.00    +0.000 OA
BRANCH   9  11
ATOM     11  O   UNL     1      -2.815  -2.570  -1.423  0.00  0.00    +0.000 OA
ATOM     12  H   UNL     1      -3.815  -2.570  -1.423  0.00  0.00    +0.000 HD
ENDBRANCH   9  11
ENDBRANCH   7   9
ENDBRANCH   4   7
BRANCH   1  13
ATOM     13  C   UNL     1      -1.096   0.565   1.322  0.00  0.00    +0.000 C 
BRANCH  13  15
ATOM     14  C   UNL     1       0.931   0.069  -0.023  0.00  0.00    +0.000 C 
ATOM     15  C   UNL     1       0.424   0.565   1.322  0.00  0.00    +0.000 C 
ATOM     16  C   UNL     1       0.931   1.977   1.564  0.00  0.00    +0.000 C 
ENDBRANCH  13  15
ENDBRANCH   1  13
TORSDOF 5
