REMARK  Name = 
REMARK  8 active torsions:
REMARK  status: ('A' for Active; 'I' for Inactive)
REMARK    1  A    between atoms: C_1  and  C_2
REMARK    2  A    between atoms: C_7  and  C_39
REMARK    3  A    between atoms: C_10  and  O_37
REMARK    4  A    between atoms: C_11  and  O_35
REMARK    5  A    between atoms: C_18  and  C_34
REMARK    6  A    between atoms: C_31  and  O_33
REMARK    7  A    between atoms: O_35  and  C_36
REMARK    8  A    between atoms: O_37  and  C_38
REMARK                            x       y       z     vdW  Elec       q    Type
REMARK                         _______ _______ _______ _____ _____    ______ ____
ROOT
ATOM      1  C   UNL     1       0.936   0.053   0.056  0.00  0.00    +0.000 C 
ATOM      2  C   UNL     1       0.430   1.418  -0.380  0.00  0.00    +0.000 C 
ATOM      3  C   UNL     1      -1.090   1.418  -0.380  0.00  0.00    +0.000 C 
ATOM      4  C   UNL     1      -1.597   1.113   1.020  0.00  0.00    +0.000 C 
ATOM      5  C   UNL     1      -1.090   2.173   1.985  0.00  0.00    +0.000 C 
ATOM      6  C   UNL     1      -1.597   1.867   3.385  0.00  0.00    +0.000 C 
ATOM      7  C   UNL     1      -1.090   0.502   3.821  0.00  0.00    +0.000 C 
ATOM      8  C   UNL     1       0.430   0.502   3.821  0.00  0.00    +0.000 C 
ATOM      9  O   UNL     1       1.065   0.267   4.896  0.00  0.00    +0.000 OA
ATOM     10  C   UNL     1       1.190   0.783   2.535  0.00  0.00    +0.000 C 
ATOM     11  C   UNL     1       0.822  -0.260   1.491  0.00  0.00    +0.000 C 
ATOM     12  C   UNL     1      -0.672  -0.201   1.220  0.00  0.00    +0.000 C 
ATOM     13  O   UNL     1      -1.096   0.055   0.049  0.00  0.00    +0.000 OA
ATOM     14  C   UNL     1      -1.660  -0.447   2.349  0.00  0.00    +0.000 C 
ATOM     15  C   UNL     1      -1.444   0.584   3.444  0.00  0.00    +0.000 C 
ATOM     16  O   UNL     1      -1.458  -1.749   2.878  0.00  0.00    +0.000 OA
ATOM     17  C   UNL     1      -2.432   0.338   4.573  0.00  0.00    +0.000 C 
ATOM     18  C   UNL     1      -2.217  -1.056   5.140  0.00  0.00    +0.000 C 
ATOM     19  C   UNL     1      -0.798  -1.172   5.673  0.00  0.00    +0.000 C 
ATOM     20  O   UNL     1      -0.601  -1.440   6.900  0.00  0.00    +0.000 OA
ATOM     21  C   UNL     1       0.384  -0.969   4.740  0.00  0.00    +0.000 C 
ATOM     22  C   UNL     1       0.328   0.430   4.149  0.00  0.00    +0.000 C 
ATOM     23  C   UNL     1       0.384   1.456   5.269  0.00  0.00    +0.000 C 
ATOM     24  C   UNL     1       1.679   1.287   6.047  0.00  0.00    +0.000 C 
ATOM     25  C   UNL     1       2.861   1.490   5.114  0.00  0.00    +0.000 C 
ATOM     26  N   UNL     1       0.330  -1.961   3.657  0.00  0.00    +0.000 N 
ATOM     27  C   UNL     1       0.369  -3.396   3.972  0.00  0.00    +0.000 C 
ATOM     28  O   UNL     1       0.450  -3.779   5.181  0.00  0.00    +0.000 OA
ATOM     29  C   UNL     1       0.313  -4.422   2.852  0.00  0.00    +0.000 C 
ATOM     30  O   UNL     1       0.347  -5.663   3.124  0.00  0.00    +0.000 OA
ATOM     31  C   UNL     1      -1.597   3.538   1.550  0.00  0.00    +0.000 C 
ATOM     32  O   UNL     1       0.903   1.704  -1.688  0.00  0.00    +0.000 OA
ATOM     33  C   UNL     1      -3.204  -1.302   6.269  0.00  0.00    +0.000 C 
ATOM     34  C   UNL     1      -1.597   0.197   5.221  0.00  0.00    +0.000 C 
ENDROOT
BRANCH  31  35
ATOM     35  O   UNL     1      -1.124   3.823   0.242  0.00  0.00    +0.000 OA
ATOM     36  H   UNL     1      -1.457   4.722  -0.045  0.00  0.00    +0.000 HD
ENDBRANCH  31  35
BRANCH  11  37
ATOM     37  O   UNL     1       1.532   0.002   0.290  0.00  0.00    +0.000 OA
ATOM     38  C   UNL     1       1.189   1.294  -0.190  0.00  0.00    +0.000 C 
ENDBRANCH  11  37
BRANCH  10  39
ATOM     39  O   UNL     1       0.847   2.074   2.054  0.00  0.00    +0.000 OA
ATOM     40  C   UNL     1      -0.549   2.129   1.801  0.00  0.00    +0.000 C 
ENDBRANCH  10  39
TORSDOF 3
