REMARK  Name = 
REMARK  6 active torsions:
REMARK  status: ('A' for Active; 'I' for Inactive)
REMARK    1  A    between atoms: C_6  and  C_7
REMARK    2  A    between atoms: C_7  and  C_8
REMARK    3  A    between atoms: C_7  and  C_12
REMARK    4  A    between atoms: C_8  and  C_9
REMARK    5  A    between atoms: C_9  and  O_11
REMARK    6  A    between atoms: C_12  and  N_13
REMARK                            x       y       z     vdW  Elec       q    Type
REMARK                         _______ _______ _______ _____ _____    ______ ____
ROOT
ATOM      1  C   UNL     1       1.057  -2.241   1.436  0.00  0.00    +0.000 C 
ENDROOT
BRANCH   1   7
ATOM      2  C   UNL     1       1.017  -0.080   0.057  0.00  0.00    +0.000 A 
ATOM      3  C   UNL     1       0.297   0.971  -0.614  0.00  0.00    +0.000 A 
ATOM      4  C   UNL     1       1.017   2.022  -1.285  0.00  0.00    +0.000 A 
ATOM      5  C   UNL     1       0.297   3.074  -1.956  0.00  0.00    +0.000 A 
ATOM      6  C   UNL     1       1.017   4.125  -2.627  0.00  0.00    +0.000 A 
ATOM      7  C   UNL     1       0.297  -1.132   0.728  0.00  0.00    +0.000 A 
ATOM      8 CL   UNL     1       2.797   2.022  -1.285  0.00  0.00    +0.000 Cl
ENDBRANCH   1   7
BRANCH   1   9
ATOM      9  C   UNL     1       1.931  -2.977   0.434  0.00  0.00    +0.000 C 
BRANCH   9  10
ATOM     10  C   UNL     1       2.919  -2.003  -0.188  0.00  0.00    +0.000 C 
ATOM     11  O   UNL     1       4.168  -2.199  -0.063  0.00  0.00    +0.000 OA
BRANCH  10  12
ATOM     12  O   UNL     1       2.445  -0.875  -0.908  0.00  0.00    +0.000 OA
ATOM     13  H   UNL     1       3.095  -0.234  -1.317  0.00  0.00    +0.000 HD
ENDBRANCH  10  12
ENDBRANCH   9  10
ENDBRANCH   1   9
BRANCH   1  14
ATOM     14  C   UNL     1       1.931  -1.641   2.526  0.00  0.00    +0.000 C 
BRANCH  14  15
ATOM     15  N   UNL     1       1.086  -0.930   3.496  0.00  0.00    +0.000 NA
ATOM     16  H   UNL     1       1.672  -0.527   4.227  0.00  0.00    +0.000 HD
ATOM     17  H   UNL     1       0.576  -0.185   3.020  0.00  0.00    +0.000 HD
ENDBRANCH  14  15
ENDBRANCH   1  14
TORSDOF 6
