REMARK  Name = 
REMARK  6 active torsions:
REMARK  status: ('A' for Active; 'I' for Inactive)
REMARK    1  A    between atoms: C_6  and  C_7
REMARK    2  A    between atoms: C_7  and  C_8
REMARK    3  A    between atoms: C_7  and  C_12
REMARK    4  A    between atoms: C_8  and  C_9
REMARK    5  A    between atoms: C_9  and  O_11
REMARK    6  A    between atoms: C_12  and  N_13
REMARK                            x       y       z     vdW  Elec       q    Type
REMARK                         _______ _______ _______ _____ _____    ______ ____
ROOT
ATOM      1  C   UNL     1       1.042   1.755  -1.729  0.00  0.00    +0.000 C 
ENDROOT
BRANCH   1   7
ATOM      2  C   UNL     1       1.002  -0.074   0.067  0.00  0.00    +0.000 A 
ATOM      3  C   UNL     1       0.282  -0.964   0.940  0.00  0.00    +0.000 A 
ATOM      4  C   UNL     1       1.002  -1.855   1.814  0.00  0.00    +0.000 A 
ATOM      5  C   UNL     1       0.282  -2.745   2.688  0.00  0.00    +0.000 A 
ATOM      6  C   UNL     1       1.002  -3.635   3.561  0.00  0.00    +0.000 A 
ATOM      7  C   UNL     1       0.282   0.816  -0.807  0.00  0.00    +0.000 A 
ATOM      8 CL   UNL     1       2.782  -1.855   1.814  0.00  0.00    +0.000 Cl
ENDBRANCH   1   7
BRANCH   1   9
ATOM      9  C   UNL     1       1.916   2.682  -0.900  0.00  0.00    +0.000 C 
BRANCH   9  10
ATOM     10  C   UNL     1       2.904   1.858  -0.090  0.00  0.00    +0.000 C 
ATOM     11  O   UNL     1       4.153   2.023  -0.253  0.00  0.00    +0.000 OA
BRANCH  10  12
ATOM     12  O   UNL     1       2.431   0.902   0.847  0.00  0.00    +0.000 OA
ATOM     13  H   UNL     1       3.080   0.360   1.380  0.00  0.00    +0.000 HD
ENDBRANCH  10  12
ENDBRANCH   9  10
ENDBRANCH   1   9
BRANCH   1  14
ATOM     14  C   UNL     1       1.916   0.943  -2.671  0.00  0.00    +0.000 C 
BRANCH  14  15
ATOM     15  N   UNL     1       1.071   0.047  -3.473  0.00  0.00    +0.000 NA
ATOM     16  H   UNL     1       1.657  -0.498  -4.105  0.00  0.00    +0.000 HD
ATOM     17  H   UNL     1       0.561  -0.583  -2.854  0.00  0.00    +0.000 HD
ENDBRANCH  14  15
ENDBRANCH   1  14
TORSDOF 6
