MODEL 1
REMARK VINA RESULT:      -5.8      0.000      0.000
REMARK SMILES Cc1cc([S+]([O-])Cc2cc(=O)[nH][nH]2)c(C)cc1Cl
REMARK SMILES IDX 5 1 6 2 4 3 2 4 3 5 17 6 16 7 14 8 1 9 18 10 15 11 7 12 8 13
REMARK SMILES IDX 9 14 13 15 10 16 12 17 11 18
REMARK H PARENT 13 19 12 20
ROOT
ATOM      1  S   UNL     1      16.492 112.834  71.413  1.00  0.00    -0.008 S 
ATOM      2  O   UNL     1      15.478 113.107  70.124  1.00  0.00    -0.611 OA
ENDROOT
BRANCH   1   3
ATOM      3  C   UNL     1      16.717 111.032  71.505  1.00  0.00     0.156 A 
ATOM      4  C   UNL     1      16.908 108.897  70.316  1.00  0.00    -0.027 A 
ATOM      5  C   UNL     1      16.711 110.287  70.313  1.00  0.00     0.066 A 
ATOM      6  C   UNL     1      17.107 108.256  71.544  1.00  0.00     0.044 A 
ATOM      7  C   UNL     1      17.091 108.985  72.737  1.00  0.00     0.029 A 
ATOM      8  C   UNL     1      16.881 110.375  72.737  1.00  0.00     0.006 A 
ATOM      9  C   UNL     1      16.896 108.145  69.016  1.00  0.00     0.046 C 
ATOM     10  Cl  UNL     1      17.368 106.551  71.642  1.00  0.00    -0.084 Cl
ATOM     11  C   UNL     1      16.850 111.100  74.056  1.00  0.00     0.050 C 
ENDBRANCH   1   3
BRANCH   1  12
ATOM     12  C   UNL     1      18.177 113.264  70.849  1.00  0.00     0.337 C 
BRANCH  12  13
ATOM     13  C   UNL     1      18.372 114.742  70.748  1.00  0.00     0.087 C 
ATOM     14  C   UNL     1      19.518 115.399  70.986  1.00  0.00     0.101 C 
ATOM     15  N   UNL     1      17.353 115.592  70.327  1.00  0.00    -0.297 N 
ATOM     16  C   UNL     1      19.216 116.814  70.700  1.00  0.00     0.264 C 
ATOM     17  N   UNL     1      17.942 116.849  70.158  1.00  0.00    -0.266 N 
ATOM     18  O   UNL     1      19.952 117.752  70.936  1.00  0.00    -0.268 OA
ATOM     19  H   UNL     1      16.864 115.248  69.495  1.00  0.00     0.188 HD
ATOM     20  H   UNL     1      17.390 117.695  70.251  1.00  0.00     0.191 HD
ENDBRANCH  12  13
ENDBRANCH   1  12
TORSDOF 3
ENDMDL
MODEL 2
REMARK VINA RESULT:      -5.4      5.492      7.540
REMARK SMILES Cc1cc([S+]([O-])Cc2cc(=O)[nH][nH]2)c(C)cc1Cl
REMARK SMILES IDX 5 1 6 2 4 3 2 4 3 5 17 6 16 7 14 8 1 9 18 10 15 11 7 12 8 13
REMARK SMILES IDX 9 14 13 15 10 16 12 17 11 18
REMARK H PARENT 13 19 12 20
ROOT
ATOM      1  S   UNL     1      17.275 107.478  70.756  1.00  0.00    -0.008 S 
ATOM      2  O   UNL     1      18.896 107.116  70.692  1.00  0.00    -0.611 OA
ENDROOT
BRANCH   1   3
ATOM      3  C   UNL     1      17.156 109.128  71.508  1.00  0.00     0.156 A 
ATOM      4  C   UNL     1      16.511 111.481  71.268  1.00  0.00    -0.027 A 
ATOM      5  C   UNL     1      16.654 110.190  70.736  1.00  0.00     0.066 A 
ATOM      6  C   UNL     1      16.887 111.697  72.598  1.00  0.00     0.044 A 
ATOM      7  C   UNL     1      17.408 110.652  73.368  1.00  0.00     0.029 A 
ATOM      8  C   UNL     1      17.566 109.363  72.833  1.00  0.00     0.006 A 
ATOM      9  C   UNL     1      15.968 112.583  70.403  1.00  0.00     0.046 C 
ATOM     10  Cl  UNL     1      16.735 113.250  73.340  1.00  0.00    -0.084 Cl
ATOM     11  C   UNL     1      18.156 108.287  73.703  1.00  0.00     0.050 C 
ENDBRANCH   1   3
BRANCH   1  12
ATOM     12  C   UNL     1      16.780 107.944  69.058  1.00  0.00     0.337 C 
BRANCH  12  13
ATOM     13  C   UNL     1      16.590 106.747  68.183  1.00  0.00     0.087 C 
ATOM     14  C   UNL     1      17.379 106.395  67.156  1.00  0.00     0.101 C 
ATOM     15  N   UNL     1      15.568 105.828  68.405  1.00  0.00    -0.297 N 
ATOM     16  C   UNL     1      16.813 105.128  66.654  1.00  0.00     0.264 C 
ATOM     17  N   UNL     1      15.818 104.756  67.542  1.00  0.00    -0.266 N 
ATOM     18  O   UNL     1      17.154 104.561  65.635  1.00  0.00    -0.268 OA
ATOM     19  H   UNL     1      15.480 105.557  69.389  1.00  0.00     0.188 HD
ATOM     20  H   UNL     1      15.058 104.170  67.213  1.00  0.00     0.191 HD
ENDBRANCH  12  13
ENDBRANCH   1  12
TORSDOF 3
ENDMDL
MODEL 3
REMARK VINA RESULT:      -5.3     10.728     12.049
REMARK SMILES Cc1cc([S+]([O-])Cc2cc(=O)[nH][nH]2)c(C)cc1Cl
REMARK SMILES IDX 5 1 6 2 4 3 2 4 3 5 17 6 16 7 14 8 1 9 18 10 15 11 7 12 8 13
REMARK SMILES IDX 9 14 13 15 10 16 12 17 11 18
REMARK H PARENT 13 19 12 20
ROOT
ATOM      1  S   UNL     1      24.314 119.827  64.720  1.00  0.00    -0.008 S 
ATOM      2  O   UNL     1      25.415 121.060  64.891  1.00  0.00    -0.611 OA
ENDROOT
BRANCH   1   3
ATOM      3  C   UNL     1      25.285 118.295  64.603  1.00  0.00     0.156 A 
ATOM      4  C   UNL     1      25.893 116.138  65.596  1.00  0.00    -0.027 A 
ATOM      5  C   UNL     1      25.191 117.352  65.641  1.00  0.00     0.066 A 
ATOM      6  C   UNL     1      26.706 115.882  64.486  1.00  0.00     0.044 A 
ATOM      7  C   UNL     1      26.824 116.823  63.459  1.00  0.00     0.029 A 
ATOM      8  C   UNL     1      26.133 118.045  63.509  1.00  0.00     0.006 A 
ATOM      9  C   UNL     1      25.758 115.161  66.729  1.00  0.00     0.046 C 
ATOM     10  Cl  UNL     1      27.598 114.409  64.340  1.00  0.00    -0.084 Cl
ATOM     11  C   UNL     1      26.321 119.027  62.385  1.00  0.00     0.050 C 
ENDBRANCH   1   3
BRANCH   1  12
ATOM     12  C   UNL     1      23.596 119.538  66.377  1.00  0.00     0.337 C 
BRANCH  12  13
ATOM     13  C   UNL     1      23.602 120.778  67.212  1.00  0.00     0.087 C 
ATOM     14  C   UNL     1      24.076 120.876  68.464  1.00  0.00     0.101 C 
ATOM     15  N   UNL     1      23.148 121.999  66.720  1.00  0.00    -0.297 N 
ATOM     16  C   UNL     1      23.909 122.297  68.827  1.00  0.00     0.264 C 
ATOM     17  N   UNL     1      23.490 122.955  67.683  1.00  0.00    -0.266 N 
ATOM     18  O   UNL     1      24.083 122.764  69.935  1.00  0.00    -0.268 OA
ATOM     19  H   UNL     1      23.503 122.209  65.782  1.00  0.00     0.188 HD
ATOM     20  H   UNL     1      22.951 123.809  67.775  1.00  0.00     0.191 HD
ENDBRANCH  12  13
ENDBRANCH   1  12
TORSDOF 3
ENDMDL
