MODEL 1
REMARK VINA RESULT:      -5.9      0.000      0.000
REMARK SMILES Cc1cc(S(=O)(=O)Cc2cc(=O)[nH][nH]2)c(C)cc1Cl
REMARK SMILES IDX 5 1 6 2 7 3 4 4 2 5 3 6 18 7 17 8 15 9 1 10 19 11 16 12 8 13
REMARK SMILES IDX 9 14 10 15 14 16 11 17 13 18 12 19
REMARK H PARENT 14 20 13 21
ROOT
ATOM      1  S   UNL     1      17.161 107.542  70.323  1.00  0.00     0.184 S 
ATOM      2  O   UNL     1      18.556 107.136  70.410  1.00  0.00    -0.223 OA
ATOM      3  O   UNL     1      16.101 106.716  70.867  1.00  0.00    -0.223 OA
ENDROOT
BRANCH   1   4
ATOM      4  C   UNL     1      17.038 109.118  71.169  1.00  0.00     0.071 A 
ATOM      5  C   UNL     1      16.435 111.487  71.133  1.00  0.00    -0.031 A 
ATOM      6  C   UNL     1      16.515 110.235  70.497  1.00  0.00     0.025 A 
ATOM      7  C   UNL     1      16.887 111.601  72.454  1.00  0.00     0.044 A 
ATOM      8  C   UNL     1      17.395 110.487  73.128  1.00  0.00     0.025 A 
ATOM      9  C   UNL     1      17.467 109.230  72.506  1.00  0.00    -0.031 A 
ATOM     10  C   UNL     1      15.870 112.664  70.385  1.00  0.00     0.046 C 
ATOM     11  Cl  UNL     1      16.831 113.104  73.301  1.00  0.00    -0.084 Cl
ATOM     12  C   UNL     1      18.022 108.074  73.295  1.00  0.00     0.046 C 
ENDBRANCH   1   4
BRANCH   1  13
ATOM     13  C   UNL     1      16.815 107.835  68.598  1.00  0.00     0.197 C 
BRANCH  13  14
ATOM     14  C   UNL     1      16.708 106.518  67.894  1.00  0.00     0.052 C 
ATOM     15  C   UNL     1      17.515 106.076  66.917  1.00  0.00     0.097 C 
ATOM     16  N   UNL     1      15.734 105.584  68.241  1.00  0.00    -0.301 N 
ATOM     17  C   UNL     1      17.000 104.736  66.571  1.00  0.00     0.264 C 
ATOM     18  N   UNL     1      15.834 104.558  67.296  1.00  0.00    -0.267 N 
ATOM     19  O   UNL     1      17.541 103.950  65.819  1.00  0.00    -0.268 OA
ATOM     20  H   UNL     1      14.794 106.007  68.298  1.00  0.00     0.187 HD
ATOM     21  H   UNL     1      15.517 103.621  67.517  1.00  0.00     0.191 HD
ENDBRANCH  13  14
ENDBRANCH   1  13
TORSDOF 3
ENDMDL
MODEL 2
REMARK VINA RESULT:      -5.7     13.506     14.683
REMARK SMILES Cc1cc(S(=O)(=O)Cc2cc(=O)[nH][nH]2)c(C)cc1Cl
REMARK SMILES IDX 5 1 6 2 7 3 4 4 2 5 3 6 18 7 17 8 15 9 1 10 19 11 16 12 8 13
REMARK SMILES IDX 9 14 10 15 14 16 11 17 13 18 12 19
REMARK H PARENT 14 20 13 21
ROOT
ATOM      1  S   UNL     1      24.465 120.277  67.122  1.00  0.00     0.184 S 
ATOM      2  O   UNL     1      23.435 120.964  67.887  1.00  0.00    -0.223 OA
ATOM      3  O   UNL     1      25.606 120.992  66.584  1.00  0.00    -0.223 OA
ENDROOT
BRANCH   1   4
ATOM      4  C   UNL     1      25.142 119.015  68.201  1.00  0.00     0.071 A 
ATOM      5  C   UNL     1      25.530 116.652  68.695  1.00  0.00    -0.031 A 
ATOM      6  C   UNL     1      25.030 117.660  67.851  1.00  0.00     0.025 A 
ATOM      7  C   UNL     1      26.144 117.025  69.897  1.00  0.00     0.044 A 
ATOM      8  C   UNL     1      26.268 118.375  70.241  1.00  0.00     0.025 A 
ATOM      9  C   UNL     1      25.784 119.389  69.398  1.00  0.00    -0.031 A 
ATOM     10  C   UNL     1      25.394 115.210  68.291  1.00  0.00     0.046 C 
ATOM     11  Cl  UNL     1      26.775 115.850  70.993  1.00  0.00    -0.084 Cl
ATOM     12  C   UNL     1      25.956 120.820  69.831  1.00  0.00     0.046 C 
ENDBRANCH   1   4
BRANCH   1  13
ATOM     13  C   UNL     1      23.641 119.443  65.778  1.00  0.00     0.197 C 
BRANCH  13  14
ATOM     14  C   UNL     1      24.372 119.735  64.505  1.00  0.00     0.052 C 
ATOM     15  C   UNL     1      25.350 118.991  63.966  1.00  0.00     0.097 C 
ATOM     16  N   UNL     1      24.054 120.842  63.721  1.00  0.00    -0.301 N 
ATOM     17  C   UNL     1      25.728 119.695  62.724  1.00  0.00     0.264 C 
ATOM     18  N   UNL     1      25.018 120.884  62.709  1.00  0.00    -0.267 N 
ATOM     19  O   UNL     1      26.491 119.267  61.880  1.00  0.00    -0.268 OA
ATOM     20  H   UNL     1      23.998 121.709  64.278  1.00  0.00     0.187 HD
ATOM     21  H   UNL     1      24.820 121.339  61.825  1.00  0.00     0.191 HD
ENDBRANCH  13  14
ENDBRANCH   1  13
TORSDOF 3
ENDMDL
MODEL 3
REMARK VINA RESULT:      -5.6     18.957     20.564
REMARK SMILES Cc1cc(S(=O)(=O)Cc2cc(=O)[nH][nH]2)c(C)cc1Cl
REMARK SMILES IDX 5 1 6 2 7 3 4 4 2 5 3 6 18 7 17 8 15 9 1 10 19 11 16 12 8 13
REMARK SMILES IDX 9 14 10 15 14 16 11 17 13 18 12 19
REMARK H PARENT 14 20 13 21
ROOT
ATOM      1  S   UNL     1      30.776 112.132  57.715  1.00  0.00     0.184 S 
ATOM      2  O   UNL     1      29.833 112.816  58.587  1.00  0.00    -0.223 OA
ATOM      3  O   UNL     1      30.810 110.685  57.631  1.00  0.00    -0.223 OA
ENDROOT
BRANCH   1   4
ATOM      4  C   UNL     1      30.441 112.711  56.052  1.00  0.00     0.071 A 
ATOM      5  C   UNL     1      31.053 114.117  54.147  1.00  0.00    -0.031 A 
ATOM      6  C   UNL     1      31.310 113.629  55.441  1.00  0.00     0.025 A 
ATOM      7  C   UNL     1      29.908 113.669  53.475  1.00  0.00     0.044 A 
ATOM      8  C   UNL     1      29.048 112.745  54.077  1.00  0.00     0.025 A 
ATOM      9  C   UNL     1      29.305 112.242  55.363  1.00  0.00    -0.031 A 
ATOM     10  C   UNL     1      32.003 115.100  53.522  1.00  0.00     0.046 C 
ATOM     11  Cl  UNL     1      29.514 114.227  51.890  1.00  0.00    -0.084 Cl
ATOM     12  C   UNL     1      28.338 111.246  55.946  1.00  0.00     0.046 C 
ENDBRANCH   1   4
BRANCH   1  13
ATOM     13  C   UNL     1      32.404 112.707  58.161  1.00  0.00     0.197 C 
BRANCH  13  14
ATOM     14  C   UNL     1      32.398 113.110  59.603  1.00  0.00     0.052 C 
ATOM     15  C   UNL     1      32.521 112.287  60.655  1.00  0.00     0.097 C 
ATOM     16  N   UNL     1      32.294 114.446  59.984  1.00  0.00    -0.301 N 
ATOM     17  C   UNL     1      32.462 113.166  61.840  1.00  0.00     0.264 C 
ATOM     18  N   UNL     1      32.171 114.439  61.377  1.00  0.00    -0.267 N 
ATOM     19  O   UNL     1      32.671 112.816  62.985  1.00  0.00    -0.268 OA
ATOM     20  H   UNL     1      31.519 114.929  59.501  1.00  0.00     0.187 HD
ATOM     21  H   UNL     1      32.445 115.247  61.924  1.00  0.00     0.191 HD
ENDBRANCH  13  14
ENDBRANCH   1  13
TORSDOF 3
ENDMDL
