MODEL 1
REMARK VINA RESULT:      -5.3      0.000      0.000
REMARK SMILES Cc1cccc(-n2ncc(Cl)c(Cl)c2=O)c1
REMARK SMILES IDX 7 1 14 2 15 3 12 4 10 5 9 6 8 7 11 8 13 9 6 10 2 11 16 12
REMARK SMILES IDX 3 13 4 14 5 15 1 16
REMARK H PARENT
ROOT
ATOM      1  N   UNL     1      17.366 111.253  70.774  1.00  0.00    -0.196 N 
ATOM      2  C   UNL     1      18.641 111.842  70.882  1.00  0.00     0.291 C 
ATOM      3  O   UNL     1      19.713 111.242  70.958  1.00  0.00    -0.266 OA
ATOM      4  C   UNL     1      18.669 113.341  70.905  1.00  0.00     0.128 C 
ATOM      5  C   UNL     1      17.545 114.049  70.825  1.00  0.00     0.085 C 
ATOM      6  C   UNL     1      16.303 113.288  70.717  1.00  0.00     0.156 C 
ATOM      7  N   UNL     1      16.205 112.004  70.691  1.00  0.00    -0.172 NA
ATOM      8  Cl  UNL     1      17.419 115.758  70.839  1.00  0.00    -0.081 Cl
ATOM      9  Cl  UNL     1      20.224 114.095  71.039  1.00  0.00    -0.077 Cl
ENDROOT
BRANCH   1  10
ATOM     10  C   UNL     1      17.125 109.827  70.737  1.00  0.00     0.069 A 
ATOM     11  C   UNL     1      16.786 107.777  69.402  1.00  0.00    -0.049 A 
ATOM     12  C   UNL     1      17.027 109.159  69.497  1.00  0.00     0.032 A 
ATOM     13  C   UNL     1      16.663 107.029  70.571  1.00  0.00     0.003 A 
ATOM     14  C   UNL     1      16.756 107.658  71.807  1.00  0.00     0.003 A 
ATOM     15  C   UNL     1      16.981 109.039  71.888  1.00  0.00     0.028 A 
ATOM     16  C   UNL     1      16.723 107.111  68.059  1.00  0.00     0.044 C 
ENDBRANCH   1  10
TORSDOF 1
ENDMDL
MODEL 2
REMARK VINA RESULT:      -4.9     10.135     12.467
REMARK SMILES Cc1cccc(-n2ncc(Cl)c(Cl)c2=O)c1
REMARK SMILES IDX 7 1 14 2 15 3 12 4 10 5 9 6 8 7 11 8 13 9 6 10 2 11 16 12
REMARK SMILES IDX 3 13 4 14 5 15 1 16
REMARK H PARENT
ROOT
ATOM      1  N   UNL     1      25.414 116.594  65.572  1.00  0.00    -0.196 N 
ATOM      2  C   UNL     1      25.569 116.700  66.969  1.00  0.00     0.291 C 
ATOM      3  O   UNL     1      25.865 117.721  67.589  1.00  0.00    -0.266 OA
ATOM      4  C   UNL     1      25.348 115.440  67.749  1.00  0.00     0.128 C 
ATOM      5  C   UNL     1      25.024 114.302  67.138  1.00  0.00     0.085 C 
ATOM      6  C   UNL     1      24.901 114.358  65.684  1.00  0.00     0.156 C 
ATOM      7  N   UNL     1      25.076 115.402  64.951  1.00  0.00    -0.172 NA
ATOM      8  Cl  UNL     1      24.742 112.790  67.893  1.00  0.00    -0.081 Cl
ATOM      9  Cl  UNL     1      25.534 115.539  69.470  1.00  0.00    -0.077 Cl
ENDROOT
BRANCH   1  10
ATOM     10  C   UNL     1      25.585 117.691  64.645  1.00  0.00     0.069 A 
ATOM     11  C   UNL     1      26.858 118.706  62.788  1.00  0.00    -0.049 A 
ATOM     12  C   UNL     1      26.641 117.665  63.707  1.00  0.00     0.032 A 
ATOM     13  C   UNL     1      25.990 119.795  62.780  1.00  0.00     0.003 A 
ATOM     14  C   UNL     1      24.941 119.850  63.692  1.00  0.00     0.003 A 
ATOM     15  C   UNL     1      24.744 118.812  64.613  1.00  0.00     0.028 A 
ATOM     16  C   UNL     1      27.975 118.613  61.790  1.00  0.00     0.044 C 
ENDBRANCH   1  10
TORSDOF 1
ENDMDL
MODEL 3
REMARK VINA RESULT:      -4.9     14.337     15.455
REMARK SMILES Cc1cccc(-n2ncc(Cl)c(Cl)c2=O)c1
REMARK SMILES IDX 7 1 14 2 15 3 12 4 10 5 9 6 8 7 11 8 13 9 6 10 2 11 16 12
REMARK SMILES IDX 3 13 4 14 5 15 1 16
REMARK H PARENT
ROOT
ATOM      1  N   UNL     1      30.063 103.869  69.496  1.00  0.00    -0.196 N 
ATOM      2  C   UNL     1      29.093 103.340  68.623  1.00  0.00     0.291 C 
ATOM      3  O   UNL     1      29.204 103.222  67.403  1.00  0.00    -0.266 OA
ATOM      4  C   UNL     1      27.815 102.886  69.262  1.00  0.00     0.128 C 
ATOM      5  C   UNL     1      27.633 102.985  70.577  1.00  0.00     0.085 C 
ATOM      6  C   UNL     1      28.736 103.556  71.345  1.00  0.00     0.156 C 
ATOM      7  N   UNL     1      29.858 103.966  70.864  1.00  0.00    -0.172 NA
ATOM      8  Cl  UNL     1      26.234 102.511  71.446  1.00  0.00    -0.081 Cl
ATOM      9  Cl  UNL     1      26.601 102.231  68.211  1.00  0.00    -0.077 Cl
ENDROOT
BRANCH   1  10
ATOM     10  C   UNL     1      31.357 104.362  69.079  1.00  0.00     0.069 A 
ATOM     11  C   UNL     1      32.892 106.274  68.783  1.00  0.00    -0.049 A 
ATOM     12  C   UNL     1      31.655 105.739  69.181  1.00  0.00     0.032 A 
ATOM     13  C   UNL     1      33.874 105.417  68.292  1.00  0.00     0.003 A 
ATOM     14  C   UNL     1      33.611 104.056  68.179  1.00  0.00     0.003 A 
ATOM     15  C   UNL     1      32.368 103.537  68.565  1.00  0.00     0.028 A 
ATOM     16  C   UNL     1      33.169 107.740  68.944  1.00  0.00     0.044 C 
ENDBRANCH   1  10
TORSDOF 1
ENDMDL
