MODEL 1
REMARK VINA RESULT:      -5.4      0.000      0.000
REMARK SMILES CCc1ccc(OCc2cc(=O)[nH][nH]2)cc1
REMARK SMILES IDX 7 1 6 2 3 3 4 4 16 5 5 6 15 7 2 8 1 9 8 10 9 11 10 12 14 13
REMARK SMILES IDX 11 14 13 15 12 16
REMARK H PARENT 14 17 13 18
ROOT
ATOM      1  O   UNL     1      17.192 107.216  69.484  1.00  0.00    -0.487 OA
ENDROOT
BRANCH   1   2
ATOM      2  C   UNL     1      17.079 108.419  70.124  1.00  0.00     0.119 A 
ATOM      3  C   UNL     1      16.841 110.744  71.696  1.00  0.00    -0.048 A 
ATOM      4  C   UNL     1      16.923 110.830  70.300  1.00  0.00     0.007 A 
ATOM      5  C   UNL     1      16.870 109.482  72.297  1.00  0.00     0.007 A 
ATOM      6  C   UNL     1      17.044 109.675  69.518  1.00  0.00     0.047 A 
ATOM      7  C   UNL     1      16.991 108.330  71.515  1.00  0.00     0.047 A 
BRANCH   3   8
ATOM      8  C   UNL     1      16.694 111.988  72.533  1.00  0.00     0.032 C 
ATOM      9  C   UNL     1      16.486 113.226  71.675  1.00  0.00     0.009 C 
ENDBRANCH   3   8
ENDBRANCH   1   2
BRANCH   1  10
ATOM     10  C   UNL     1      16.731 107.151  68.135  1.00  0.00     0.285 C 
BRANCH  10  11
ATOM     11  C   UNL     1      17.426 106.014  67.444  1.00  0.00     0.074 C 
ATOM     12  C   UNL     1      16.917 105.264  66.455  1.00  0.00     0.099 C 
ATOM     13  N   UNL     1      18.701 105.596  67.815  1.00  0.00    -0.299 N 
ATOM     14  C   UNL     1      17.949 104.244  66.180  1.00  0.00     0.264 C 
ATOM     15  N   UNL     1      18.931 104.390  67.147  1.00  0.00    -0.266 N 
ATOM     16  O   UNL     1      17.922 103.450  65.259  1.00  0.00    -0.268 OA
ATOM     17  H   UNL     1      18.847 105.582  68.826  1.00  0.00     0.188 HD
ATOM     18  H   UNL     1      19.879 104.120  66.907  1.00  0.00     0.191 HD
ENDBRANCH  10  11
ENDBRANCH   1  10
TORSDOF 4
ENDMDL
MODEL 2
REMARK VINA RESULT:      -5.1      1.049      1.362
REMARK SMILES CCc1ccc(OCc2cc(=O)[nH][nH]2)cc1
REMARK SMILES IDX 7 1 6 2 3 3 4 4 16 5 5 6 15 7 2 8 1 9 8 10 9 11 10 12 14 13
REMARK SMILES IDX 11 14 13 15 12 16
REMARK H PARENT 14 17 13 18
ROOT
ATOM      1  O   UNL     1      16.952 108.554  68.848  1.00  0.00    -0.487 OA
ENDROOT
BRANCH   1   2
ATOM      2  C   UNL     1      16.944 109.354  69.957  1.00  0.00     0.119 A 
ATOM      3  C   UNL     1      16.971 110.756  72.400  1.00  0.00    -0.048 A 
ATOM      4  C   UNL     1      16.790 111.435  71.188  1.00  0.00     0.007 A 
ATOM      5  C   UNL     1      17.130 109.367  72.378  1.00  0.00     0.007 A 
ATOM      6  C   UNL     1      16.779 110.739  69.974  1.00  0.00     0.047 A 
ATOM      7  C   UNL     1      17.119 108.674  71.164  1.00  0.00     0.047 A 
BRANCH   3   8
ATOM      8  C   UNL     1      16.965 111.506  73.707  1.00  0.00     0.032 C 
ATOM      9  C   UNL     1      16.604 110.603  74.876  1.00  0.00     0.009 C 
ENDBRANCH   3   8
ENDBRANCH   1   2
BRANCH   1  10
ATOM     10  C   UNL     1      16.547 107.197  69.022  1.00  0.00     0.285 C 
BRANCH  10  11
ATOM     11  C   UNL     1      17.316 106.339  68.061  1.00  0.00     0.074 C 
ATOM     12  C   UNL     1      16.839 105.803  66.927  1.00  0.00     0.099 C 
ATOM     13  N   UNL     1      18.639 105.974  68.295  1.00  0.00    -0.299 N 
ATOM     14  C   UNL     1      17.949 104.990  66.393  1.00  0.00     0.264 C 
ATOM     15  N   UNL     1      18.952 104.996  67.349  1.00  0.00    -0.266 N 
ATOM     16  O   UNL     1      17.959 104.444  65.305  1.00  0.00    -0.268 OA
ATOM     17  H   UNL     1      18.827 105.730  69.270  1.00  0.00     0.188 HD
ATOM     18  H   UNL     1      19.911 104.889  67.033  1.00  0.00     0.191 HD
ENDBRANCH  10  11
ENDBRANCH   1  10
TORSDOF 4
ENDMDL
MODEL 3
REMARK VINA RESULT:      -5.1      5.795      8.676
REMARK SMILES CCc1ccc(OCc2cc(=O)[nH][nH]2)cc1
REMARK SMILES IDX 7 1 6 2 3 3 4 4 16 5 5 6 15 7 2 8 1 9 8 10 9 11 10 12 14 13
REMARK SMILES IDX 11 14 13 15 12 16
REMARK H PARENT 14 17 13 18
ROOT
ATOM      1  O   UNL     1      16.584 113.469  72.599  1.00  0.00    -0.487 OA
ENDROOT
BRANCH   1   2
ATOM      2  C   UNL     1      16.655 112.303  71.889  1.00  0.00     0.119 A 
ATOM      3  C   UNL     1      16.829 109.762  70.686  1.00  0.00    -0.048 A 
ATOM      4  C   UNL     1      16.675 110.914  69.905  1.00  0.00     0.007 A 
ATOM      5  C   UNL     1      16.905 109.895  72.076  1.00  0.00     0.007 A 
ATOM      6  C   UNL     1      16.586 112.176  70.502  1.00  0.00     0.047 A 
ATOM      7  C   UNL     1      16.816 111.157  72.670  1.00  0.00     0.047 A 
BRANCH   3   8
ATOM      8  C   UNL     1      16.942 108.405  70.040  1.00  0.00     0.032 C 
ATOM      9  C   UNL     1      16.911 107.285  71.067  1.00  0.00     0.009 C 
ENDBRANCH   3   8
ENDBRANCH   1   2
BRANCH   1  10
ATOM     10  C   UNL     1      15.942 114.576  71.970  1.00  0.00     0.285 C 
BRANCH  10  11
ATOM     11  C   UNL     1      16.991 115.556  71.531  1.00  0.00     0.074 C 
ATOM     12  C   UNL     1      17.722 116.341  72.338  1.00  0.00     0.099 C 
ATOM     13  N   UNL     1      17.280 115.774  70.187  1.00  0.00    -0.299 N 
ATOM     14  C   UNL     1      18.540 117.167  71.427  1.00  0.00     0.264 C 
ATOM     15  N   UNL     1      18.106 116.899  70.138  1.00  0.00    -0.266 N 
ATOM     16  O   UNL     1      19.431 117.919  71.773  1.00  0.00    -0.268 OA
ATOM     17  H   UNL     1      16.450 115.803  69.592  1.00  0.00     0.188 HD
ATOM     18  H   UNL     1      18.774 117.001  69.381  1.00  0.00     0.191 HD
ENDBRANCH  10  11
ENDBRANCH   1  10
TORSDOF 4
ENDMDL
