MODEL 1
REMARK VINA RESULT:      -6.6      0.000      0.000
REMARK SMILES Cc1cccc(C(=O)Nc2ccccc2NC(=O)c2cccc(C)c2)c1
REMARK SMILES IDX 10 1 11 2 12 3 13 4 14 5 15 6 9 7 7 8 8 9 6 11 2 12 3 13
REMARK SMILES IDX 26 14 4 15 5 16 1 17 16 18 17 19 18 20 19 22 20 23 25 24
REMARK SMILES IDX 21 25 23 26 22 27 24 28
REMARK H PARENT 9 10 16 21
ROOT
ATOM      1  C   UNL     1      28.063 115.116  62.306  1.00  0.00     0.065 A 
ATOM      2  C   UNL     1      28.729 115.148  61.074  1.00  0.00     0.028 A 
ATOM      3  C   UNL     1      29.696 114.191  60.764  1.00  0.00     0.002 A 
ATOM      4  C   UNL     1      30.010 113.195  61.681  1.00  0.00     0.002 A 
ATOM      5  C   UNL     1      29.340 113.137  62.904  1.00  0.00     0.028 A 
ATOM      6  C   UNL     1      28.352 114.076  63.223  1.00  0.00     0.065 A 
ENDROOT
BRANCH   1   7
ATOM      7  N   UNL     1      27.172 116.150  62.697  1.00  0.00    -0.320 N 
ATOM      8  C   UNL     1      27.353 117.512  62.540  1.00  0.00     0.255 C 
ATOM      9  O   UNL     1      28.224 118.063  61.879  1.00  0.00    -0.269 OA
ATOM     10  H   UNL     1      26.333 115.854  63.168  1.00  0.00     0.170 HD
BRANCH   8  11
ATOM     11  C   UNL     1      26.319 118.356  63.202  1.00  0.00     0.040 A 
ATOM     12  C   UNL     1      24.986 118.822  65.183  1.00  0.00    -0.050 A 
ATOM     13  C   UNL     1      24.402 119.905  64.513  1.00  0.00     0.003 A 
ATOM     14  C   UNL     1      25.953 118.055  64.520  1.00  0.00     0.017 A 
ATOM     15  C   UNL     1      24.749 120.196  63.193  1.00  0.00     0.001 A 
ATOM     16  C   UNL     1      25.702 119.420  62.532  1.00  0.00     0.014 A 
ATOM     17  C   UNL     1      24.624 118.520  66.606  1.00  0.00     0.044 C 
ENDBRANCH   8  11
ENDBRANCH   1   7
BRANCH   6  18
ATOM     18  N   UNL     1      27.569 113.961  64.401  1.00  0.00    -0.320 N 
ATOM     19  C   UNL     1      26.490 113.121  64.609  1.00  0.00     0.255 C 
ATOM     20  O   UNL     1      26.127 112.202  63.886  1.00  0.00    -0.269 OA
ATOM     21  H   UNL     1      27.810 114.586  65.154  1.00  0.00     0.170 HD
BRANCH  19  22
ATOM     22  C   UNL     1      25.765 113.349  65.892  1.00  0.00     0.040 A 
ATOM     23  C   UNL     1      25.243 114.621  66.146  1.00  0.00     0.014 A 
ATOM     24  C   UNL     1      25.617 112.329  66.843  1.00  0.00     0.017 A 
ATOM     25  C   UNL     1      24.543 114.863  67.328  1.00  0.00     0.001 A 
ATOM     26  C   UNL     1      24.929 112.572  68.039  1.00  0.00    -0.050 A 
ATOM     27  C   UNL     1      24.378 113.840  68.265  1.00  0.00     0.003 A 
ATOM     28  C   UNL     1      24.743 111.476  69.047  1.00  0.00     0.044 C 
ENDBRANCH  19  22
ENDBRANCH   6  18
TORSDOF 4
ENDMDL
MODEL 2
REMARK VINA RESULT:      -6.3      1.786      5.578
REMARK SMILES Cc1cccc(C(=O)Nc2ccccc2NC(=O)c2cccc(C)c2)c1
REMARK SMILES IDX 10 1 11 2 12 3 13 4 14 5 15 6 9 7 7 8 8 9 6 11 2 12 3 13
REMARK SMILES IDX 26 14 4 15 5 16 1 17 16 18 17 19 18 20 19 22 20 23 25 24
REMARK SMILES IDX 21 25 23 26 22 27 24 28
REMARK H PARENT 9 10 16 21
ROOT
ATOM      1  C   UNL     1      24.931 114.453  66.885  1.00  0.00     0.065 A 
ATOM      2  C   UNL     1      24.092 114.491  68.006  1.00  0.00     0.028 A 
ATOM      3  C   UNL     1      23.877 113.345  68.773  1.00  0.00     0.002 A 
ATOM      4  C   UNL     1      24.497 112.149  68.426  1.00  0.00     0.002 A 
ATOM      5  C   UNL     1      25.351 112.100  67.325  1.00  0.00     0.028 A 
ATOM      6  C   UNL     1      25.595 113.246  66.557  1.00  0.00     0.065 A 
ENDROOT
BRANCH   1   7
ATOM      7  N   UNL     1      25.062 115.568  66.017  1.00  0.00    -0.320 N 
ATOM      8  C   UNL     1      25.678 116.776  66.295  1.00  0.00     0.255 C 
ATOM      9  O   UNL     1      26.373 117.035  67.268  1.00  0.00    -0.269 OA
ATOM     10  H   UNL     1      24.630 115.476  65.112  1.00  0.00     0.170 HD
BRANCH   8  11
ATOM     11  C   UNL     1      25.508 117.816  65.242  1.00  0.00     0.040 A 
ATOM     12  C   UNL     1      26.296 118.803  63.162  1.00  0.00    -0.050 A 
ATOM     13  C   UNL     1      25.244 119.725  63.222  1.00  0.00     0.003 A 
ATOM     14  C   UNL     1      26.418 117.843  64.176  1.00  0.00     0.017 A 
ATOM     15  C   UNL     1      24.348 119.714  64.292  1.00  0.00     0.001 A 
ATOM     16  C   UNL     1      24.481 118.766  65.307  1.00  0.00     0.014 A 
ATOM     17  C   UNL     1      27.248 118.806  62.004  1.00  0.00     0.044 C 
ENDBRANCH   8  11
ENDBRANCH   1   7
BRANCH   6  18
ATOM     18  N   UNL     1      26.558 113.252  65.515  1.00  0.00    -0.320 N 
ATOM     19  C   UNL     1      27.857 112.780  65.574  1.00  0.00     0.255 C 
ATOM     20  O   UNL     1      28.354 112.113  66.472  1.00  0.00    -0.269 OA
ATOM     21  H   UNL     1      26.268 113.678  64.648  1.00  0.00     0.170 HD
BRANCH  19  22
ATOM     22  C   UNL     1      28.680 113.079  64.368  1.00  0.00     0.040 A 
ATOM     23  C   UNL     1      29.913 112.434  64.224  1.00  0.00     0.014 A 
ATOM     24  C   UNL     1      28.254 113.998  63.397  1.00  0.00     0.017 A 
ATOM     25  C   UNL     1      30.698 112.677  63.099  1.00  0.00     0.001 A 
ATOM     26  C   UNL     1      29.049 114.258  62.273  1.00  0.00    -0.050 A 
ATOM     27  C   UNL     1      30.264 113.576  62.123  1.00  0.00     0.003 A 
ATOM     28  C   UNL     1      28.585 115.219  61.217  1.00  0.00     0.044 C 
ENDBRANCH  19  22
ENDBRANCH   6  18
TORSDOF 4
ENDMDL
MODEL 3
REMARK VINA RESULT:      -6.3      1.096      1.814
REMARK SMILES Cc1cccc(C(=O)Nc2ccccc2NC(=O)c2cccc(C)c2)c1
REMARK SMILES IDX 10 1 11 2 12 3 13 4 14 5 15 6 9 7 7 8 8 9 6 11 2 12 3 13
REMARK SMILES IDX 26 14 4 15 5 16 1 17 16 18 17 19 18 20 19 22 20 23 25 24
REMARK SMILES IDX 21 25 23 26 22 27 24 28
REMARK H PARENT 9 10 16 21
ROOT
ATOM      1  C   UNL     1      27.737 114.995  62.817  1.00  0.00     0.065 A 
ATOM      2  C   UNL     1      28.329 114.727  61.577  1.00  0.00     0.028 A 
ATOM      3  C   UNL     1      29.240 113.680  61.434  1.00  0.00     0.002 A 
ATOM      4  C   UNL     1      29.569 112.890  62.530  1.00  0.00     0.002 A 
ATOM      5  C   UNL     1      28.971 113.130  63.768  1.00  0.00     0.028 A 
ATOM      6  C   UNL     1      28.039 114.164  63.923  1.00  0.00     0.065 A 
ENDROOT
BRANCH   1   7
ATOM      7  N   UNL     1      26.911 116.132  63.017  1.00  0.00    -0.320 N 
ATOM      8  C   UNL     1      27.225 117.451  62.743  1.00  0.00     0.255 C 
ATOM      9  O   UNL     1      28.194 117.858  62.116  1.00  0.00    -0.269 OA
ATOM     10  H   UNL     1      26.011 115.956  63.434  1.00  0.00     0.170 HD
BRANCH   8  11
ATOM     11  C   UNL     1      26.217 118.440  63.218  1.00  0.00     0.040 A 
ATOM     12  C   UNL     1      24.725 119.189  64.988  1.00  0.00    -0.050 A 
ATOM     13  C   UNL     1      24.336 120.265  64.181  1.00  0.00     0.003 A 
ATOM     14  C   UNL     1      25.675 118.282  64.500  1.00  0.00     0.017 A 
ATOM     15  C   UNL     1      24.858 120.416  62.895  1.00  0.00     0.001 A 
ATOM     16  C   UNL     1      25.793 119.502  62.407  1.00  0.00     0.014 A 
ATOM     17  C   UNL     1      24.176 119.037  66.375  1.00  0.00     0.044 C 
ENDBRANCH   8  11
ENDBRANCH   1   7
BRANCH   6  18
ATOM     18  N   UNL     1      27.324 114.344  65.136  1.00  0.00    -0.320 N 
ATOM     19  C   UNL     1      25.967 114.170  65.340  1.00  0.00     0.255 C 
ATOM     20  O   UNL     1      25.170 113.658  64.565  1.00  0.00    -0.269 OA
ATOM     21  H   UNL     1      27.865 114.667  65.923  1.00  0.00     0.170 HD
BRANCH  19  22
ATOM     22  C   UNL     1      25.482 114.599  66.682  1.00  0.00     0.040 A 
ATOM     23  C   UNL     1      24.569 113.781  67.355  1.00  0.00     0.014 A 
ATOM     24  C   UNL     1      25.905 115.803  67.265  1.00  0.00     0.017 A 
ATOM     25  C   UNL     1      24.110 114.145  68.620  1.00  0.00     0.001 A 
ATOM     26  C   UNL     1      25.433 116.180  68.529  1.00  0.00    -0.050 A 
ATOM     27  C   UNL     1      24.548 115.333  69.209  1.00  0.00     0.003 A 
ATOM     28  C   UNL     1      25.904 117.454  69.169  1.00  0.00     0.044 C 
ENDBRANCH  19  22
ENDBRANCH   6  18
TORSDOF 4
ENDMDL
