MODEL 1
REMARK VINA RESULT:      -5.1      0.000      0.000
REMARK SMILES O=C(O)C1(Nc2ccccc2Cl)CCCC1
REMARK SMILES IDX 4 1 13 2 14 3 15 4 16 5 2 6 1 7 3 8 5 10 6 12 7 13 11 14
REMARK SMILES IDX 8 15 10 16 9 17 12 18
REMARK H PARENT 3 9 5 11
ROOT
ATOM      1  C   UNL     1      25.155 119.581  64.710  1.00  0.00     0.135 C 
ATOM      2  C   UNL     1      25.536 120.854  65.520  1.00  0.00     0.040 C 
ATOM      3  C   UNL     1      24.632 120.851  66.744  1.00  0.00     0.003 C 
ATOM      4  C   UNL     1      23.338 120.284  66.205  1.00  0.00     0.003 C 
ATOM      5  C   UNL     1      23.803 119.136  65.318  1.00  0.00     0.040 C 
ENDROOT
BRANCH   1   6
ATOM      6  C   UNL     1      25.116 120.004  63.224  1.00  0.00     0.329 C 
ATOM      7  O   UNL     1      25.479 119.328  62.272  1.00  0.00    -0.250 OA
BRANCH   6   8
ATOM      8  O   UNL     1      24.699 121.268  63.010  1.00  0.00    -0.480 OA
ATOM      9  H   UNL     1      24.359 121.546  63.887  1.00  0.00     0.296 HD
ENDBRANCH   6   8
ENDBRANCH   1   6
BRANCH   1  10
ATOM     10  N   UNL     1      26.197 118.549  64.958  1.00  0.00    -0.369 N 
ATOM     11  H   UNL     1      26.870 118.507  64.189  1.00  0.00     0.161 HD
BRANCH  10  12
ATOM     12  C   UNL     1      25.894 117.226  65.328  1.00  0.00     0.054 A 
ATOM     13  C   UNL     1      25.441 116.256  64.425  1.00  0.00     0.027 A 
ATOM     14  C   UNL     1      25.918 116.862  66.696  1.00  0.00     0.064 A 
ATOM     15  C   UNL     1      25.081 114.971  64.852  1.00  0.00     0.002 A 
ATOM     16  C   UNL     1      25.560 115.580  67.126  1.00  0.00     0.023 A 
ATOM     17  C   UNL     1      25.144 114.630  66.199  1.00  0.00     0.002 A 
ATOM     18  Cl  UNL     1      26.427 118.002  67.900  1.00  0.00    -0.082 Cl
ENDBRANCH  10  12
ENDBRANCH   1  10
TORSDOF 4
ENDMDL
MODEL 2
REMARK VINA RESULT:      -4.9      2.752      4.048
REMARK SMILES O=C(O)C1(Nc2ccccc2Cl)CCCC1
REMARK SMILES IDX 4 1 13 2 14 3 15 4 16 5 2 6 1 7 3 8 5 10 6 12 7 13 11 14
REMARK SMILES IDX 8 15 10 16 9 17 12 18
REMARK H PARENT 3 9 5 11
ROOT
ATOM      1  C   UNL     1      24.162 119.664  67.399  1.00  0.00     0.135 C 
ATOM      2  C   UNL     1      25.709 119.833  67.418  1.00  0.00     0.040 C 
ATOM      3  C   UNL     1      26.234 118.737  68.333  1.00  0.00     0.003 C 
ATOM      4  C   UNL     1      25.164 118.646  69.397  1.00  0.00     0.003 C 
ATOM      5  C   UNL     1      23.869 118.730  68.598  1.00  0.00     0.040 C 
ENDROOT
BRANCH   1   6
ATOM      6  C   UNL     1      23.566 121.087  67.496  1.00  0.00     0.329 C 
ATOM      7  O   UNL     1      23.946 121.979  68.242  1.00  0.00    -0.250 OA
BRANCH   6   8
ATOM      8  O   UNL     1      22.486 121.298  66.718  1.00  0.00    -0.480 OA
ATOM      9  H   UNL     1      21.977 120.463  66.804  1.00  0.00     0.296 HD
ENDBRANCH   6   8
ENDBRANCH   1   6
BRANCH   1  10
ATOM     10  N   UNL     1      23.787 119.000  66.123  1.00  0.00    -0.369 N 
ATOM     11  H   UNL     1      23.550 118.015  66.272  1.00  0.00     0.161 HD
BRANCH  10  12
ATOM     12  C   UNL     1      24.573 119.075  64.958  1.00  0.00     0.054 A 
ATOM     13  C   UNL     1      24.514 120.144  64.055  1.00  0.00     0.027 A 
ATOM     14  C   UNL     1      25.380 117.972  64.590  1.00  0.00     0.064 A 
ATOM     15  C   UNL     1      25.261 120.141  62.870  1.00  0.00     0.002 A 
ATOM     16  C   UNL     1      26.128 117.965  63.408  1.00  0.00     0.023 A 
ATOM     17  C   UNL     1      26.071 119.057  62.548  1.00  0.00     0.002 A 
ATOM     18  Cl  UNL     1      25.492 116.581  65.620  1.00  0.00    -0.082 Cl
ENDBRANCH  10  12
ENDBRANCH   1  10
TORSDOF 4
ENDMDL
MODEL 3
REMARK VINA RESULT:      -4.8      3.157      4.457
REMARK SMILES O=C(O)C1(Nc2ccccc2Cl)CCCC1
REMARK SMILES IDX 4 1 13 2 14 3 15 4 16 5 2 6 1 7 3 8 5 10 6 12 7 13 11 14
REMARK SMILES IDX 8 15 10 16 9 17 12 18
REMARK H PARENT 3 9 5 11
ROOT
ATOM      1  C   UNL     1      25.283 118.416  67.604  1.00  0.00     0.135 C 
ATOM      2  C   UNL     1      24.156 118.789  68.609  1.00  0.00     0.040 C 
ATOM      3  C   UNL     1      24.135 120.310  68.664  1.00  0.00     0.003 C 
ATOM      4  C   UNL     1      25.598 120.670  68.529  1.00  0.00     0.003 C 
ATOM      5  C   UNL     1      26.090 119.727  67.437  1.00  0.00     0.040 C 
ENDROOT
BRANCH   1   6
ATOM      6  C   UNL     1      26.052 117.231  68.229  1.00  0.00     0.329 C 
ATOM      7  O   UNL     1      25.569 116.163  68.582  1.00  0.00    -0.250 OA
BRANCH   6   8
ATOM      8  O   UNL     1      27.361 117.464  68.451  1.00  0.00    -0.480 OA
ATOM      9  H   UNL     1      27.722 117.609  67.550  1.00  0.00     0.296 HD
ENDBRANCH   6   8
ENDBRANCH   1   6
BRANCH   1  10
ATOM     10  N   UNL     1      24.645 118.037  66.316  1.00  0.00    -0.369 N 
ATOM     11  H   UNL     1      24.621 117.021  66.197  1.00  0.00     0.161 HD
BRANCH  10  12
ATOM     12  C   UNL     1      25.016 118.599  65.080  1.00  0.00     0.054 A 
ATOM     13  C   UNL     1      24.389 119.721  64.524  1.00  0.00     0.027 A 
ATOM     14  C   UNL     1      25.982 117.945  64.279  1.00  0.00     0.064 A 
ATOM     15  C   UNL     1      24.743 120.202  63.256  1.00  0.00     0.002 A 
ATOM     16  C   UNL     1      26.338 118.421  63.013  1.00  0.00     0.023 A 
ATOM     17  C   UNL     1      25.719 119.557  62.503  1.00  0.00     0.002 A 
ATOM     18  Cl  UNL     1      26.789 116.524  64.860  1.00  0.00    -0.082 Cl
ENDBRANCH  10  12
ENDBRANCH   1  10
TORSDOF 4
ENDMDL
