MODEL 1
REMARK VINA RESULT:      -5.2      0.000      0.000
REMARK SMILES CCC(=O)Nc1sc2c(c1C#N)CC(C)(CC)OC2
REMARK SMILES IDX 6 1 7 2 8 3 9 4 10 5 11 6 12 7 13 8 14 9 15 10 18 11 19 12
REMARK SMILES IDX 5 13 3 14 4 15 2 17 1 18 16 19 17 20
REMARK H PARENT 5 16
ROOT
ATOM      1  C   UNL     1      23.810 119.901  66.183  1.00  0.00     0.114 A 
ATOM      2  S   UNL     1      24.299 119.870  64.552  1.00  0.00    -0.119 S 
ATOM      3  C   UNL     1      25.216 118.461  64.770  1.00  0.00     0.037 A 
ATOM      4  C   UNL     1      25.155 117.991  66.064  1.00  0.00    -0.009 A 
ATOM      5  C   UNL     1      24.346 118.834  66.888  1.00  0.00     0.090 A 
ATOM      6  C   UNL     1      24.103 118.617  68.283  1.00  0.00     0.103 C 
ATOM      7  N   UNL     1      23.883 118.469  69.413  1.00  0.00    -0.192 NA
ATOM      8  C   UNL     1      25.914 116.758  66.450  1.00  0.00     0.073 C 
ATOM      9  C   UNL     1      26.327 115.937  65.190  1.00  0.00     0.070 C 
ATOM     10  C   UNL     1      27.491 115.013  65.588  1.00  0.00     0.043 C 
ATOM     11  O   UNL     1      26.863 116.824  64.181  1.00  0.00    -0.369 OA
ATOM     12  C   UNL     1      25.956 117.809  63.650  1.00  0.00     0.208 C 
ENDROOT
BRANCH   1  13
ATOM     13  N   UNL     1      22.982 120.902  66.680  1.00  0.00    -0.317 N 
ATOM     14  C   UNL     1      23.341 121.933  67.537  1.00  0.00     0.224 C 
ATOM     15  O   UNL     1      24.448 122.162  68.006  1.00  0.00    -0.275 OA
ATOM     16  H   UNL     1      22.015 120.876  66.378  1.00  0.00     0.170 HD
BRANCH  14  17
ATOM     17  C   UNL     1      22.138 122.812  67.854  1.00  0.00     0.097 C 
ATOM     18  C   UNL     1      22.535 124.193  68.346  1.00  0.00     0.014 C 
ENDBRANCH  14  17
ENDBRANCH   1  13
BRANCH   9  19
ATOM     19  C   UNL     1      25.138 115.094  64.658  1.00  0.00     0.032 C 
ATOM     20  C   UNL     1      25.291 113.588  64.844  1.00  0.00     0.007 C 
ENDBRANCH   9  19
TORSDOF 3
ENDMDL
MODEL 2
REMARK VINA RESULT:      -4.8     12.316     14.178
REMARK SMILES CCC(=O)Nc1sc2c(c1C#N)CC(C)(CC)OC2
REMARK SMILES IDX 6 1 7 2 8 3 9 4 10 5 11 6 12 7 13 8 14 9 15 10 18 11 19 12
REMARK SMILES IDX 5 13 3 14 4 15 2 17 1 18 16 19 17 20
REMARK H PARENT 5 16
ROOT
ATOM      1  C   UNL     1      17.321 109.072  70.090  1.00  0.00     0.114 A 
ATOM      2  S   UNL     1      16.550 110.570  70.340  1.00  0.00    -0.119 S 
ATOM      3  C   UNL     1      17.131 110.694  71.928  1.00  0.00     0.037 A 
ATOM      4  C   UNL     1      17.920 109.622  72.282  1.00  0.00    -0.009 A 
ATOM      5  C   UNL     1      18.022 108.673  71.217  1.00  0.00     0.090 A 
ATOM      6  C   UNL     1      18.760 107.448  71.287  1.00  0.00     0.103 C 
ATOM      7  N   UNL     1      19.351 106.449  71.308  1.00  0.00    -0.192 NA
ATOM      8  C   UNL     1      18.516 109.551  73.656  1.00  0.00     0.073 C 
ATOM      9  C   UNL     1      18.494 110.948  74.348  1.00  0.00     0.070 C 
ATOM     10  C   UNL     1      18.625 110.726  75.865  1.00  0.00     0.043 C 
ATOM     11  O   UNL     1      17.204 111.571  74.157  1.00  0.00    -0.369 OA
ATOM     12  C   UNL     1      16.836 111.871  72.796  1.00  0.00     0.208 C 
ENDROOT
BRANCH   1  13
ATOM     13  N   UNL     1      17.214 108.387  68.884  1.00  0.00    -0.317 N 
ATOM     14  C   UNL     1      16.531 107.200  68.656  1.00  0.00     0.224 C 
ATOM     15  O   UNL     1      15.889 106.542  69.464  1.00  0.00    -0.275 OA
ATOM     16  H   UNL     1      17.681 108.804  68.087  1.00  0.00     0.170 HD
BRANCH  14  17
ATOM     17  C   UNL     1      16.667 106.772  67.201  1.00  0.00     0.097 C 
ATOM     18  C   UNL     1      17.826 105.816  66.976  1.00  0.00     0.014 C 
ENDBRANCH  14  17
ENDBRANCH   1  13
BRANCH   9  19
ATOM     19  C   UNL     1      19.658 111.841  73.840  1.00  0.00     0.032 C 
ATOM     20  C   UNL     1      20.394 112.610  74.932  1.00  0.00     0.007 C 
ENDBRANCH   9  19
TORSDOF 3
ENDMDL
MODEL 3
REMARK VINA RESULT:      -4.8      1.281      1.281
REMARK SMILES CCC(=O)Nc1sc2c(c1C#N)CC(C)(CC)OC2
REMARK SMILES IDX 6 1 7 2 8 3 9 4 10 5 11 6 12 7 13 8 14 9 15 10 18 11 19 12
REMARK SMILES IDX 5 13 3 14 4 15 2 17 1 18 16 19 17 20
REMARK H PARENT 5 16
ROOT
ATOM      1  C   UNL     1      25.089 120.363  65.985  1.00  0.00     0.114 A 
ATOM      2  S   UNL     1      25.037 120.104  64.301  1.00  0.00    -0.119 S 
ATOM      3  C   UNL     1      25.742 118.568  64.435  1.00  0.00     0.037 A 
ATOM      4  C   UNL     1      26.011 118.227  65.743  1.00  0.00    -0.009 A 
ATOM      5  C   UNL     1      25.641 119.275  66.643  1.00  0.00     0.090 A 
ATOM      6  C   UNL     1      25.811 119.224  68.064  1.00  0.00     0.103 C 
ATOM      7  N   UNL     1      25.930 119.215  69.219  1.00  0.00    -0.192 NA
ATOM      8  C   UNL     1      26.647 116.907  66.057  1.00  0.00     0.073 C 
ATOM      9  C   UNL     1      26.515 115.921  64.856  1.00  0.00     0.070 C 
ATOM     10  C   UNL     1      27.583 114.827  65.023  1.00  0.00     0.043 C 
ATOM     11  O   UNL     1      26.845 116.602  63.624  1.00  0.00    -0.369 OA
ATOM     12  C   UNL     1      25.986 117.696  63.249  1.00  0.00     0.208 C 
ENDROOT
BRANCH   1  13
ATOM     13  N   UNL     1      24.625 121.541  66.558  1.00  0.00    -0.317 N 
ATOM     14  C   UNL     1      23.403 121.739  67.187  1.00  0.00     0.224 C 
ATOM     15  O   UNL     1      22.514 120.916  67.365  1.00  0.00    -0.275 OA
ATOM     16  H   UNL     1      25.249 122.339  66.515  1.00  0.00     0.170 HD
BRANCH  14  17
ATOM     17  C   UNL     1      23.272 123.177  67.669  1.00  0.00     0.097 C 
ATOM     18  C   UNL     1      23.940 123.408  69.014  1.00  0.00     0.014 C 
ENDBRANCH  14  17
ENDBRANCH   1  13
BRANCH   9  19
ATOM     19  C   UNL     1      25.101 115.281  64.812  1.00  0.00     0.032 C 
ATOM     20  C   UNL     1      24.807 114.308  65.949  1.00  0.00     0.007 C 
ENDBRANCH   9  19
TORSDOF 3
ENDMDL
