MODEL 1
REMARK VINA RESULT:      -5.7      0.000      0.000
REMARK SMILES CCc1nonc1NC(=O)c1oc2ccccc2c1C
REMARK SMILES IDX 3 1 4 2 5 3 6 4 7 5 2 6 1 7 8 8 9 9 10 10 11 12 12 13 19 14
REMARK SMILES IDX 13 15 18 16 14 17 17 18 15 19 16 20 20 21
REMARK H PARENT 8 11
ROOT
ATOM      1  C   UNL     1      29.490 113.160  61.832  1.00  0.00     0.129 A 
ATOM      2  N   UNL     1      29.902 111.900  61.673  1.00  0.00    -0.053 NA
ATOM      3  O   UNL     1      28.895 111.126  62.237  1.00  0.00    -0.242 OA
ATOM      4  N   UNL     1      27.879 111.920  62.747  1.00  0.00    -0.032 NA
ATOM      5  C   UNL     1      28.238 113.177  62.495  1.00  0.00     0.201 A 
ENDROOT
BRANCH   1   6
ATOM      6  C   UNL     1      30.322 114.289  61.341  1.00  0.00     0.061 C 
ATOM      7  C   UNL     1      31.754 113.869  61.047  1.00  0.00     0.011 C 
ENDBRANCH   1   6
BRANCH   5   8
ATOM      8  N   UNL     1      27.528 114.314  62.838  1.00  0.00    -0.299 N 
ATOM      9  C   UNL     1      27.478 114.858  64.109  1.00  0.00     0.292 C 
ATOM     10  O   UNL     1      27.983 114.356  65.106  1.00  0.00    -0.265 OA
ATOM     11  H   UNL     1      26.955 114.726  62.121  1.00  0.00     0.172 HD
BRANCH   9  12
ATOM     12  C   UNL     1      26.712 116.095  64.165  1.00  0.00     0.196 A 
ATOM     13  O   UNL     1      26.848 116.957  63.111  1.00  0.00    -0.451 OA
ATOM     14  C   UNL     1      25.820 116.629  65.095  1.00  0.00     0.008 A 
ATOM     15  C   UNL     1      26.085 118.048  63.364  1.00  0.00     0.135 A 
ATOM     16  C   UNL     1      25.429 117.906  64.579  1.00  0.00     0.024 A 
ATOM     17  C   UNL     1      25.966 119.158  62.530  1.00  0.00     0.048 A 
ATOM     18  C   UNL     1      24.582 118.949  65.002  1.00  0.00     0.012 A 
ATOM     19  C   UNL     1      25.124 120.182  62.972  1.00  0.00     0.004 A 
ATOM     20  C   UNL     1      24.442 120.081  64.186  1.00  0.00     0.001 A 
ATOM     21  C   UNL     1      25.327 116.010  66.353  1.00  0.00     0.049 C 
ENDBRANCH   9  12
ENDBRANCH   5   8
TORSDOF 3
ENDMDL
MODEL 2
REMARK VINA RESULT:      -5.4      1.644      2.103
REMARK SMILES CCc1nonc1NC(=O)c1oc2ccccc2c1C
REMARK SMILES IDX 3 1 4 2 5 3 6 4 7 5 2 6 1 7 8 8 9 9 10 10 11 12 12 13 19 14
REMARK SMILES IDX 13 15 18 16 14 17 17 18 15 19 16 20 20 21
REMARK H PARENT 8 11
ROOT
ATOM      1  C   UNL     1      28.978 113.447  60.280  1.00  0.00     0.129 A 
ATOM      2  N   UNL     1      30.086 112.810  59.894  1.00  0.00    -0.053 NA
ATOM      3  O   UNL     1      31.117 113.453  60.570  1.00  0.00    -0.242 OA
ATOM      4  N   UNL     1      30.631 114.486  61.356  1.00  0.00    -0.032 NA
ATOM      5  C   UNL     1      29.311 114.484  61.186  1.00  0.00     0.201 A 
ENDROOT
BRANCH   1   6
ATOM      6  C   UNL     1      27.652 113.029  59.757  1.00  0.00     0.061 C 
ATOM      7  C   UNL     1      27.145 111.755  60.415  1.00  0.00     0.011 C 
ENDBRANCH   1   6
BRANCH   5   8
ATOM      8  N   UNL     1      28.410 115.357  61.771  1.00  0.00    -0.299 N 
ATOM      9  C   UNL     1      27.824 115.171  63.009  1.00  0.00     0.292 C 
ATOM     10  O   UNL     1      27.960 114.172  63.706  1.00  0.00    -0.265 OA
ATOM     11  H   UNL     1      28.114 116.143  61.216  1.00  0.00     0.172 HD
BRANCH   9  12
ATOM     12  C   UNL     1      26.970 116.282  63.404  1.00  0.00     0.196 A 
ATOM     13  O   UNL     1      27.074 117.434  62.673  1.00  0.00    -0.451 OA
ATOM     14  C   UNL     1      26.014 116.450  64.406  1.00  0.00     0.008 A 
ATOM     15  C   UNL     1      26.227 118.347  63.209  1.00  0.00     0.135 A 
ATOM     16  C   UNL     1      25.549 117.798  64.288  1.00  0.00     0.024 A 
ATOM     17  C   UNL     1      26.053 119.651  62.751  1.00  0.00     0.048 A 
ATOM     18  C   UNL     1      24.617 118.606  64.967  1.00  0.00     0.012 A 
ATOM     19  C   UNL     1      25.128 120.437  63.442  1.00  0.00     0.004 A 
ATOM     20  C   UNL     1      24.420 119.925  64.532  1.00  0.00     0.001 A 
ATOM     21  C   UNL     1      25.531 115.444  65.388  1.00  0.00     0.049 C 
ENDBRANCH   9  12
ENDBRANCH   5   8
TORSDOF 3
ENDMDL
MODEL 3
REMARK VINA RESULT:      -5.4      1.445      2.412
REMARK SMILES CCc1nonc1NC(=O)c1oc2ccccc2c1C
REMARK SMILES IDX 3 1 4 2 5 3 6 4 7 5 2 6 1 7 8 8 9 9 10 10 11 12 12 13 19 14
REMARK SMILES IDX 13 15 18 16 14 17 17 18 15 19 16 20 20 21
REMARK H PARENT 8 11
ROOT
ATOM      1  C   UNL     1      27.109 111.486  63.095  1.00  0.00     0.129 A 
ATOM      2  N   UNL     1      27.926 110.519  62.674  1.00  0.00    -0.053 NA
ATOM      3  O   UNL     1      29.034 111.188  62.167  1.00  0.00    -0.242 OA
ATOM      4  N   UNL     1      28.881 112.561  62.274  1.00  0.00    -0.032 NA
ATOM      5  C   UNL     1      27.696 112.752  62.851  1.00  0.00     0.201 A 
ENDROOT
BRANCH   1   6
ATOM      6  C   UNL     1      25.800 111.147  63.711  1.00  0.00     0.061 C 
ATOM      7  C   UNL     1      24.676 111.089  62.689  1.00  0.00     0.011 C 
ENDBRANCH   1   6
BRANCH   5   8
ATOM      8  N   UNL     1      27.117 113.974  63.146  1.00  0.00    -0.299 N 
ATOM      9  C   UNL     1      27.373 114.712  64.286  1.00  0.00     0.292 C 
ATOM     10  O   UNL     1      28.075 114.340  65.219  1.00  0.00    -0.265 OA
ATOM     11  H   UNL     1      26.409 114.306  62.512  1.00  0.00     0.172 HD
BRANCH   9  12
ATOM     12  C   UNL     1      26.677 115.991  64.301  1.00  0.00     0.196 A 
ATOM     13  O   UNL     1      26.843 116.800  63.210  1.00  0.00    -0.451 OA
ATOM     14  C   UNL     1      25.829 116.612  65.218  1.00  0.00     0.008 A 
ATOM     15  C   UNL     1      26.145 117.941  63.426  1.00  0.00     0.135 A 
ATOM     16  C   UNL     1      25.502 117.886  64.654  1.00  0.00     0.024 A 
ATOM     17  C   UNL     1      26.074 119.020  62.548  1.00  0.00     0.048 A 
ATOM     18  C   UNL     1      24.720 118.991  65.044  1.00  0.00     0.012 A 
ATOM     19  C   UNL     1      25.297 120.108  62.957  1.00  0.00     0.004 A 
ATOM     20  C   UNL     1      24.630 120.095  64.183  1.00  0.00     0.001 A 
ATOM     21  C   UNL     1      25.324 116.074  66.508  1.00  0.00     0.049 C 
ENDBRANCH   9  12
ENDBRANCH   5   8
TORSDOF 3
ENDMDL
