MODEL 1
REMARK VINA RESULT:      -5.3      0.000      0.000
REMARK SMILES COc1ccc2c(c1)[nH]c1c(Cl)ncnc12
REMARK SMILES IDX 3 1 4 2 5 3 6 4 7 5 8 6 9 7 10 8 11 9 12 10 13 11 14 12
REMARK SMILES IDX 15 13 16 14 2 16 1 17
REMARK H PARENT 9 15
ROOT
ATOM      1  C   UNL     1      16.039 113.405  71.471  1.00  0.00     0.120 A 
ATOM      2  C   UNL     1      16.704 113.075  72.655  1.00  0.00     0.047 A 
ATOM      3  C   UNL     1      17.242 111.799  72.857  1.00  0.00     0.016 A 
ATOM      4  C   UNL     1      17.111 110.830  71.845  1.00  0.00     0.026 A 
ATOM      5  C   UNL     1      16.443 111.179  70.669  1.00  0.00     0.052 A 
ATOM      6  C   UNL     1      15.898 112.454  70.452  1.00  0.00     0.073 A 
ATOM      7  N   UNL     1      16.451 110.066  69.853  1.00  0.00    -0.351 N 
ATOM      8  C   UNL     1      17.099 109.028  70.468  1.00  0.00     0.103 A 
ATOM      9  C   UNL     1      17.375 107.734  70.091  1.00  0.00     0.156 A 
ATOM     10  Cl  UNL     1      16.910 107.070  68.591  1.00  0.00    -0.060 Cl
ATOM     11  N   UNL     1      18.045 106.926  70.926  1.00  0.00    -0.222 NA
ATOM     12  C   UNL     1      18.414 107.442  72.110  1.00  0.00     0.224 A 
ATOM     13  N   UNL     1      18.197 108.683  72.573  1.00  0.00    -0.234 NA
ATOM     14  C   UNL     1      17.520 109.473  71.710  1.00  0.00     0.101 A 
ATOM     15  H   UNL     1      16.039 110.023  68.932  1.00  0.00     0.167 HD
ENDROOT
BRANCH   1  16
ATOM     16  O   UNL     1      15.571 114.692  71.429  1.00  0.00    -0.497 OA
ATOM     17  C   UNL     1      16.444 115.712  71.897  1.00  0.00     0.278 C 
ENDBRANCH   1  16
TORSDOF 1
ENDMDL
MODEL 2
REMARK VINA RESULT:      -5.1     12.643     14.299
REMARK SMILES COc1ccc2c(c1)[nH]c1c(Cl)ncnc12
REMARK SMILES IDX 3 1 4 2 5 3 6 4 7 5 8 6 9 7 10 8 11 9 12 10 13 11 14 12
REMARK SMILES IDX 15 13 16 14 2 16 1 17
REMARK H PARENT 9 15
ROOT
ATOM      1  C   UNL     1      25.833 119.245  63.430  1.00  0.00     0.120 A 
ATOM      2  C   UNL     1      25.857 118.122  64.261  1.00  0.00     0.047 A 
ATOM      3  C   UNL     1      25.421 118.190  65.590  1.00  0.00     0.016 A 
ATOM      4  C   UNL     1      24.949 119.416  66.095  1.00  0.00     0.026 A 
ATOM      5  C   UNL     1      24.934 120.527  65.248  1.00  0.00     0.052 A 
ATOM      6  C   UNL     1      25.367 120.473  63.914  1.00  0.00     0.073 A 
ATOM      7  N   UNL     1      24.435 121.586  65.979  1.00  0.00    -0.351 N 
ATOM      8  C   UNL     1      24.134 121.187  67.254  1.00  0.00     0.103 A 
ATOM      9  C   UNL     1      23.622 121.843  68.350  1.00  0.00     0.156 A 
ATOM     10  Cl  UNL     1      23.202 123.495  68.348  1.00  0.00    -0.060 Cl
ATOM     11  N   UNL     1      23.431 121.174  69.496  1.00  0.00    -0.222 NA
ATOM     12  C   UNL     1      23.760 119.871  69.505  1.00  0.00     0.224 A 
ATOM     13  N   UNL     1      24.263 119.140  68.498  1.00  0.00    -0.234 NA
ATOM     14  C   UNL     1      24.444 119.842  67.357  1.00  0.00     0.101 A 
ATOM     15  H   UNL     1      24.308 122.523  65.623  1.00  0.00     0.167 HD
ENDROOT
BRANCH   1  16
ATOM     16  O   UNL     1      26.292 119.013  62.160  1.00  0.00    -0.497 OA
ATOM     17  C   UNL     1      27.670 118.693  62.019  1.00  0.00     0.278 C 
ENDBRANCH   1  16
TORSDOF 1
ENDMDL
MODEL 3
REMARK VINA RESULT:      -4.9     12.672     14.115
REMARK SMILES COc1ccc2c(c1)[nH]c1c(Cl)ncnc12
REMARK SMILES IDX 3 1 4 2 5 3 6 4 7 5 8 6 9 7 10 8 11 9 12 10 13 11 14 12
REMARK SMILES IDX 15 13 16 14 2 16 1 17
REMARK H PARENT 9 15
ROOT
ATOM      1  C   UNL     1      25.411 118.844  64.522  1.00  0.00     0.120 A 
ATOM      2  C   UNL     1      25.304 117.936  65.578  1.00  0.00     0.047 A 
ATOM      3  C   UNL     1      24.857 118.338  66.842  1.00  0.00     0.016 A 
ATOM      4  C   UNL     1      24.511 119.686  67.051  1.00  0.00     0.026 A 
ATOM      5  C   UNL     1      24.625 120.579  65.983  1.00  0.00     0.052 A 
ATOM      6  C   UNL     1      25.070 120.189  64.710  1.00  0.00     0.073 A 
ATOM      7  N   UNL     1      24.231 121.817  66.446  1.00  0.00    -0.351 N 
ATOM      8  C   UNL     1      23.871 121.741  67.766  1.00  0.00     0.103 A 
ATOM      9  C   UNL     1      23.415 122.669  68.673  1.00  0.00     0.156 A 
ATOM     10  Cl  UNL     1      23.172 124.314  68.295  1.00  0.00    -0.060 Cl
ATOM     11  N   UNL     1      23.137 122.292  69.929  1.00  0.00    -0.222 NA
ATOM     12  C   UNL     1      23.326 120.997  70.233  1.00  0.00     0.224 A 
ATOM     13  N   UNL     1      23.763 120.015  69.429  1.00  0.00    -0.234 NA
ATOM     14  C   UNL     1      24.035 120.427  68.170  1.00  0.00     0.101 A 
ATOM     15  H   UNL     1      24.209 122.661  65.891  1.00  0.00     0.167 HD
ENDROOT
BRANCH   1  16
ATOM     16  O   UNL     1      25.861 118.294  63.351  1.00  0.00    -0.497 OA
ATOM     17  C   UNL     1      26.338 119.191  62.357  1.00  0.00     0.278 C 
ENDBRANCH   1  16
TORSDOF 1
ENDMDL
