MODEL 1
REMARK VINA RESULT:      -6.2      0.000      0.000
REMARK SMILES COc1ccccc1/C=C/c1nc(C#N)c(NC(C)c2ccccc2)o1
REMARK SMILES IDX 11 1 12 2 13 3 14 4 15 5 16 6 26 7 10 8 9 9 8 10 3 11 4 12
REMARK SMILES IDX 5 13 7 14 6 15 2 16 1 17 17 18 18 20 19 21 20 22 21 23 25 24
REMARK SMILES IDX 22 25 24 26 23 27
REMARK H PARENT 17 19
ROOT
ATOM      1  C   UNL     1      28.060 113.758  63.189  1.00  0.00     0.222 A 
ATOM      2  N   UNL     1      27.590 112.888  64.075  1.00  0.00    -0.196 NA
ATOM      3  C   UNL     1      27.042 113.658  65.073  1.00  0.00     0.204 A 
ATOM      4  C   UNL     1      26.421 113.059  66.207  1.00  0.00     0.125 C 
ATOM      5  N   UNL     1      25.915 112.602  67.147  1.00  0.00    -0.190 NA
ATOM      6  C   UNL     1      27.190 114.995  64.785  1.00  0.00     0.233 A 
ATOM      7  O   UNL     1      27.834 115.064  63.585  1.00  0.00    -0.420 OA
ENDROOT
BRANCH   1   8
ATOM      8  C   UNL     1      28.718 113.462  61.963  1.00  0.00     0.070 C 
ATOM      9  C   UNL     1      30.043 113.623  61.824  1.00  0.00     0.017 C 
BRANCH   9  10
ATOM     10  C   UNL     1      30.766 113.308  60.579  1.00  0.00     0.017 A 
ATOM     11  C   UNL     1      32.163 113.436  60.430  1.00  0.00     0.126 A 
ATOM     12  C   UNL     1      32.754 113.103  59.203  1.00  0.00     0.047 A 
ATOM     13  C   UNL     1      31.977 112.627  58.145  1.00  0.00     0.004 A 
ATOM     14  C   UNL     1      30.001 112.812  59.510  1.00  0.00     0.012 A 
ATOM     15  C   UNL     1      30.602 112.476  58.298  1.00  0.00     0.001 A 
BRANCH  11  16
ATOM     16  O   UNL     1      32.862 113.887  61.521  1.00  0.00    -0.496 OA
ATOM     17  C   UNL     1      33.917 113.068  62.008  1.00  0.00     0.278 C 
ENDBRANCH  11  16
ENDBRANCH   9  10
ENDBRANCH   1   8
BRANCH   6  18
ATOM     18  N   UNL     1      26.886 116.191  65.328  1.00  0.00    -0.347 N 
ATOM     19  H   UNL     1      27.584 116.635  65.918  1.00  0.00     0.164 HD
BRANCH  18  20
ATOM     20  C   UNL     1      25.535 116.710  65.473  1.00  0.00     0.109 C 
ATOM     21  C   UNL     1      25.215 116.958  66.951  1.00  0.00     0.036 C 
BRANCH  20  22
ATOM     22  C   UNL     1      25.418 117.959  64.609  1.00  0.00    -0.026 A 
ATOM     23  C   UNL     1      26.168 118.140  63.435  1.00  0.00     0.006 A 
ATOM     24  C   UNL     1      24.489 118.952  64.964  1.00  0.00     0.006 A 
ATOM     25  C   UNL     1      26.014 119.291  62.659  1.00  0.00     0.000 A 
ATOM     26  C   UNL     1      24.336 120.102  64.187  1.00  0.00     0.000 A 
ATOM     27  C   UNL     1      25.100 120.273  63.036  1.00  0.00     0.000 A 
ENDBRANCH  20  22
ENDBRANCH  18  20
ENDBRANCH   6  18
TORSDOF 6
ENDMDL
MODEL 2
REMARK VINA RESULT:      -6.1      0.414      1.031
REMARK SMILES COc1ccccc1/C=C/c1nc(C#N)c(NC(C)c2ccccc2)o1
REMARK SMILES IDX 11 1 12 2 13 3 14 4 15 5 16 6 26 7 10 8 9 9 8 10 3 11 4 12
REMARK SMILES IDX 5 13 7 14 6 15 2 16 1 17 17 18 18 20 19 21 20 22 21 23 25 24
REMARK SMILES IDX 22 25 24 26 23 27
REMARK H PARENT 17 19
ROOT
ATOM      1  C   UNL     1      28.387 113.286  63.284  1.00  0.00     0.222 A 
ATOM      2  N   UNL     1      27.736 112.534  64.163  1.00  0.00    -0.196 NA
ATOM      3  C   UNL     1      27.082 113.425  64.980  1.00  0.00     0.204 A 
ATOM      4  C   UNL     1      26.260 112.974  66.052  1.00  0.00     0.125 C 
ATOM      5  N   UNL     1      25.588 112.638  66.939  1.00  0.00    -0.190 NA
ATOM      6  C   UNL     1      27.347 114.718  64.591  1.00  0.00     0.233 A 
ATOM      7  O   UNL     1      28.174 114.635  63.509  1.00  0.00    -0.420 OA
ENDROOT
BRANCH   1   8
ATOM      8  C   UNL     1      29.210 112.838  62.215  1.00  0.00     0.070 C 
ATOM      9  C   UNL     1      29.666 113.686  61.281  1.00  0.00     0.017 C 
BRANCH   9  10
ATOM     10  C   UNL     1      30.540 113.267  60.170  1.00  0.00     0.017 A 
ATOM     11  C   UNL     1      31.946 113.385  60.190  1.00  0.00     0.126 A 
ATOM     12  C   UNL     1      32.685 112.950  59.083  1.00  0.00     0.047 A 
ATOM     13  C   UNL     1      32.046 112.384  57.977  1.00  0.00     0.004 A 
ATOM     14  C   UNL     1      29.913 112.680  59.058  1.00  0.00     0.012 A 
ATOM     15  C   UNL     1      30.662 112.244  57.966  1.00  0.00     0.001 A 
BRANCH  11  16
ATOM     16  O   UNL     1      32.503 113.929  61.320  1.00  0.00    -0.496 OA
ATOM     17  C   UNL     1      33.513 113.177  61.980  1.00  0.00     0.278 C 
ENDBRANCH  11  16
ENDBRANCH   9  10
ENDBRANCH   1   8
BRANCH   6  18
ATOM     18  N   UNL     1      27.028 115.975  64.958  1.00  0.00    -0.347 N 
ATOM     19  H   UNL     1      27.765 116.556  65.349  1.00  0.00     0.164 HD
BRANCH  18  20
ATOM     20  C   UNL     1      25.674 116.440  65.214  1.00  0.00     0.109 C 
ATOM     21  C   UNL     1      25.427 116.558  66.721  1.00  0.00     0.036 C 
BRANCH  20  22
ATOM     22  C   UNL     1      25.480 117.750  64.463  1.00  0.00    -0.026 A 
ATOM     23  C   UNL     1      24.640 118.775  64.930  1.00  0.00     0.006 A 
ATOM     24  C   UNL     1      26.206 117.974  63.279  1.00  0.00     0.006 A 
ATOM     25  C   UNL     1      24.508 119.970  64.220  1.00  0.00     0.000 A 
ATOM     26  C   UNL     1      26.073 119.170  62.571  1.00  0.00     0.000 A 
ATOM     27  C   UNL     1      25.222 120.167  63.040  1.00  0.00     0.000 A 
ENDBRANCH  20  22
ENDBRANCH  18  20
ENDBRANCH   6  18
TORSDOF 6
ENDMDL
MODEL 3
REMARK VINA RESULT:      -6.1      1.949      7.700
REMARK SMILES COc1ccccc1/C=C/c1nc(C#N)c(NC(C)c2ccccc2)o1
REMARK SMILES IDX 11 1 12 2 13 3 14 4 15 5 16 6 26 7 10 8 9 9 8 10 3 11 4 12
REMARK SMILES IDX 5 13 7 14 6 15 2 16 1 17 17 18 18 20 19 21 20 22 21 23 25 24
REMARK SMILES IDX 22 25 24 26 23 27
REMARK H PARENT 17 19
ROOT
ATOM      1  C   UNL     1      26.947 114.311  64.980  1.00  0.00     0.222 A 
ATOM      2  N   UNL     1      26.444 113.350  65.744  1.00  0.00    -0.196 NA
ATOM      3  C   UNL     1      27.487 112.477  65.950  1.00  0.00     0.204 A 
ATOM      4  C   UNL     1      27.322 111.308  66.748  1.00  0.00     0.125 C 
ATOM      5  N   UNL     1      27.217 110.344  67.387  1.00  0.00    -0.190 NA
ATOM      6  C   UNL     1      28.617 112.917  65.301  1.00  0.00     0.233 A 
ATOM      7  O   UNL     1      28.280 114.086  64.685  1.00  0.00    -0.420 OA
ENDROOT
BRANCH   1   8
ATOM      8  C   UNL     1      26.268 115.462  64.492  1.00  0.00     0.070 C 
ATOM      9  C   UNL     1      26.652 116.700  64.838  1.00  0.00     0.017 C 
BRANCH   9  10
ATOM     10  C   UNL     1      25.990 117.918  64.338  1.00  0.00     0.017 A 
ATOM     11  C   UNL     1      25.046 118.659  65.080  1.00  0.00     0.126 A 
ATOM     12  C   UNL     1      24.480 119.808  64.513  1.00  0.00     0.047 A 
ATOM     13  C   UNL     1      24.858 120.234  63.237  1.00  0.00     0.004 A 
ATOM     14  C   UNL     1      26.372 118.368  63.063  1.00  0.00     0.012 A 
ATOM     15  C   UNL     1      25.807 119.518  62.514  1.00  0.00     0.001 A 
BRANCH  11  16
ATOM     16  O   UNL     1      24.743 118.193  66.334  1.00  0.00    -0.496 OA
ATOM     17  C   UNL     1      25.238 118.930  67.445  1.00  0.00     0.278 C 
ENDBRANCH  11  16
ENDBRANCH   9  10
ENDBRANCH   1   8
BRANCH   6  18
ATOM     18  N   UNL     1      29.898 112.537  65.120  1.00  0.00    -0.347 N 
ATOM     19  H   UNL     1      30.627 113.123  65.516  1.00  0.00     0.164 HD
BRANCH  18  20
ATOM     20  C   UNL     1      30.344 111.605  64.096  1.00  0.00     0.109 C 
ATOM     21  C   UNL     1      29.153 110.825  63.529  1.00  0.00     0.036 C 
BRANCH  20  22
ATOM     22  C   UNL     1      31.107 112.397  63.043  1.00  0.00    -0.026 A 
ATOM     23  C   UNL     1      32.498 112.292  62.877  1.00  0.00     0.006 A 
ATOM     24  C   UNL     1      30.393 113.230  62.163  1.00  0.00     0.006 A 
ATOM     25  C   UNL     1      33.156 113.021  61.883  1.00  0.00     0.000 A 
ATOM     26  C   UNL     1      31.052 113.957  61.170  1.00  0.00     0.000 A 
ATOM     27  C   UNL     1      32.434 113.854  61.032  1.00  0.00     0.000 A 
ENDBRANCH  20  22
ENDBRANCH  18  20
ENDBRANCH   6  18
TORSDOF 6
ENDMDL
