MODEL 1
REMARK VINA RESULT:      -4.9      0.000      0.000
REMARK SMILES COc1ccc(/C=N\NC(=S)SCN2C(=O)C3CCC(C)(C2=O)C3(C)C)cc1
REMARK SMILES IDX 9 1 10 2 11 3 8 5 7 6 6 7 3 8 4 9 28 10 5 11 27 12 2 13 1 14
REMARK SMILES IDX 12 15 13 16 14 17 15 18 22 19 16 20 17 21 20 22 23 23 18 24
REMARK SMILES IDX 24 25 19 26 21 27 25 28 26 29
REMARK H PARENT 9 4
ROOT
ATOM      1  N   UNL     1      31.061 107.855  67.120  1.00  0.00    -0.262 N 
ATOM      2  C   UNL     1      29.888 108.134  66.453  1.00  0.00     0.155 C 
ATOM      3  S   UNL     1      29.889 108.178  64.778  1.00  0.00    -0.051 S 
ATOM      4  H   UNL     1      31.887 107.743  66.539  1.00  0.00     0.192 HD
ENDROOT
BRANCH   1   5
ATOM      5  N   UNL     1      31.201 107.966  68.471  1.00  0.00    -0.182 NA
ATOM      6  C   UNL     1      32.226 107.405  69.042  1.00  0.00     0.141 C 
BRANCH   6   7
ATOM      7  C   UNL     1      33.233 106.509  68.450  1.00  0.00    -0.005 A 
ATOM      8  C   UNL     1      35.217 104.859  67.370  1.00  0.00     0.118 A 
ATOM      9  C   UNL     1      34.097 104.295  67.987  1.00  0.00     0.047 A 
ATOM     10  C   UNL     1      35.349 106.253  67.326  1.00  0.00     0.047 A 
ATOM     11  C   UNL     1      33.107 105.119  68.536  1.00  0.00     0.013 A 
ATOM     12  C   UNL     1      34.364 107.080  67.866  1.00  0.00     0.013 A 
BRANCH   8  13
ATOM     13  O   UNL     1      36.233 104.171  66.768  1.00  0.00    -0.497 OA
ATOM     14  C   UNL     1      36.056 103.819  65.399  1.00  0.00     0.278 C 
ENDBRANCH   8  13
ENDBRANCH   6   7
ENDBRANCH   1   5
BRANCH   2  15
ATOM     15  S   UNL     1      28.477 108.492  67.424  1.00  0.00    -0.073 SA
BRANCH  15  16
ATOM     16  C   UNL     1      27.709 106.851  67.459  1.00  0.00     0.206 C 
BRANCH  16  17
ATOM     17  N   UNL     1      27.959 106.160  68.711  1.00  0.00    -0.272 N 
ATOM     18  C   UNL     1      27.032 106.330  69.735  1.00  0.00     0.233 C 
ATOM     19  C   UNL     1      28.987 105.213  68.748  1.00  0.00     0.236 C 
ATOM     20  O   UNL     1      25.996 106.984  69.632  1.00  0.00    -0.274 OA
ATOM     21  C   UNL     1      27.365 105.610  71.033  1.00  0.00     0.086 C 
ATOM     22  C   UNL     1      29.186 104.490  70.102  1.00  0.00     0.053 C 
ATOM     23  O   UNL     1      29.713 104.971  67.781  1.00  0.00    -0.274 OA
ATOM     24  C   UNL     1      28.598 106.286  71.652  1.00  0.00     0.015 C 
ATOM     25  C   UNL     1      27.809 104.164  70.741  1.00  0.00    -0.010 C 
ATOM     26  C   UNL     1      29.798 105.529  71.069  1.00  0.00     0.018 C 
ATOM     27  C   UNL     1      30.114 103.287  69.925  1.00  0.00     0.022 C 
ATOM     28  C   UNL     1      27.911 103.361  72.061  1.00  0.00     0.013 C 
ATOM     29  C   UNL     1      26.846 103.382  69.828  1.00  0.00     0.013 C 
ENDBRANCH  16  17
ENDBRANCH  15  16
ENDBRANCH   2  15
TORSDOF 6
ENDMDL
MODEL 2
REMARK VINA RESULT:      -4.9     10.911     14.230
REMARK SMILES COc1ccc(/C=N\NC(=S)SCN2C(=O)C3CCC(C)(C2=O)C3(C)C)cc1
REMARK SMILES IDX 9 1 10 2 11 3 8 5 7 6 6 7 3 8 4 9 28 10 5 11 27 12 2 13 1 14
REMARK SMILES IDX 12 15 13 16 14 17 15 18 22 19 16 20 17 21 20 22 23 23 18 24
REMARK SMILES IDX 24 25 19 26 21 27 25 28 26 29
REMARK H PARENT 9 4
ROOT
ATOM      1  N   UNL     1      27.944 115.881  61.807  1.00  0.00    -0.262 N 
ATOM      2  C   UNL     1      28.636 114.694  61.911  1.00  0.00     0.155 C 
ATOM      3  S   UNL     1      27.932 113.403  62.713  1.00  0.00    -0.051 S 
ATOM      4  H   UNL     1      27.047 115.915  62.282  1.00  0.00     0.192 HD
ENDROOT
BRANCH   1   5
ATOM      5  N   UNL     1      28.495 117.032  61.329  1.00  0.00    -0.182 NA
ATOM      6  C   UNL     1      28.098 118.167  61.823  1.00  0.00     0.141 C 
BRANCH   6   7
ATOM      7  C   UNL     1      26.995 118.427  62.763  1.00  0.00    -0.005 A 
ATOM      8  C   UNL     1      24.839 118.924  64.475  1.00  0.00     0.118 A 
ATOM      9  C   UNL     1      25.749 117.905  64.772  1.00  0.00     0.047 A 
ATOM     10  C   UNL     1      25.001 119.668  63.300  1.00  0.00     0.047 A 
ATOM     11  C   UNL     1      26.824 117.651  63.913  1.00  0.00     0.013 A 
ATOM     12  C   UNL     1      26.073 119.423  62.441  1.00  0.00     0.013 A 
BRANCH   8  13
ATOM     13  O   UNL     1      23.771 119.296  65.244  1.00  0.00    -0.497 OA
ATOM     14  C   UNL     1      23.988 119.400  66.647  1.00  0.00     0.278 C 
ENDBRANCH   8  13
ENDBRANCH   6   7
ENDBRANCH   1   5
BRANCH   2  15
ATOM     15  S   UNL     1      30.252 114.645  61.243  1.00  0.00    -0.073 SA
BRANCH  15  16
ATOM     16  C   UNL     1      30.481 112.850  61.131  1.00  0.00     0.206 C 
BRANCH  16  17
ATOM     17  N   UNL     1      30.739 112.418  59.769  1.00  0.00    -0.272 N 
ATOM     18  C   UNL     1      32.039 112.548  59.290  1.00  0.00     0.233 C 
ATOM     19  C   UNL     1      29.735 111.714  59.100  1.00  0.00     0.236 C 
ATOM     20  O   UNL     1      32.988 112.957  59.957  1.00  0.00    -0.274 OA
ATOM     21  C   UNL     1      32.241 112.112  57.848  1.00  0.00     0.086 C 
ATOM     22  C   UNL     1      30.081 111.255  57.661  1.00  0.00     0.053 C 
ATOM     23  O   UNL     1      28.630 111.482  59.596  1.00  0.00    -0.274 OA
ATOM     24  C   UNL     1      31.504 113.106  56.938  1.00  0.00     0.015 C 
ATOM     25  C   UNL     1      31.549 110.757  57.599  1.00  0.00    -0.010 C 
ATOM     26  C   UNL     1      30.091 112.528  56.785  1.00  0.00     0.018 C 
ATOM     27  C   UNL     1      29.039 110.251  57.164  1.00  0.00     0.022 C 
ATOM     28  C   UNL     1      31.957 110.197  56.214  1.00  0.00     0.013 C 
ATOM     29  C   UNL     1      31.904 109.671  58.631  1.00  0.00     0.013 C 
ENDBRANCH  16  17
ENDBRANCH  15  16
ENDBRANCH   2  15
TORSDOF 6
ENDMDL
MODEL 3
REMARK VINA RESULT:      -4.9     12.812     14.671
REMARK SMILES COc1ccc(/C=N\NC(=S)SCN2C(=O)C3CCC(C)(C2=O)C3(C)C)cc1
REMARK SMILES IDX 9 1 10 2 11 3 8 5 7 6 6 7 3 8 4 9 28 10 5 11 27 12 2 13 1 14
REMARK SMILES IDX 12 15 13 16 14 17 15 18 22 19 16 20 17 21 20 22 23 23 18 24
REMARK SMILES IDX 24 25 19 26 21 27 25 28 26 29
REMARK H PARENT 9 4
ROOT
ATOM      1  N   UNL     1      17.222 106.771  69.120  1.00  0.00    -0.262 N 
ATOM      2  C   UNL     1      17.690 107.590  70.125  1.00  0.00     0.155 C 
ATOM      3  S   UNL     1      18.674 106.944  71.316  1.00  0.00    -0.051 S 
ATOM      4  H   UNL     1      17.468 105.788  69.197  1.00  0.00     0.192 HD
ENDROOT
BRANCH   1   5
ATOM      5  N   UNL     1      16.284 107.159  68.210  1.00  0.00    -0.182 NA
ATOM      6  C   UNL     1      15.999 106.359  67.226  1.00  0.00     0.141 C 
BRANCH   6   7
ATOM      7  C   UNL     1      16.660 105.101  66.841  1.00  0.00    -0.005 A 
ATOM      8  C   UNL     1      17.840 102.692  66.050  1.00  0.00     0.118 A 
ATOM      9  C   UNL     1      18.593 103.869  66.062  1.00  0.00     0.047 A 
ATOM     10  C   UNL     1      16.487 102.737  66.408  1.00  0.00     0.047 A 
ATOM     11  C   UNL     1      18.002 105.077  66.449  1.00  0.00     0.013 A 
ATOM     12  C   UNL     1      15.892 103.937  66.800  1.00  0.00     0.013 A 
BRANCH   8  13
ATOM     13  O   UNL     1      18.303 101.446  65.728  1.00  0.00    -0.497 OA
ATOM     14  C   UNL     1      19.576 101.073  66.245  1.00  0.00     0.278 C 
ENDBRANCH   8  13
ENDBRANCH   6   7
ENDBRANCH   1   5
BRANCH   2  15
ATOM     15  S   UNL     1      17.157 109.257  70.116  1.00  0.00    -0.073 SA
BRANCH  15  16
ATOM     16  C   UNL     1      18.280 109.940  71.365  1.00  0.00     0.206 C 
BRANCH  16  17
ATOM     17  N   UNL     1      18.026 111.348  71.612  1.00  0.00    -0.272 N 
ATOM     18  C   UNL     1      17.199 111.674  72.681  1.00  0.00     0.233 C 
ATOM     19  C   UNL     1      18.783 112.287  70.905  1.00  0.00     0.236 C 
ATOM     20  O   UNL     1      16.710 110.854  73.457  1.00  0.00    -0.274 OA
ATOM     21  C   UNL     1      16.943 113.161  72.869  1.00  0.00     0.086 C 
ATOM     22  C   UNL     1      18.487 113.772  71.232  1.00  0.00     0.053 C 
ATOM     23  O   UNL     1      19.620 111.975  70.055  1.00  0.00    -0.274 OA
ATOM     24  C   UNL     1      16.089 113.653  71.691  1.00  0.00     0.015 C 
ATOM     25  C   UNL     1      18.264 113.947  72.758  1.00  0.00    -0.010 C 
ATOM     26  C   UNL     1      17.102 114.088  70.624  1.00  0.00     0.018 C 
ATOM     27  C   UNL     1      19.571 114.669  70.633  1.00  0.00     0.022 C 
ATOM     28  C   UNL     1      18.046 115.418  73.190  1.00  0.00     0.013 C 
ATOM     29  C   UNL     1      19.399 113.397  73.642  1.00  0.00     0.013 C 
ENDBRANCH  16  17
ENDBRANCH  15  16
ENDBRANCH   2  15
TORSDOF 6
ENDMDL
