MODEL 1
REMARK VINA RESULT:      -6.3      0.000      0.000
REMARK SMILES O=C(COc1ccc(F)cc1)Nc1ccc2c(c1)OCCO2
REMARK SMILES IDX 3 1 2 2 1 3 12 4 13 6 14 7 18 8 15 9 17 10 16 11 19 12 22 13
REMARK SMILES IDX 20 14 21 15 4 16 5 17 6 18 11 19 7 20 10 21 8 22 9 23
REMARK H PARENT 12 5
ROOT
ATOM      1  C   UNL     1      16.897 109.700  69.670  1.00  0.00     0.329 C 
ENDROOT
BRANCH   1   2
ATOM      2  C   UNL     1      16.896 108.185  69.437  1.00  0.00     0.262 C 
ATOM      3  O   UNL     1      16.968 107.411  70.388  1.00  0.00    -0.271 OA
ATOM      4  N   UNL     1      16.805 107.845  68.100  1.00  0.00    -0.323 N 
ATOM      5  H   UNL     1      16.753 108.638  67.467  1.00  0.00     0.170 HD
BRANCH   4   6
ATOM      6  C   UNL     1      16.776 106.561  67.526  1.00  0.00     0.045 A 
ATOM      7  C   UNL     1      15.548 105.884  67.546  1.00  0.00     0.030 A 
ATOM      8  C   UNL     1      17.884 105.939  66.946  1.00  0.00     0.076 A 
ATOM      9  C   UNL     1      15.429 104.602  67.003  1.00  0.00     0.052 A 
ATOM     10  C   UNL     1      17.763 104.662  66.391  1.00  0.00     0.163 A 
ATOM     11  C   UNL     1      16.541 103.985  66.440  1.00  0.00     0.161 A 
ATOM     12  O   UNL     1      18.891 104.128  65.820  1.00  0.00    -0.486 OA
ATOM     13  O   UNL     1      16.360 102.718  65.946  1.00  0.00    -0.486 OA
ATOM     14  C   UNL     1      18.577 103.001  64.995  1.00  0.00     0.271 C 
ATOM     15  C   UNL     1      17.614 102.068  65.709  1.00  0.00     0.271 C 
ENDBRANCH   4   6
ENDBRANCH   1   2
BRANCH   1  16
ATOM     16  O   UNL     1      17.096 110.016  71.047  1.00  0.00    -0.484 OA
BRANCH  16  17
ATOM     17  C   UNL     1      16.820 111.298  71.434  1.00  0.00     0.120 A 
ATOM     18  C   UNL     1      16.283 112.303  70.623  1.00  0.00     0.049 A 
ATOM     19  C   UNL     1      17.123 111.582  72.771  1.00  0.00     0.049 A 
ATOM     20  C   UNL     1      16.051 113.577  71.151  1.00  0.00     0.043 A 
ATOM     21  C   UNL     1      16.892 112.854  73.296  1.00  0.00     0.043 A 
ATOM     22  C   UNL     1      16.357 113.841  72.481  1.00  0.00     0.123 A 
ATOM     23  F   UNL     1      16.133 115.063  72.979  1.00  0.00    -0.207 F 
ENDBRANCH  16  17
ENDBRANCH   1  16
TORSDOF 4
ENDMDL
MODEL 2
REMARK VINA RESULT:      -6.1      3.729      9.292
REMARK SMILES O=C(COc1ccc(F)cc1)Nc1ccc2c(c1)OCCO2
REMARK SMILES IDX 3 1 2 2 1 3 12 4 13 6 14 7 18 8 15 9 17 10 16 11 19 12 22 13
REMARK SMILES IDX 20 14 21 15 4 16 5 17 6 18 11 19 7 20 10 21 8 22 9 23
REMARK H PARENT 12 5
ROOT
ATOM      1  C   UNL     1      16.770 106.911  69.181  1.00  0.00     0.329 C 
ENDROOT
BRANCH   1   2
ATOM      2  C   UNL     1      16.997 108.123  70.091  1.00  0.00     0.262 C 
ATOM      3  O   UNL     1      17.014 107.988  71.311  1.00  0.00    -0.271 OA
ATOM      4  N   UNL     1      17.167 109.301  69.387  1.00  0.00    -0.323 N 
ATOM      5  H   UNL     1      17.118 109.199  68.377  1.00  0.00     0.170 HD
BRANCH   4   6
ATOM      6  C   UNL     1      17.396 110.594  69.892  1.00  0.00     0.045 A 
ATOM      7  C   UNL     1      18.731 111.021  69.964  1.00  0.00     0.030 A 
ATOM      8  C   UNL     1      16.384 111.459  70.313  1.00  0.00     0.076 A 
ATOM      9  C   UNL     1      19.050 112.289  70.459  1.00  0.00     0.052 A 
ATOM     10  C   UNL     1      16.702 112.732  70.795  1.00  0.00     0.163 A 
ATOM     11  C   UNL     1      18.037 113.138  70.889  1.00  0.00     0.161 A 
ATOM     12  O   UNL     1      15.651 113.531  71.169  1.00  0.00    -0.486 OA
ATOM     13  O   UNL     1      18.422 114.357  71.383  1.00  0.00    -0.486 OA
ATOM     14  C   UNL     1      16.055 114.897  71.310  1.00  0.00     0.271 C 
ATOM     15  C   UNL     1      17.352 114.992  72.094  1.00  0.00     0.271 C 
ENDBRANCH   4   6
ENDBRANCH   1   2
BRANCH   1  16
ATOM     16  O   UNL     1      16.862 107.268  67.803  1.00  0.00    -0.484 OA
BRANCH  16  17
ATOM     17  C   UNL     1      16.796 106.248  66.894  1.00  0.00     0.120 A 
ATOM     18  C   UNL     1      17.718 105.998  65.873  1.00  0.00     0.049 A 
ATOM     19  C   UNL     1      15.686 105.407  67.040  1.00  0.00     0.049 A 
ATOM     20  C   UNL     1      17.526 104.915  65.009  1.00  0.00     0.043 A 
ATOM     21  C   UNL     1      15.496 104.328  66.177  1.00  0.00     0.043 A 
ATOM     22  C   UNL     1      16.419 104.090  65.168  1.00  0.00     0.123 A 
ATOM     23  F   UNL     1      16.242 103.055  64.338  1.00  0.00    -0.207 F 
ENDBRANCH  16  17
ENDBRANCH   1  16
TORSDOF 4
ENDMDL
MODEL 3
REMARK VINA RESULT:      -5.9      3.855      9.117
REMARK SMILES O=C(COc1ccc(F)cc1)Nc1ccc2c(c1)OCCO2
REMARK SMILES IDX 3 1 2 2 1 3 12 4 13 6 14 7 18 8 15 9 17 10 16 11 19 12 22 13
REMARK SMILES IDX 20 14 21 15 4 16 5 17 6 18 11 19 7 20 10 21 8 22 9 23
REMARK H PARENT 12 5
ROOT
ATOM      1  C   UNL     1      16.470 106.940  68.617  1.00  0.00     0.329 C 
ENDROOT
BRANCH   1   2
ATOM      2  C   UNL     1      16.928 107.998  69.627  1.00  0.00     0.262 C 
ATOM      3  O   UNL     1      17.200 107.678  70.780  1.00  0.00    -0.271 OA
ATOM      4  N   UNL     1      16.986 109.270  69.087  1.00  0.00    -0.323 N 
ATOM      5  H   UNL     1      16.719 109.324  68.108  1.00  0.00     0.170 HD
BRANCH   4   6
ATOM      6  C   UNL     1      17.362 110.469  69.718  1.00  0.00     0.045 A 
ATOM      7  C   UNL     1      16.328 111.271  70.227  1.00  0.00     0.030 A 
ATOM      8  C   UNL     1      18.684 110.894  69.865  1.00  0.00     0.076 A 
ATOM      9  C   UNL     1      16.611 112.483  70.864  1.00  0.00     0.052 A 
ATOM     10  C   UNL     1      18.967 112.099  70.514  1.00  0.00     0.163 A 
ATOM     11  C   UNL     1      17.929 112.904  70.993  1.00  0.00     0.161 A 
ATOM     12  O   UNL     1      20.292 112.437  70.637  1.00  0.00    -0.486 OA
ATOM     13  O   UNL     1      18.134 114.112  71.607  1.00  0.00    -0.486 OA
ATOM     14  C   UNL     1      20.479 113.481  71.598  1.00  0.00     0.271 C 
ATOM     15  C   UNL     1      19.466 114.591  71.384  1.00  0.00     0.271 C 
ENDBRANCH   4   6
ENDBRANCH   1   2
BRANCH   1  16
ATOM     16  O   UNL     1      17.562 106.457  67.837  1.00  0.00    -0.484 OA
BRANCH  16  17
ATOM     17  C   UNL     1      17.252 105.760  66.702  1.00  0.00     0.120 A 
ATOM     18  C   UNL     1      17.951 105.808  65.492  1.00  0.00     0.049 A 
ATOM     19  C   UNL     1      16.122 104.941  66.811  1.00  0.00     0.049 A 
ATOM     20  C   UNL     1      17.519 105.040  64.405  1.00  0.00     0.043 A 
ATOM     21  C   UNL     1      15.692 104.176  65.726  1.00  0.00     0.043 A 
ATOM     22  C   UNL     1      16.396 104.232  64.532  1.00  0.00     0.123 A 
ATOM     23  F   UNL     1      15.989 103.499  63.488  1.00  0.00    -0.207 F 
ENDBRANCH  16  17
ENDBRANCH   1  16
TORSDOF 4
ENDMDL
