MODEL 1
REMARK VINA RESULT:      -5.5      0.000      0.000
REMARK SMILES COCc1cccc(-c2csc(C(O)c3cccc(OC)c3)n2)c1
REMARK SMILES IDX 9 1 10 2 11 3 12 4 23 5 8 6 4 7 5 8 24 9 6 10 7 11 3 12 2 13
REMARK SMILES IDX 1 14 13 15 14 16 15 18 16 19 22 20 17 21 19 22 18 23 20 24
REMARK SMILES IDX 21 25
REMARK H PARENT 14 17
ROOT
ATOM      1  C   UNL     1      17.545 110.448  70.976  1.00  0.00     0.082 A 
ATOM      2  C   UNL     1      18.767 110.841  71.490  1.00  0.00     0.095 A 
ATOM      3  S   UNL     1      18.890 112.551  71.500  1.00  0.00    -0.124 S 
ATOM      4  C   UNL     1      17.311 112.655  70.831  1.00  0.00     0.127 A 
ATOM      5  N   UNL     1      16.725 111.497  70.578  1.00  0.00    -0.238 NA
ENDROOT
BRANCH   1   6
ATOM      6  C   UNL     1      17.116 109.058  70.819  1.00  0.00     0.001 A 
ATOM      7  C   UNL     1      16.559 107.199  69.325  1.00  0.00    -0.022 A 
ATOM      8  C   UNL     1      16.289 106.398  70.440  1.00  0.00     0.006 A 
ATOM      9  C   UNL     1      16.963 108.529  69.526  1.00  0.00     0.016 A 
ATOM     10  C   UNL     1      16.428 106.910  71.728  1.00  0.00     0.001 A 
ATOM     11  C   UNL     1      16.839 108.233  71.917  1.00  0.00     0.010 A 
BRANCH   7  12
ATOM     12  C   UNL     1      16.383 106.656  67.928  1.00  0.00     0.195 C 
BRANCH  12  13
ATOM     13  O   UNL     1      17.609 106.157  67.391  1.00  0.00    -0.380 OA
ATOM     14  C   UNL     1      17.473 105.707  66.049  1.00  0.00     0.195 C 
ENDBRANCH  12  13
ENDBRANCH   7  12
ENDBRANCH   1   6
BRANCH   4  15
ATOM     15  C   UNL     1      16.683 113.996  70.518  1.00  0.00     0.204 C 
BRANCH  15  16
ATOM     16  O   UNL     1      15.338 113.760  70.065  1.00  0.00    -0.381 OA
ATOM     17  H   UNL     1      15.271 112.792  69.940  1.00  0.00     0.212 HD
ENDBRANCH  15  16
BRANCH  15  18
ATOM     18  C   UNL     1      16.639 114.938  71.701  1.00  0.00    -0.009 A 
ATOM     19  C   UNL     1      15.896 114.629  72.850  1.00  0.00     0.007 A 
ATOM     20  C   UNL     1      17.373 116.135  71.679  1.00  0.00     0.053 A 
ATOM     21  C   UNL     1      15.888 115.497  73.942  1.00  0.00     0.004 A 
ATOM     22  C   UNL     1      17.368 117.010  72.771  1.00  0.00     0.119 A 
ATOM     23  C   UNL     1      16.623 116.685  73.904  1.00  0.00     0.046 A 
BRANCH  22  24
ATOM     24  O   UNL     1      18.131 118.134  72.604  1.00  0.00    -0.497 OA
ATOM     25  C   UNL     1      18.711 118.329  71.320  1.00  0.00     0.278 C 
ENDBRANCH  22  24
ENDBRANCH  15  18
ENDBRANCH   4  15
TORSDOF 7
ENDMDL
MODEL 2
REMARK VINA RESULT:      -5.5     12.977     16.149
REMARK SMILES COCc1cccc(-c2csc(C(O)c3cccc(OC)c3)n2)c1
REMARK SMILES IDX 9 1 10 2 11 3 12 4 23 5 8 6 4 7 5 8 24 9 6 10 7 11 3 12 2 13
REMARK SMILES IDX 1 14 13 15 14 16 15 18 16 19 22 20 17 21 19 22 18 23 20 24
REMARK SMILES IDX 21 25
REMARK H PARENT 14 17
ROOT
ATOM      1  C   UNL     1      26.993 116.033  64.054  1.00  0.00     0.082 A 
ATOM      2  C   UNL     1      27.206 115.414  65.272  1.00  0.00     0.095 A 
ATOM      3  S   UNL     1      27.903 113.864  65.042  1.00  0.00    -0.124 S 
ATOM      4  C   UNL     1      27.885 114.123  63.344  1.00  0.00     0.127 A 
ATOM      5  N   UNL     1      27.365 115.273  62.951  1.00  0.00    -0.238 NA
ENDROOT
BRANCH   1   6
ATOM      6  C   UNL     1      26.406 117.362  63.887  1.00  0.00     0.001 A 
ATOM      7  C   UNL     1      24.831 119.064  64.675  1.00  0.00    -0.022 A 
ATOM      8  C   UNL     1      25.226 119.901  63.625  1.00  0.00     0.006 A 
ATOM      9  C   UNL     1      25.420 117.795  64.790  1.00  0.00     0.016 A 
ATOM     10  C   UNL     1      26.196 119.483  62.716  1.00  0.00     0.001 A 
ATOM     11  C   UNL     1      26.782 118.220  62.845  1.00  0.00     0.010 A 
BRANCH   7  12
ATOM     12  C   UNL     1      23.761 119.503  65.645  1.00  0.00     0.195 C 
BRANCH  12  13
ATOM     13  O   UNL     1      24.307 119.861  66.916  1.00  0.00    -0.380 OA
ATOM     14  C   UNL     1      24.343 121.268  67.118  1.00  0.00     0.195 C 
ENDBRANCH  12  13
ENDBRANCH   7  12
ENDBRANCH   1   6
BRANCH   4  15
ATOM     15  C   UNL     1      28.392 113.065  62.388  1.00  0.00     0.204 C 
BRANCH  15  16
ATOM     16  O   UNL     1      27.596 113.132  61.192  1.00  0.00    -0.381 OA
ATOM     17  H   UNL     1      27.065 112.311  61.185  1.00  0.00     0.212 HD
ENDBRANCH  15  16
BRANCH  15  18
ATOM     18  C   UNL     1      29.848 113.230  62.013  1.00  0.00    -0.009 A 
ATOM     19  C   UNL     1      30.242 114.114  60.998  1.00  0.00     0.007 A 
ATOM     20  C   UNL     1      30.842 112.516  62.703  1.00  0.00     0.053 A 
ATOM     21  C   UNL     1      31.592 114.274  60.683  1.00  0.00     0.004 A 
ATOM     22  C   UNL     1      32.197 112.673  62.391  1.00  0.00     0.119 A 
ATOM     23  C   UNL     1      32.568 113.555  61.378  1.00  0.00     0.046 A 
BRANCH  22  24
ATOM     24  O   UNL     1      33.046 111.913  63.150  1.00  0.00    -0.497 OA
ATOM     25  C   UNL     1      32.791 110.515  63.192  1.00  0.00     0.278 C 
ENDBRANCH  22  24
ENDBRANCH  15  18
ENDBRANCH   4  15
TORSDOF 7
ENDMDL
MODEL 3
REMARK VINA RESULT:      -5.4     11.522     12.939
REMARK SMILES COCc1cccc(-c2csc(C(O)c3cccc(OC)c3)n2)c1
REMARK SMILES IDX 9 1 10 2 11 3 12 4 23 5 8 6 4 7 5 8 24 9 6 10 7 11 3 12 2 13
REMARK SMILES IDX 1 14 13 15 14 16 15 18 16 19 22 20 17 21 19 22 18 23 20 24
REMARK SMILES IDX 21 25
REMARK H PARENT 14 17
ROOT
ATOM      1  C   UNL     1      25.980 117.912  63.936  1.00  0.00     0.082 A 
ATOM      2  C   UNL     1      25.999 118.889  62.959  1.00  0.00     0.095 A 
ATOM      3  S   UNL     1      25.079 120.249  63.455  1.00  0.00    -0.124 S 
ATOM      4  C   UNL     1      24.725 119.452  64.935  1.00  0.00     0.127 A 
ATOM      5  N   UNL     1      25.225 118.235  65.057  1.00  0.00    -0.238 NA
ENDROOT
BRANCH   1   6
ATOM      6  C   UNL     1      26.658 116.619  63.833  1.00  0.00     0.001 A 
ATOM      7  C   UNL     1      28.012 115.070  62.506  1.00  0.00    -0.022 A 
ATOM      8  C   UNL     1      27.978 114.151  63.561  1.00  0.00     0.006 A 
ATOM      9  C   UNL     1      27.341 116.295  62.649  1.00  0.00     0.016 A 
ATOM     10  C   UNL     1      27.297 114.455  64.739  1.00  0.00     0.001 A 
ATOM     11  C   UNL     1      26.640 115.681  64.874  1.00  0.00     0.010 A 
BRANCH   7  12
ATOM     12  C   UNL     1      28.724 114.733  61.218  1.00  0.00     0.195 C 
BRANCH  12  13
ATOM     13  O   UNL     1      30.069 115.214  61.212  1.00  0.00    -0.380 OA
ATOM     14  C   UNL     1      31.025 114.162  61.239  1.00  0.00     0.195 C 
ENDBRANCH  12  13
ENDBRANCH   7  12
ENDBRANCH   1   6
BRANCH   4  15
ATOM     15  C   UNL     1      23.855 120.108  65.985  1.00  0.00     0.204 C 
BRANCH  15  16
ATOM     16  O   UNL     1      22.636 119.351  66.085  1.00  0.00    -0.381 OA
ATOM     17  H   UNL     1      22.073 119.662  65.349  1.00  0.00     0.212 HD
ENDBRANCH  15  16
BRANCH  15  18
ATOM     18  C   UNL     1      24.498 120.177  67.353  1.00  0.00    -0.009 A 
ATOM     19  C   UNL     1      24.172 119.254  68.357  1.00  0.00     0.007 A 
ATOM     20  C   UNL     1      25.465 121.157  67.631  1.00  0.00     0.053 A 
ATOM     21  C   UNL     1      24.794 119.315  69.604  1.00  0.00     0.004 A 
ATOM     22  C   UNL     1      26.091 121.223  68.880  1.00  0.00     0.119 A 
ATOM     23  C   UNL     1      25.753 120.297  69.866  1.00  0.00     0.046 A 
BRANCH  22  24
ATOM     24  O   UNL     1      27.011 122.230  69.002  1.00  0.00    -0.497 OA
ATOM     25  C   UNL     1      26.597 123.395  69.704  1.00  0.00     0.278 C 
ENDBRANCH  22  24
ENDBRANCH  15  18
ENDBRANCH   4  15
TORSDOF 7
ENDMDL
