MODEL 1
REMARK VINA RESULT:      -5.3      0.000      0.000
REMARK SMILES O=C(COc1ccc(Cl)cc1Cl)N/N=C/c1ccccn1
REMARK SMILES IDX 3 1 2 2 1 3 13 4 14 6 15 7 16 8 17 9 21 10 18 11 20 12 19 13
REMARK SMILES IDX 4 14 5 15 6 16 11 17 7 18 10 19 8 20 12 21 9 22
REMARK H PARENT 13 5
ROOT
ATOM      1  C   UNL     1      29.074 114.617  61.017  1.00  0.00     0.331 C 
ENDROOT
BRANCH   1   2
ATOM      2  C   UNL     1      28.616 116.036  61.375  1.00  0.00     0.277 C 
ATOM      3  O   UNL     1      29.160 117.051  60.951  1.00  0.00    -0.269 OA
ATOM      4  N   UNL     1      27.509 116.011  62.234  1.00  0.00    -0.244 N 
ATOM      5  H   UNL     1      27.368 115.171  62.786  1.00  0.00     0.193 HD
BRANCH   4   6
ATOM      6  N   UNL     1      26.970 117.128  62.824  1.00  0.00    -0.179 NA
ATOM      7  C   UNL     1      26.291 116.956  63.920  1.00  0.00     0.161 C 
BRANCH   7   8
ATOM      8  C   UNL     1      25.629 118.079  64.620  1.00  0.00     0.083 A 
ATOM      9  C   UNL     1      25.117 117.922  65.902  1.00  0.00     0.030 A 
ATOM     10  N   UNL     1      25.566 119.234  63.916  1.00  0.00    -0.255 NA
ATOM     11  C   UNL     1      24.506 119.020  66.501  1.00  0.00     0.004 A 
ATOM     12  C   UNL     1      24.970 120.279  64.528  1.00  0.00     0.112 A 
ATOM     13  C   UNL     1      24.431 120.223  65.804  1.00  0.00     0.020 A 
ENDBRANCH   7   8
ENDBRANCH   4   6
ENDBRANCH   1   2
BRANCH   1  14
ATOM     14  O   UNL     1      30.477 114.463  61.161  1.00  0.00    -0.482 OA
BRANCH  14  15
ATOM     15  C   UNL     1      30.944 113.367  61.836  1.00  0.00     0.138 A 
ATOM     16  C   UNL     1      30.355 112.834  62.989  1.00  0.00     0.049 A 
ATOM     17  C   UNL     1      32.094 112.747  61.317  1.00  0.00     0.084 A 
ATOM     18  C   UNL     1      30.907 111.708  63.608  1.00  0.00     0.024 A 
ATOM     19  C   UNL     1      32.646 111.621  61.935  1.00  0.00     0.045 A 
ATOM     20  C   UNL     1      32.047 111.108  63.080  1.00  0.00     0.042 A 
ATOM     21  Cl  UNL     1      32.878 113.347  59.897  1.00  0.00    -0.080 Cl
ATOM     22  Cl  UNL     1      32.717 109.723  63.850  1.00  0.00    -0.084 Cl
ENDBRANCH  14  15
ENDBRANCH   1  14
TORSDOF 5
ENDMDL
MODEL 2
REMARK VINA RESULT:      -5.3      4.440      8.704
REMARK SMILES O=C(COc1ccc(Cl)cc1Cl)N/N=C/c1ccccn1
REMARK SMILES IDX 3 1 2 2 1 3 13 4 14 6 15 7 16 8 17 9 21 10 18 11 20 12 19 13
REMARK SMILES IDX 4 14 5 15 6 16 11 17 7 18 10 19 8 20 12 21 9 22
REMARK H PARENT 13 5
ROOT
ATOM      1  C   UNL     1      26.533 114.420  64.668  1.00  0.00     0.331 C 
ENDROOT
BRANCH   1   2
ATOM      2  C   UNL     1      27.742 113.700  64.059  1.00  0.00     0.277 C 
ATOM      3  O   UNL     1      28.717 113.343  64.713  1.00  0.00    -0.269 OA
ATOM      4  N   UNL     1      27.578 113.508  62.680  1.00  0.00    -0.244 N 
ATOM      5  H   UNL     1      26.936 114.129  62.198  1.00  0.00     0.193 HD
BRANCH   4   6
ATOM      6  N   UNL     1      28.555 113.012  61.853  1.00  0.00    -0.179 NA
ATOM      7  C   UNL     1      29.340 113.871  61.273  1.00  0.00     0.161 C 
BRANCH   7   8
ATOM      8  C   UNL     1      30.400 113.457  60.328  1.00  0.00     0.083 A 
ATOM      9  C   UNL     1      30.118 112.624  59.253  1.00  0.00     0.030 A 
ATOM     10  N   UNL     1      31.634 113.944  60.604  1.00  0.00    -0.255 NA
ATOM     11  C   UNL     1      31.164 112.273  58.404  1.00  0.00     0.004 A 
ATOM     12  C   UNL     1      32.624 113.586  59.760  1.00  0.00     0.112 A 
ATOM     13  C   UNL     1      32.441 112.763  58.659  1.00  0.00     0.020 A 
ENDBRANCH   7   8
ENDBRANCH   4   6
ENDBRANCH   1   2
BRANCH   1  14
ATOM     14  O   UNL     1      26.899 115.650  65.271  1.00  0.00    -0.482 OA
BRANCH  14  15
ATOM     15  C   UNL     1      26.466 116.812  64.690  1.00  0.00     0.138 A 
ATOM     16  C   UNL     1      26.805 117.228  63.397  1.00  0.00     0.049 A 
ATOM     17  C   UNL     1      25.623 117.630  65.462  1.00  0.00     0.084 A 
ATOM     18  C   UNL     1      26.311 118.434  62.890  1.00  0.00     0.024 A 
ATOM     19  C   UNL     1      25.128 118.835  64.957  1.00  0.00     0.045 A 
ATOM     20  C   UNL     1      25.476 119.231  63.670  1.00  0.00     0.042 A 
ATOM     21  Cl  UNL     1      25.159 117.184  67.069  1.00  0.00    -0.080 Cl
ATOM     22  Cl  UNL     1      24.875 120.713  63.037  1.00  0.00    -0.084 Cl
ENDBRANCH  14  15
ENDBRANCH   1  14
TORSDOF 5
ENDMDL
MODEL 3
REMARK VINA RESULT:      -5.2      1.376      2.099
REMARK SMILES O=C(COc1ccc(Cl)cc1Cl)N/N=C/c1ccccn1
REMARK SMILES IDX 3 1 2 2 1 3 13 4 14 6 15 7 16 8 17 9 21 10 18 11 20 12 19 13
REMARK SMILES IDX 4 14 5 15 6 16 11 17 7 18 10 19 8 20 12 21 9 22
REMARK H PARENT 13 5
ROOT
ATOM      1  C   UNL     1      28.745 114.465  60.848  1.00  0.00     0.331 C 
ENDROOT
BRANCH   1   2
ATOM      2  C   UNL     1      28.543 115.908  61.325  1.00  0.00     0.277 C 
ATOM      3  O   UNL     1      29.261 116.842  60.980  1.00  0.00    -0.269 OA
ATOM      4  N   UNL     1      27.444 116.009  62.188  1.00  0.00    -0.244 N 
ATOM      5  H   UNL     1      27.153 115.165  62.671  1.00  0.00     0.193 HD
BRANCH   4   6
ATOM      6  N   UNL     1      27.107 117.152  62.871  1.00  0.00    -0.179 NA
ATOM      7  C   UNL     1      26.323 117.024  63.900  1.00  0.00     0.161 C 
BRANCH   7   8
ATOM      8  C   UNL     1      25.860 118.188  64.687  1.00  0.00     0.083 A 
ATOM      9  C   UNL     1      25.330 119.311  64.063  1.00  0.00     0.030 A 
ATOM     10  N   UNL     1      26.000 118.064  66.029  1.00  0.00    -0.255 NA
ATOM     11  C   UNL     1      24.915 120.370  64.865  1.00  0.00     0.004 A 
ATOM     12  C   UNL     1      25.584 119.107  66.776  1.00  0.00     0.112 A 
ATOM     13  C   UNL     1      25.041 120.269  66.247  1.00  0.00     0.020 A 
ENDBRANCH   7   8
ENDBRANCH   4   6
ENDBRANCH   1   2
BRANCH   1  14
ATOM     14  O   UNL     1      29.035 113.589  61.926  1.00  0.00    -0.482 OA
BRANCH  14  15
ATOM     15  C   UNL     1      30.330 113.180  62.101  1.00  0.00     0.138 A 
ATOM     16  C   UNL     1      31.430 113.714  61.418  1.00  0.00     0.049 A 
ATOM     17  C   UNL     1      30.550 112.153  63.035  1.00  0.00     0.084 A 
ATOM     18  C   UNL     1      32.718 113.230  61.666  1.00  0.00     0.024 A 
ATOM     19  C   UNL     1      31.837 111.669  63.284  1.00  0.00     0.045 A 
ATOM     20  C   UNL     1      32.916 112.212  62.595  1.00  0.00     0.042 A 
ATOM     21  Cl  UNL     1      29.242 111.443  63.917  1.00  0.00    -0.080 Cl
ATOM     22  Cl  UNL     1      34.505 111.624  62.892  1.00  0.00    -0.084 Cl
ENDBRANCH  14  15
ENDBRANCH   1  14
TORSDOF 5
ENDMDL
