MODEL 1
REMARK VINA RESULT:      -5.1      0.000      0.000
REMARK SMILES CCCc1c(C)nc2nc3ccccc3n2c1O
REMARK SMILES IDX 4 1 5 2 6 3 7 4 8 5 9 6 10 7 11 8 12 9 13 10 14 11 15 12
REMARK SMILES IDX 16 13 17 14 3 15 2 16 1 17 18 18
REMARK H PARENT 18 19
ROOT
ATOM      1  C   UNL     1      26.725 114.263  65.012  1.00  0.00     0.034 C 
ATOM      2  C   UNL     1      26.028 114.407  66.351  1.00  0.00     0.050 C 
ATOM      3  C   UNL     1      25.993 113.213  67.282  1.00  0.00     0.067 C 
ATOM      4  N   UNL     1      25.452 115.485  66.788  1.00  0.00    -0.217 NA
ATOM      5  C   UNL     1      25.471 116.579  65.980  1.00  0.00     0.237 A 
ATOM      6  N   UNL     1      24.951 117.763  66.218  1.00  0.00    -0.211 NA
ATOM      7  C   UNL     1      25.228 118.521  65.113  1.00  0.00     0.091 A 
ATOM      8  C   UNL     1      24.895 119.859  64.856  1.00  0.00     0.031 A 
ATOM      9  C   UNL     1      25.288 120.435  63.642  1.00  0.00     0.002 A 
ATOM     10  C   UNL     1      26.000 119.690  62.701  1.00  0.00     0.002 A 
ATOM     11  C   UNL     1      26.340 118.354  62.941  1.00  0.00     0.029 A 
ATOM     12  C   UNL     1      25.937 117.792  64.163  1.00  0.00     0.078 A 
ATOM     13  N   UNL     1      26.088 116.540  64.733  1.00  0.00    -0.247 N 
ATOM     14  C   UNL     1      26.716 115.380  64.249  1.00  0.00     0.203 C 
ENDROOT
BRANCH   1  15
ATOM     15  C   UNL     1      27.391 112.962  64.650  1.00  0.00     0.043 C 
BRANCH  15  16
ATOM     16  C   UNL     1      28.915 113.052  64.750  1.00  0.00     0.002 C 
ATOM     17  C   UNL     1      29.425 112.412  66.032  1.00  0.00     0.004 C 
ENDBRANCH  15  16
ENDBRANCH   1  15
BRANCH  14  18
ATOM     18  O   UNL     1      27.298 115.431  62.992  1.00  0.00    -0.494 OA
ATOM     19  H   UNL     1      26.714 115.027  62.331  1.00  0.00     0.295 HD
ENDBRANCH  14  18
TORSDOF 3
ENDMDL
MODEL 2
REMARK VINA RESULT:      -5.1      1.041      1.350
REMARK SMILES CCCc1c(C)nc2nc3ccccc3n2c1O
REMARK SMILES IDX 4 1 5 2 6 3 7 4 8 5 9 6 10 7 11 8 12 9 13 10 14 11 15 12
REMARK SMILES IDX 16 13 17 14 3 15 2 16 1 17 18 18
REMARK H PARENT 18 19
ROOT
ATOM      1  C   UNL     1      26.279 114.551  65.705  1.00  0.00     0.034 C 
ATOM      2  C   UNL     1      25.628 114.957  67.013  1.00  0.00     0.050 C 
ATOM      3  C   UNL     1      25.534 113.933  68.125  1.00  0.00     0.067 C 
ATOM      4  N   UNL     1      25.140 116.131  67.278  1.00  0.00    -0.217 NA
ATOM      5  C   UNL     1      25.214 117.076  66.304  1.00  0.00     0.237 A 
ATOM      6  N   UNL     1      24.783 118.318  66.356  1.00  0.00    -0.211 NA
ATOM      7  C   UNL     1      25.083 118.867  65.139  1.00  0.00     0.091 A 
ATOM      8  C   UNL     1      24.837 120.167  64.674  1.00  0.00     0.031 A 
ATOM      9  C   UNL     1      25.238 120.512  63.378  1.00  0.00     0.002 A 
ATOM     10  C   UNL     1      25.872 119.577  62.560  1.00  0.00     0.002 A 
ATOM     11  C   UNL     1      26.124 118.275  63.007  1.00  0.00     0.029 A 
ATOM     12  C   UNL     1      25.715 117.946  64.309  1.00  0.00     0.078 A 
ATOM     13  N   UNL     1      25.794 116.794  65.071  1.00  0.00    -0.247 N 
ATOM     14  C   UNL     1      26.327 115.529  64.772  1.00  0.00     0.203 C 
ENDROOT
BRANCH   1  15
ATOM     15  C   UNL     1      26.844 113.164  65.549  1.00  0.00     0.043 C 
BRANCH  15  16
ATOM     16  C   UNL     1      25.886 112.238  64.796  1.00  0.00     0.002 C 
ATOM     17  C   UNL     1      26.499 111.745  63.495  1.00  0.00     0.004 C 
ENDBRANCH  15  16
ENDBRANCH   1  15
BRANCH  14  18
ATOM     18  O   UNL     1      26.879 115.336  63.515  1.00  0.00    -0.494 OA
ATOM     19  H   UNL     1      26.181 115.244  62.849  1.00  0.00     0.295 HD
ENDBRANCH  14  18
TORSDOF 3
ENDMDL
MODEL 3
REMARK VINA RESULT:      -5.1      2.359      3.054
REMARK SMILES CCCc1c(C)nc2nc3ccccc3n2c1O
REMARK SMILES IDX 4 1 5 2 6 3 7 4 8 5 9 6 10 7 11 8 12 9 13 10 14 11 15 12
REMARK SMILES IDX 16 13 17 14 3 15 2 16 1 17 18 18
REMARK H PARENT 18 19
ROOT
ATOM      1  C   UNL     1      28.472 114.661  62.087  1.00  0.00     0.034 C 
ATOM      2  C   UNL     1      28.000 113.869  63.291  1.00  0.00     0.050 C 
ATOM      3  C   UNL     1      28.466 112.435  63.444  1.00  0.00     0.067 C 
ATOM      4  N   UNL     1      27.225 114.317  64.231  1.00  0.00    -0.217 NA
ATOM      5  C   UNL     1      26.795 115.603  64.129  1.00  0.00     0.237 A 
ATOM      6  N   UNL     1      26.007 116.254  64.958  1.00  0.00    -0.211 NA
ATOM      7  C   UNL     1      25.865 117.508  64.428  1.00  0.00     0.091 A 
ATOM      8  C   UNL     1      25.127 118.594  64.920  1.00  0.00     0.031 A 
ATOM      9  C   UNL     1      25.127 119.796  64.203  1.00  0.00     0.002 A 
ATOM     10  C   UNL     1      25.851 119.913  63.016  1.00  0.00     0.002 A 
ATOM     11  C   UNL     1      26.592 118.840  62.510  1.00  0.00     0.029 A 
ATOM     12  C   UNL     1      26.580 117.642  63.241  1.00  0.00     0.078 A 
ATOM     13  N   UNL     1      27.176 116.406  63.058  1.00  0.00    -0.247 N 
ATOM     14  C   UNL     1      28.015 115.933  62.036  1.00  0.00     0.203 C 
ENDROOT
BRANCH   1  15
ATOM     15  C   UNL     1      29.409 114.027  61.093  1.00  0.00     0.043 C 
BRANCH  15  16
ATOM     16  C   UNL     1      30.861 114.447  61.328  1.00  0.00     0.002 C 
ATOM     17  C   UNL     1      31.804 113.745  60.363  1.00  0.00     0.004 C 
ENDBRANCH  15  16
ENDBRANCH   1  15
BRANCH  14  18
ATOM     18  O   UNL     1      28.336 116.801  61.004  1.00  0.00    -0.494 OA
ATOM     19  H   UNL     1      28.805 117.578  61.348  1.00  0.00     0.295 HD
ENDBRANCH  14  18
TORSDOF 3
ENDMDL
