MODEL 1
REMARK VINA RESULT:      -6.0      0.000      0.000
REMARK SMILES CCOC(=O)c1ccc(NC(=O)C2COc3ccccc3O2)cc1
REMARK SMILES IDX 4 1 5 2 3 3 2 4 1 5 6 6 7 7 24 8 8 9 23 10 9 11 10 12 11 13
REMARK SMILES IDX 12 14 13 16 14 17 22 18 15 19 21 20 16 21 20 22 17 23 19 24
REMARK SMILES IDX 18 25
REMARK H PARENT 10 15
ROOT
ATOM      1  C   UNL     1      16.367 103.475  65.457  1.00  0.00     0.338 C 
ATOM      2  O   UNL     1      15.338 102.844  65.278  1.00  0.00    -0.246 OA
ENDROOT
BRANCH   1   3
ATOM      3  O   UNL     1      17.550 103.268  64.828  1.00  0.00    -0.462 OA
BRANCH   3   4
ATOM      4  C   UNL     1      17.473 103.037  63.414  1.00  0.00     0.230 C 
ATOM      5  C   UNL     1      17.114 104.322  62.692  1.00  0.00     0.049 C 
ENDBRANCH   3   4
ENDBRANCH   1   3
BRANCH   1   6
ATOM      6  C   UNL     1      16.479 104.598  66.428  1.00  0.00     0.060 A 
ATOM      7  C   UNL     1      15.363 104.909  67.213  1.00  0.00     0.018 A 
ATOM      8  C   UNL     1      17.650 105.347  66.584  1.00  0.00     0.018 A 
ATOM      9  C   UNL     1      15.421 105.956  68.139  1.00  0.00     0.027 A 
ATOM     10  C   UNL     1      17.703 106.396  67.513  1.00  0.00     0.027 A 
ATOM     11  C   UNL     1      16.590 106.710  68.295  1.00  0.00     0.041 A 
BRANCH  11  12
ATOM     12  N   UNL     1      16.565 107.742  69.250  1.00  0.00    -0.323 N 
ATOM     13  C   UNL     1      17.345 107.873  70.391  1.00  0.00     0.269 C 
ATOM     14  O   UNL     1      18.210 107.089  70.768  1.00  0.00    -0.270 OA
ATOM     15  H   UNL     1      15.960 108.535  69.053  1.00  0.00     0.170 HD
BRANCH  13  16
ATOM     16  C   UNL     1      16.956 109.109  71.211  1.00  0.00     0.299 C 
ATOM     17  C   UNL     1      18.100 109.531  72.123  1.00  0.00     0.285 C 
ATOM     18  O   UNL     1      16.592 110.175  70.320  1.00  0.00    -0.473 OA
ATOM     19  O   UNL     1      17.699 110.620  72.965  1.00  0.00    -0.485 OA
ATOM     20  C   UNL     1      16.514 111.377  70.975  1.00  0.00     0.162 A 
ATOM     21  C   UNL     1      17.037 111.587  72.256  1.00  0.00     0.161 A 
ATOM     22  C   UNL     1      15.882 112.418  70.299  1.00  0.00     0.050 A 
ATOM     23  C   UNL     1      16.887 112.827  72.874  1.00  0.00     0.050 A 
ATOM     24  C   UNL     1      15.745 113.663  70.914  1.00  0.00     0.004 A 
ATOM     25  C   UNL     1      16.241 113.865  72.203  1.00  0.00     0.004 A 
ENDBRANCH  13  16
ENDBRANCH  11  12
ENDBRANCH   1   6
TORSDOF 5
ENDMDL
MODEL 2
REMARK VINA RESULT:      -5.9      1.584      1.689
REMARK SMILES CCOC(=O)c1ccc(NC(=O)C2COc3ccccc3O2)cc1
REMARK SMILES IDX 4 1 5 2 3 3 2 4 1 5 6 6 7 7 24 8 8 9 23 10 9 11 10 12 11 13
REMARK SMILES IDX 12 14 13 16 14 17 22 18 15 19 21 20 16 21 20 22 17 23 19 24
REMARK SMILES IDX 18 25
REMARK H PARENT 10 15
ROOT
ATOM      1  C   UNL     1      16.144 102.925  65.699  1.00  0.00     0.338 C 
ATOM      2  O   UNL     1      15.338 102.104  66.107  1.00  0.00    -0.246 OA
ENDROOT
BRANCH   1   3
ATOM      3  O   UNL     1      16.914 102.805  64.590  1.00  0.00    -0.462 OA
BRANCH   3   4
ATOM      4  C   UNL     1      16.367 103.361  63.386  1.00  0.00     0.230 C 
ATOM      5  C   UNL     1      17.476 103.934  62.523  1.00  0.00     0.049 C 
ENDBRANCH   3   4
ENDBRANCH   1   3
BRANCH   1   6
ATOM      6  C   UNL     1      16.411 104.219  66.384  1.00  0.00     0.060 A 
ATOM      7  C   UNL     1      15.338 104.880  66.994  1.00  0.00     0.018 A 
ATOM      8  C   UNL     1      17.685 104.795  66.441  1.00  0.00     0.018 A 
ATOM      9  C   UNL     1      15.540 106.099  67.649  1.00  0.00     0.027 A 
ATOM     10  C   UNL     1      17.883 106.017  67.099  1.00  0.00     0.027 A 
ATOM     11  C   UNL     1      16.813 106.679  67.706  1.00  0.00     0.041 A 
BRANCH  11  12
ATOM     12  N   UNL     1      16.930 107.904  68.388  1.00  0.00    -0.323 N 
ATOM     13  C   UNL     1      16.934 108.124  69.758  1.00  0.00     0.269 C 
ATOM     14  O   UNL     1      16.834 107.265  70.628  1.00  0.00    -0.270 OA
ATOM     15  H   UNL     1      17.111 108.728  67.822  1.00  0.00     0.170 HD
BRANCH  13  16
ATOM     16  C   UNL     1      17.008 109.618  70.097  1.00  0.00     0.299 C 
ATOM     17  C   UNL     1      16.647 109.856  71.556  1.00  0.00     0.285 C 
ATOM     18  O   UNL     1      18.328 110.106  69.809  1.00  0.00    -0.473 OA
ATOM     19  O   UNL     1      16.613 111.261  71.845  1.00  0.00    -0.485 OA
ATOM     20  C   UNL     1      18.538 111.346  70.354  1.00  0.00     0.162 A 
ATOM     21  C   UNL     1      17.703 111.908  71.326  1.00  0.00     0.161 A 
ATOM     22  C   UNL     1      19.650 112.050  69.897  1.00  0.00     0.050 A 
ATOM     23  C   UNL     1      17.959 113.191  71.806  1.00  0.00     0.050 A 
ATOM     24  C   UNL     1      19.913 113.329  70.390  1.00  0.00     0.004 A 
ATOM     25  C   UNL     1      19.064 113.901  71.338  1.00  0.00     0.004 A 
ENDBRANCH  13  16
ENDBRANCH  11  12
ENDBRANCH   1   6
TORSDOF 5
ENDMDL
MODEL 3
REMARK VINA RESULT:      -5.8     14.934     15.659
REMARK SMILES CCOC(=O)c1ccc(NC(=O)C2COc3ccccc3O2)cc1
REMARK SMILES IDX 4 1 5 2 3 3 2 4 1 5 6 6 7 7 24 8 8 9 23 10 9 11 10 12 11 13
REMARK SMILES IDX 12 14 13 16 14 17 22 18 15 19 21 20 16 21 20 22 17 23 19 24
REMARK SMILES IDX 18 25
REMARK H PARENT 10 15
ROOT
ATOM      1  C   UNL     1      31.243 111.990  58.582  1.00  0.00     0.338 C 
ATOM      2  O   UNL     1      32.326 111.513  58.881  1.00  0.00    -0.246 OA
ENDROOT
BRANCH   1   3
ATOM      3  O   UNL     1      30.597 111.825  57.402  1.00  0.00    -0.462 OA
BRANCH   3   4
ATOM      4  C   UNL     1      31.411 111.925  56.225  1.00  0.00     0.230 C 
ATOM      5  C   UNL     1      31.105 113.214  55.485  1.00  0.00     0.049 C 
ENDBRANCH   3   4
ENDBRANCH   1   3
BRANCH   1   6
ATOM      6  C   UNL     1      30.449 112.854  59.498  1.00  0.00     0.060 A 
ATOM      7  C   UNL     1      29.058 112.880  59.344  1.00  0.00     0.018 A 
ATOM      8  C   UNL     1      31.037 113.636  60.498  1.00  0.00     0.018 A 
ATOM      9  C   UNL     1      28.270 113.677  60.180  1.00  0.00     0.027 A 
ATOM     10  C   UNL     1      30.243 114.433  61.334  1.00  0.00     0.027 A 
ATOM     11  C   UNL     1      28.855 114.463  61.180  1.00  0.00     0.041 A 
BRANCH  11  12
ATOM     12  N   UNL     1      27.991 115.232  61.980  1.00  0.00    -0.323 N 
ATOM     13  C   UNL     1      27.646 115.030  63.309  1.00  0.00     0.269 C 
ATOM     14  O   UNL     1      28.047 114.121  64.029  1.00  0.00    -0.270 OA
ATOM     15  H   UNL     1      27.627 116.088  61.570  1.00  0.00     0.170 HD
BRANCH  13  16
ATOM     16  C   UNL     1      26.613 116.054  63.794  1.00  0.00     0.299 C 
ATOM     17  C   UNL     1      26.859 116.415  65.253  1.00  0.00     0.285 C 
ATOM     18  O   UNL     1      26.673 117.222  62.961  1.00  0.00    -0.473 OA
ATOM     19  O   UNL     1      25.830 117.291  65.736  1.00  0.00    -0.485 OA
ATOM     20  C   UNL     1      25.987 118.273  63.512  1.00  0.00     0.162 A 
ATOM     21  C   UNL     1      25.569 118.300  64.847  1.00  0.00     0.161 A 
ATOM     22  C   UNL     1      25.715 119.351  62.673  1.00  0.00     0.050 A 
ATOM     23  C   UNL     1      24.843 119.387  65.327  1.00  0.00     0.050 A 
ATOM     24  C   UNL     1      24.999 120.446  63.160  1.00  0.00     0.004 A 
ATOM     25  C   UNL     1      24.558 120.461  64.484  1.00  0.00     0.004 A 
ENDBRANCH  13  16
ENDBRANCH  11  12
ENDBRANCH   1   6
TORSDOF 5
ENDMDL
