MODEL 1
REMARK VINA RESULT:      -5.1      0.000      0.000
REMARK SMILES Cn1cc(Cl)c(/C=C(\C#N)S(=O)(=O)c2ccccc2)n1
REMARK SMILES IDX 7 1 8 2 9 3 10 4 6 5 2 6 3 7 20 8 4 9 1 10 5 11 11 12 12 13
REMARK SMILES IDX 13 14 14 15 15 16 19 17 16 18 18 19 17 20
REMARK H PARENT
ROOT
ATOM      1  C   UNL     1      26.277 117.524  67.395  1.00  0.00     0.064 C 
ATOM      2  C   UNL     1      25.671 116.455  66.850  1.00  0.00     0.151 C 
ATOM      3  C   UNL     1      24.870 115.539  67.572  1.00  0.00     0.112 C 
ATOM      4  N   UNL     1      24.196 114.801  68.162  1.00  0.00    -0.192 NA
ENDROOT
BRANCH   1   5
ATOM      5  C   UNL     1      26.182 117.930  68.762  1.00  0.00     0.106 A 
ATOM      6  N   UNL     1      26.598 118.051  70.835  1.00  0.00    -0.274 N 
ATOM      7  C   UNL     1      25.581 118.937  70.647  1.00  0.00     0.129 A 
ATOM      8  N   UNL     1      26.999 117.442  69.702  1.00  0.00    -0.172 NA
ATOM      9  C   UNL     1      25.289 118.891  69.306  1.00  0.00     0.086 A 
ATOM     10  C   UNL     1      27.257 117.735  72.080  1.00  0.00     0.173 C 
ATOM     11  Cl  UNL     1      24.123 119.806  68.482  1.00  0.00    -0.080 Cl
ENDBRANCH   1   5
BRANCH   2  12
ATOM     12  S   UNL     1      25.920 116.126  65.170  1.00  0.00     0.216 S 
ATOM     13  O   UNL     1      27.317 115.818  64.913  1.00  0.00    -0.218 OA
ATOM     14  O   UNL     1      24.888 115.222  64.696  1.00  0.00    -0.218 OA
BRANCH  12  15
ATOM     15  C   UNL     1      25.624 117.712  64.408  1.00  0.00     0.072 A 
ATOM     16  C   UNL     1      24.627 118.545  64.930  1.00  0.00     0.021 A 
ATOM     17  C   UNL     1      26.403 118.121  63.322  1.00  0.00     0.021 A 
ATOM     18  C   UNL     1      24.393 119.785  64.338  1.00  0.00     0.001 A 
ATOM     19  C   UNL     1      26.160 119.362  62.736  1.00  0.00     0.001 A 
ATOM     20  C   UNL     1      25.156 120.191  63.241  1.00  0.00     0.000 A 
ENDBRANCH  12  15
ENDBRANCH   2  12
TORSDOF 3
ENDMDL
MODEL 2
REMARK VINA RESULT:      -5.1      0.072      1.088
REMARK SMILES Cn1cc(Cl)c(/C=C(\C#N)S(=O)(=O)c2ccccc2)n1
REMARK SMILES IDX 7 1 8 2 9 3 10 4 6 5 2 6 3 7 20 8 4 9 1 10 5 11 11 12 12 13
REMARK SMILES IDX 13 14 14 15 15 16 19 17 16 18 18 19 17 20
REMARK H PARENT
ROOT
ATOM      1  C   UNL     1      26.276 117.571  67.394  1.00  0.00     0.064 C 
ATOM      2  C   UNL     1      25.674 116.501  66.848  1.00  0.00     0.151 C 
ATOM      3  C   UNL     1      24.882 115.577  67.570  1.00  0.00     0.112 C 
ATOM      4  N   UNL     1      24.217 114.833  68.162  1.00  0.00    -0.192 NA
ENDROOT
BRANCH   1   5
ATOM      5  C   UNL     1      26.186 117.973  68.762  1.00  0.00     0.106 A 
ATOM      6  N   UNL     1      26.578 118.052  70.841  1.00  0.00    -0.274 N 
ATOM      7  C   UNL     1      25.619 119.001  70.646  1.00  0.00     0.129 A 
ATOM      8  N   UNL     1      26.958 117.428  69.710  1.00  0.00    -0.172 NA
ATOM      9  C   UNL     1      25.345 118.982  69.301  1.00  0.00     0.086 A 
ATOM     10  C   UNL     1      27.197 117.688  72.094  1.00  0.00     0.173 C 
ATOM     11  Cl  UNL     1      24.249 119.972  68.468  1.00  0.00    -0.080 Cl
ENDBRANCH   1   5
BRANCH   2  12
ATOM     12  S   UNL     1      25.917 116.179  65.165  1.00  0.00     0.216 S 
ATOM     13  O   UNL     1      27.314 115.878  64.901  1.00  0.00    -0.218 OA
ATOM     14  O   UNL     1      24.887 115.272  64.693  1.00  0.00    -0.218 OA
BRANCH  12  15
ATOM     15  C   UNL     1      25.610 117.767  64.411  1.00  0.00     0.072 A 
ATOM     16  C   UNL     1      26.373 118.155  63.304  1.00  0.00     0.021 A 
ATOM     17  C   UNL     1      24.599 118.593  64.910  1.00  0.00     0.021 A 
ATOM     18  C   UNL     1      26.136 119.395  62.712  1.00  0.00     0.001 A 
ATOM     19  C   UNL     1      24.371 119.831  64.311  1.00  0.00     0.001 A 
ATOM     20  C   UNL     1      25.139 120.232  63.217  1.00  0.00     0.000 A 
ENDBRANCH  12  15
ENDBRANCH   2  12
TORSDOF 3
ENDMDL
MODEL 3
REMARK VINA RESULT:      -4.9      2.702      4.271
REMARK SMILES Cn1cc(Cl)c(/C=C(\C#N)S(=O)(=O)c2ccccc2)n1
REMARK SMILES IDX 7 1 8 2 9 3 10 4 6 5 2 6 3 7 20 8 4 9 1 10 5 11 11 12 12 13
REMARK SMILES IDX 13 14 14 15 15 16 19 17 16 18 18 19 17 20
REMARK H PARENT
ROOT
ATOM      1  C   UNL     1      25.007 116.529  66.552  1.00  0.00     0.064 C 
ATOM      2  C   UNL     1      25.458 117.548  67.303  1.00  0.00     0.151 C 
ATOM      3  C   UNL     1      26.215 117.391  68.488  1.00  0.00     0.112 C 
ATOM      4  N   UNL     1      26.854 117.259  69.448  1.00  0.00    -0.192 NA
ENDROOT
BRANCH   1   5
ATOM      5  C   UNL     1      25.246 115.142  66.796  1.00  0.00     0.106 A 
ATOM      6  N   UNL     1      25.020 113.196  67.599  1.00  0.00    -0.274 N 
ATOM      7  C   UNL     1      26.074 113.083  66.744  1.00  0.00     0.129 A 
ATOM      8  N   UNL     1      24.482 114.430  67.634  1.00  0.00    -0.172 NA
ATOM      9  C   UNL     1      26.245 114.330  66.197  1.00  0.00     0.086 A 
ATOM     10  C   UNL     1      24.452 112.153  68.421  1.00  0.00     0.173 C 
ATOM     11  Cl  UNL     1      27.394 114.788  65.036  1.00  0.00    -0.080 Cl
ENDBRANCH   1   5
BRANCH   2  12
ATOM     12  S   UNL     1      25.049 119.165  66.842  1.00  0.00     0.216 S 
ATOM     13  O   UNL     1      23.622 119.394  67.000  1.00  0.00    -0.218 OA
ATOM     14  O   UNL     1      25.993 120.092  67.438  1.00  0.00    -0.218 OA
BRANCH  12  15
ATOM     15  C   UNL     1      25.349 119.162  65.083  1.00  0.00     0.072 A 
ATOM     16  C   UNL     1      24.700 120.107  64.279  1.00  0.00     0.021 A 
ATOM     17  C   UNL     1      26.243 118.242  64.529  1.00  0.00     0.021 A 
ATOM     18  C   UNL     1      24.933 120.108  62.904  1.00  0.00     0.001 A 
ATOM     19  C   UNL     1      26.467 118.251  63.153  1.00  0.00     0.001 A 
ATOM     20  C   UNL     1      25.812 119.179  62.343  1.00  0.00     0.000 A 
ENDBRANCH  12  15
ENDBRANCH   2  12
TORSDOF 3
ENDMDL
