MODEL 1
REMARK VINA RESULT:      -5.9      0.000      0.000
REMARK SMILES CC1=CCC(Nc2cc(=O)[nH]c(=O)[nH]2)C=C1
REMARK SMILES IDX 6 1 5 3 2 4 3 5 16 6 4 7 15 8 1 9 7 10 8 11 14 12 9 13 12 14
REMARK SMILES IDX 10 15 11 16 13 17
REMARK H PARENT 6 2 14 18 11 19
ROOT
ATOM      1  N   UNL     1      17.437 106.687  68.507  1.00  0.00    -0.365 N 
ATOM      2  H   UNL     1      18.369 106.284  68.423  1.00  0.00     0.162 HD
ENDROOT
BRANCH   1   3
ATOM      3  C   UNL     1      16.732 106.686  67.228  1.00  0.00     0.107 C 
ATOM      4  C   UNL     1      16.416 103.924  66.350  1.00  0.00    -0.055 C 
ATOM      5  C   UNL     1      17.481 104.612  65.900  1.00  0.00    -0.021 C 
ATOM      6  C   UNL     1      15.348 104.612  67.049  1.00  0.00     0.001 C 
ATOM      7  C   UNL     1      17.628 106.100  66.107  1.00  0.00     0.056 C 
ATOM      8  C   UNL     1      15.483 105.881  67.465  1.00  0.00    -0.002 C 
ATOM      9  C   UNL     1      16.249 102.450  66.133  1.00  0.00     0.044 C 
ENDBRANCH   1   3
BRANCH   1  10
ATOM     10  C   UNL     1      17.325 107.622  69.518  1.00  0.00     0.113 C 
ATOM     11  C   UNL     1      17.545 107.281  70.798  1.00  0.00     0.116 C 
ATOM     12  N   UNL     1      16.974 108.915  69.253  1.00  0.00    -0.294 N 
ATOM     13  C   UNL     1      17.421 108.287  71.869  1.00  0.00     0.255 C 
ATOM     14  C   UNL     1      16.833 109.902  70.184  1.00  0.00     0.327 C 
ATOM     15  O   UNL     1      17.614 107.987  73.042  1.00  0.00    -0.269 OA
ATOM     16  N   UNL     1      17.086 109.545  71.473  1.00  0.00    -0.274 N 
ATOM     17  O   UNL     1      16.498 111.041  69.875  1.00  0.00    -0.248 OA
ATOM     18  H   UNL     1      16.754 109.187  68.307  1.00  0.00     0.173 HD
ATOM     19  H   UNL     1      16.981 110.252  72.183  1.00  0.00     0.175 HD
ENDBRANCH   1  10
TORSDOF 2
ENDMDL
MODEL 2
REMARK VINA RESULT:      -5.6      3.022      6.973
REMARK SMILES CC1=CCC(Nc2cc(=O)[nH]c(=O)[nH]2)C=C1
REMARK SMILES IDX 6 1 5 3 2 4 3 5 16 6 4 7 15 8 1 9 7 10 8 11 14 12 9 13 12 14
REMARK SMILES IDX 10 15 11 16 13 17
REMARK H PARENT 6 2 14 18 11 19
ROOT
ATOM      1  N   UNL     1      17.088 110.732  70.136  1.00  0.00    -0.365 N 
ATOM      2  H   UNL     1      17.834 111.133  69.570  1.00  0.00     0.162 HD
ENDROOT
BRANCH   1   3
ATOM      3  C   UNL     1      16.840 111.525  71.337  1.00  0.00     0.107 C 
ATOM      4  C   UNL     1      18.149 114.111  71.025  1.00  0.00    -0.055 C 
ATOM      5  C   UNL     1      18.822 113.135  71.662  1.00  0.00    -0.021 C 
ATOM      6  C   UNL     1      16.740 113.947  70.724  1.00  0.00     0.001 C 
ATOM      7  C   UNL     1      18.168 111.839  72.074  1.00  0.00     0.056 C 
ATOM      8  C   UNL     1      16.127 112.760  70.857  1.00  0.00    -0.002 C 
ATOM      9  C   UNL     1      18.783 115.411  70.629  1.00  0.00     0.044 C 
ENDBRANCH   1   3
BRANCH   1  10
ATOM     10  C   UNL     1      16.960 109.364  70.001  1.00  0.00     0.113 C 
ATOM     11  C   UNL     1      16.876 108.570  71.081  1.00  0.00     0.116 C 
ATOM     12  N   UNL     1      16.930 108.772  68.770  1.00  0.00    -0.294 N 
ATOM     13  C   UNL     1      16.742 107.110  70.925  1.00  0.00     0.255 C 
ATOM     14  C   UNL     1      16.814 107.433  68.541  1.00  0.00     0.327 C 
ATOM     15  O   UNL     1      16.670 106.375  71.903  1.00  0.00    -0.269 OA
ATOM     16  N   UNL     1      16.704 106.647  69.646  1.00  0.00    -0.274 N 
ATOM     17  O   UNL     1      16.812 106.968  67.406  1.00  0.00    -0.248 OA
ATOM     18  H   UNL     1      17.042 109.338  67.943  1.00  0.00     0.173 HD
ATOM     19  H   UNL     1      16.625 105.652  69.506  1.00  0.00     0.175 HD
ENDBRANCH   1  10
TORSDOF 2
ENDMDL
MODEL 3
REMARK VINA RESULT:      -5.5     15.226     16.092
REMARK SMILES CC1=CCC(Nc2cc(=O)[nH]c(=O)[nH]2)C=C1
REMARK SMILES IDX 6 1 5 3 2 4 3 5 16 6 4 7 15 8 1 9 7 10 8 11 14 12 9 13 12 14
REMARK SMILES IDX 10 15 11 16 13 17
REMARK H PARENT 6 2 14 18 11 19
ROOT
ATOM      1  N   UNL     1      25.071 120.434  65.905  1.00  0.00    -0.365 N 
ATOM      2  H   UNL     1      25.905 120.889  65.537  1.00  0.00     0.162 HD
ENDROOT
BRANCH   1   3
ATOM      3  C   UNL     1      24.462 119.546  64.918  1.00  0.00     0.107 C 
ATOM      4  C   UNL     1      26.503 118.775  62.984  1.00  0.00    -0.055 C 
ATOM      5  C   UNL     1      25.724 119.831  62.692  1.00  0.00    -0.021 C 
ATOM      6  C   UNL     1      26.174 117.915  64.105  1.00  0.00     0.001 C 
ATOM      7  C   UNL     1      24.502 120.184  63.505  1.00  0.00     0.056 C 
ATOM      8  C   UNL     1      25.241 118.262  65.006  1.00  0.00    -0.002 C 
ATOM      9  C   UNL     1      27.708 118.403  62.173  1.00  0.00     0.044 C 
ENDBRANCH   1   3
BRANCH   1  10
ATOM     10  C   UNL     1      24.421 121.168  66.877  1.00  0.00     0.113 C 
ATOM     11  C   UNL     1      25.007 121.419  68.058  1.00  0.00     0.116 C 
ATOM     12  N   UNL     1      23.157 121.649  66.677  1.00  0.00    -0.294 N 
ATOM     13  C   UNL     1      24.303 122.202  69.090  1.00  0.00     0.255 C 
ATOM     14  C   UNL     1      22.437 122.375  67.579  1.00  0.00     0.327 C 
ATOM     15  O   UNL     1      24.826 122.433  70.173  1.00  0.00    -0.269 OA
ATOM     16  N   UNL     1      23.058 122.642  68.760  1.00  0.00    -0.274 N 
ATOM     17  O   UNL     1      21.298 122.761  67.338  1.00  0.00    -0.248 OA
ATOM     18  H   UNL     1      22.673 121.433  65.819  1.00  0.00     0.173 HD
ATOM     19  H   UNL     1      22.546 123.170  69.448  1.00  0.00     0.175 HD
ENDBRANCH   1  10
TORSDOF 2
ENDMDL
