MODEL 1
REMARK VINA RESULT:      -5.7      0.000      0.000
REMARK SMILES COc1ccc(S(=O)(=O)Nc2cccc(F)c2)cc1C
REMARK SMILES IDX 7 1 8 2 9 3 6 4 3 5 4 6 19 7 5 8 18 9 20 10 2 11 1 12 10 13
REMARK SMILES IDX 11 15 12 16 17 17 13 18 15 19 14 20 16 21
REMARK H PARENT 10 14
ROOT
ATOM      1  S   UNL     1      17.183 107.419  70.531  1.00  0.00     0.261 S 
ATOM      2  O   UNL     1      16.088 106.596  70.996  1.00  0.00    -0.201 OA
ATOM      3  O   UNL     1      18.557 106.992  70.692  1.00  0.00    -0.201 OA
ENDROOT
BRANCH   1   4
ATOM      4  C   UNL     1      17.041 109.033  71.252  1.00  0.00     0.088 A 
ATOM      5  C   UNL     1      16.824 111.584  72.377  1.00  0.00     0.121 A 
ATOM      6  C   UNL     1      17.357 110.525  73.123  1.00  0.00     0.048 A 
ATOM      7  C   UNL     1      16.404 111.362  71.050  1.00  0.00    -0.008 A 
ATOM      8  C   UNL     1      17.471 109.250  72.561  1.00  0.00     0.026 A 
ATOM      9  C   UNL     1      16.520 110.081  70.490  1.00  0.00     0.029 A 
ATOM     10  C   UNL     1      15.838 112.486  70.226  1.00  0.00     0.048 C 
BRANCH   5  11
ATOM     11  O   UNL     1      16.670 112.865  72.840  1.00  0.00    -0.496 OA
ATOM     12  C   UNL     1      17.306 113.200  74.066  1.00  0.00     0.278 C 
ENDBRANCH   5  11
ENDBRANCH   1   4
BRANCH   1  13
ATOM     13  N   UNL     1      16.985 107.734  68.879  1.00  0.00    -0.280 N 
ATOM     14  H   UNL     1      17.620 108.473  68.580  1.00  0.00     0.180 HD
BRANCH  13  15
ATOM     15  C   UNL     1      16.809 106.624  68.007  1.00  0.00     0.052 A 
ATOM     16  C   UNL     1      15.539 106.068  67.840  1.00  0.00     0.027 A 
ATOM     17  C   UNL     1      17.893 106.137  67.281  1.00  0.00     0.066 A 
ATOM     18  C   UNL     1      15.354 105.004  66.954  1.00  0.00     0.005 A 
ATOM     19  C   UNL     1      17.696 105.078  66.403  1.00  0.00     0.125 A 
ATOM     20  C   UNL     1      16.438 104.507  66.233  1.00  0.00     0.039 A 
ATOM     21  F   UNL     1      18.734 104.600  65.704  1.00  0.00    -0.207 F 
ENDBRANCH  13  15
ENDBRANCH   1  13
TORSDOF 4
ENDMDL
MODEL 2
REMARK VINA RESULT:      -5.4      3.820      5.002
REMARK SMILES COc1ccc(S(=O)(=O)Nc2cccc(F)c2)cc1C
REMARK SMILES IDX 7 1 8 2 9 3 6 4 3 5 4 6 19 7 5 8 18 9 20 10 2 11 1 12 10 13
REMARK SMILES IDX 11 15 12 16 17 17 13 18 15 19 14 20 16 21
REMARK H PARENT 10 14
ROOT
ATOM      1  S   UNL     1      17.186 107.485  70.624  1.00  0.00     0.261 S 
ATOM      2  O   UNL     1      16.508 107.255  69.367  1.00  0.00    -0.201 OA
ATOM      3  O   UNL     1      16.889 106.679  71.790  1.00  0.00    -0.201 OA
ENDROOT
BRANCH   1   4
ATOM      4  C   UNL     1      16.985 109.184  71.088  1.00  0.00     0.088 A 
ATOM      5  C   UNL     1      16.658 111.861  71.829  1.00  0.00     0.121 A 
ATOM      6  C   UNL     1      16.650 111.495  70.478  1.00  0.00     0.048 A 
ATOM      7  C   UNL     1      16.822 110.871  72.820  1.00  0.00    -0.008 A 
ATOM      8  C   UNL     1      16.809 110.158  70.105  1.00  0.00     0.026 A 
ATOM      9  C   UNL     1      16.981 109.530  72.441  1.00  0.00     0.029 A 
ATOM     10  C   UNL     1      16.822 111.238  74.279  1.00  0.00     0.048 C 
BRANCH   5  11
ATOM     11  O   UNL     1      16.511 113.143  72.293  1.00  0.00    -0.496 OA
ATOM     12  C   UNL     1      15.918 114.092  71.417  1.00  0.00     0.278 C 
ENDBRANCH   5  11
ENDBRANCH   1   4
BRANCH   1  13
ATOM     13  N   UNL     1      18.859 107.362  70.389  1.00  0.00    -0.280 N 
ATOM     14  H   UNL     1      19.098 107.576  69.422  1.00  0.00     0.180 HD
BRANCH  13  15
ATOM     15  C   UNL     1      19.713 107.870  71.407  1.00  0.00     0.052 A 
ATOM     16  C   UNL     1      20.268 109.145  71.272  1.00  0.00     0.027 A 
ATOM     17  C   UNL     1      19.942 107.120  72.557  1.00  0.00     0.066 A 
ATOM     18  C   UNL     1      21.074 109.666  72.287  1.00  0.00     0.005 A 
ATOM     19  C   UNL     1      20.746 107.649  73.559  1.00  0.00     0.125 A 
ATOM     20  C   UNL     1      21.315 108.913  73.435  1.00  0.00     0.039 A 
ATOM     21  F   UNL     1      20.976 106.931  74.667  1.00  0.00    -0.207 F 
ENDBRANCH  13  15
ENDBRANCH   1  13
TORSDOF 4
ENDMDL
MODEL 3
REMARK VINA RESULT:      -5.2     11.992     13.701
REMARK SMILES COc1ccc(S(=O)(=O)Nc2cccc(F)c2)cc1C
REMARK SMILES IDX 7 1 8 2 9 3 6 4 3 5 4 6 19 7 5 8 18 9 20 10 2 11 1 12 10 13
REMARK SMILES IDX 11 15 12 16 17 17 13 18 15 19 14 20 16 21
REMARK H PARENT 10 14
ROOT
ATOM      1  S   UNL     1      25.147 118.719  67.645  1.00  0.00     0.261 S 
ATOM      2  O   UNL     1      26.322 119.524  67.395  1.00  0.00    -0.201 OA
ATOM      3  O   UNL     1      23.904 119.327  68.074  1.00  0.00    -0.201 OA
ENDROOT
BRANCH   1   4
ATOM      4  C   UNL     1      25.551 117.453  68.819  1.00  0.00     0.088 A 
ATOM      5  C   UNL     1      26.175 115.452  70.671  1.00  0.00     0.121 A 
ATOM      6  C   UNL     1      26.495 116.789  70.939  1.00  0.00     0.048 A 
ATOM      7  C   UNL     1      25.525 115.117  69.465  1.00  0.00    -0.008 A 
ATOM      8  C   UNL     1      26.180 117.790  70.017  1.00  0.00     0.026 A 
ATOM      9  C   UNL     1      25.211 116.127  68.543  1.00  0.00     0.029 A 
ATOM     10  C   UNL     1      25.161 113.690  69.160  1.00  0.00     0.048 C 
BRANCH   5  11
ATOM     11  O   UNL     1      26.443 114.401  71.509  1.00  0.00    -0.496 OA
ATOM     12  C   UNL     1      26.011 114.511  72.858  1.00  0.00     0.278 C 
ENDBRANCH   5  11
ENDBRANCH   1   4
BRANCH   1  13
ATOM     13  N   UNL     1      24.772 117.827  66.255  1.00  0.00    -0.280 N 
ATOM     14  H   UNL     1      23.855 117.392  66.349  1.00  0.00     0.180 HD
BRANCH  13  15
ATOM     15  C   UNL     1      25.107 118.390  64.993  1.00  0.00     0.052 A 
ATOM     16  C   UNL     1      24.429 119.524  64.538  1.00  0.00     0.027 A 
ATOM     17  C   UNL     1      26.147 117.845  64.246  1.00  0.00     0.066 A 
ATOM     18  C   UNL     1      24.782 120.105  63.318  1.00  0.00     0.005 A 
ATOM     19  C   UNL     1      26.488 118.432  63.034  1.00  0.00     0.125 A 
ATOM     20  C   UNL     1      25.815 119.555  62.563  1.00  0.00     0.039 A 
ATOM     21  F   UNL     1      27.485 117.910  62.306  1.00  0.00    -0.207 F 
ENDBRANCH  13  15
ENDBRANCH   1  13
TORSDOF 4
ENDMDL
