MODEL 1
REMARK VINA RESULT:      -6.1      0.000      0.000
REMARK SMILES CCCc1cc2c(=O)c(-c3ccc4c(c3)OCCO4)coc2cc1OS(C)(=O)=O
REMARK SMILES IDX 4 1 5 2 6 3 7 4 8 5 9 6 20 7 21 8 22 9 23 10 24 11 3 12 2 13
REMARK SMILES IDX 1 14 25 15 26 16 28 17 29 18 27 19 10 20 11 21 15 22 12 23
REMARK SMILES IDX 14 24 13 25 16 26 19 27 17 28 18 29
REMARK H PARENT
ROOT
ATOM      1  C   UNL     1      26.081 116.991  64.275  1.00  0.00    -0.003 A 
ATOM      2  C   UNL     1      26.911 116.673  63.187  1.00  0.00     0.023 A 
ATOM      3  C   UNL     1      27.630 115.473  63.170  1.00  0.00     0.066 A 
ATOM      4  C   UNL     1      28.504 115.136  62.032  1.00  0.00     0.200 C 
ATOM      5  O   UNL     1      28.601 115.898  61.077  1.00  0.00    -0.288 OA
ATOM      6  C   UNL     1      29.236 113.840  62.112  1.00  0.00     0.065 C 
ATOM      7  C   UNL     1      29.047 113.105  63.221  1.00  0.00     0.208 C 
ATOM      8  O   UNL     1      28.236 113.411  64.286  1.00  0.00    -0.463 OA
ATOM      9  C   UNL     1      27.538 114.589  64.238  1.00  0.00     0.141 A 
ATOM     10  C   UNL     1      26.716 114.888  65.324  1.00  0.00     0.096 A 
ATOM     11  C   UNL     1      25.970 116.070  65.331  1.00  0.00     0.149 A 
ENDROOT
BRANCH   1  12
ATOM     12  C   UNL     1      25.359 118.320  64.280  1.00  0.00     0.039 C 
BRANCH  12  13
ATOM     13  C   UNL     1      25.705 119.211  63.083  1.00  0.00     0.001 C 
ATOM     14  C   UNL     1      24.952 120.534  63.081  1.00  0.00     0.004 C 
ENDBRANCH  12  13
ENDBRANCH   1  12
BRANCH  11  15
ATOM     15  O   UNL     1      25.181 116.403  66.403  1.00  0.00    -0.382 OA
BRANCH  15  16
ATOM     16  S   UNL     1      25.820 116.978  67.798  1.00  0.00     0.306 S 
ATOM     17  O   UNL     1      25.754 115.972  68.840  1.00  0.00    -0.187 OA
ATOM     18  O   UNL     1      27.072 117.635  67.478  1.00  0.00    -0.187 OA
ATOM     19  C   UNL     1      24.624 118.248  68.159  1.00  0.00     0.205 C 
ENDBRANCH  15  16
ENDBRANCH  11  15
BRANCH   6  20
ATOM     20  C   UNL     1      30.155 113.381  61.053  1.00  0.00    -0.007 A 
ATOM     21  C   UNL     1      31.492 113.806  61.036  1.00  0.00     0.013 A 
ATOM     22  C   UNL     1      29.711 112.518  60.038  1.00  0.00     0.059 A 
ATOM     23  C   UNL     1      32.372 113.364  60.042  1.00  0.00     0.051 A 
ATOM     24  C   UNL     1      30.586 112.088  59.039  1.00  0.00     0.161 A 
ATOM     25  C   UNL     1      31.923 112.493  59.056  1.00  0.00     0.161 A 
ATOM     26  O   UNL     1      30.063 111.263  58.076  1.00  0.00    -0.486 OA
ATOM     27  O   UNL     1      32.845 112.083  58.126  1.00  0.00    -0.486 OA
ATOM     28  C   UNL     1      30.930 111.175  56.940  1.00  0.00     0.271 C 
ATOM     29  C   UNL     1      32.369 110.958  57.379  1.00  0.00     0.271 C 
ENDBRANCH   6  20
TORSDOF 5
ENDMDL
MODEL 2
REMARK VINA RESULT:      -5.8      1.390      2.107
REMARK SMILES CCCc1cc2c(=O)c(-c3ccc4c(c3)OCCO4)coc2cc1OS(C)(=O)=O
REMARK SMILES IDX 4 1 5 2 6 3 7 4 8 5 9 6 20 7 21 8 22 9 23 10 24 11 3 12 2 13
REMARK SMILES IDX 1 14 25 15 26 16 28 17 29 18 27 19 10 20 11 21 15 22 12 23
REMARK SMILES IDX 14 24 13 25 16 26 19 27 17 28 18 29
REMARK H PARENT
ROOT
ATOM      1  C   UNL     1      25.613 117.466  65.717  1.00  0.00    -0.003 A 
ATOM      2  C   UNL     1      26.314 117.151  64.540  1.00  0.00     0.023 A 
ATOM      3  C   UNL     1      26.811 115.859  64.335  1.00  0.00     0.066 A 
ATOM      4  C   UNL     1      27.548 115.524  63.103  1.00  0.00     0.200 C 
ATOM      5  O   UNL     1      27.721 116.371  62.233  1.00  0.00    -0.288 OA
ATOM      6  C   UNL     1      28.048 114.125  62.983  1.00  0.00     0.065 C 
ATOM      7  C   UNL     1      27.797 113.301  64.014  1.00  0.00     0.208 C 
ATOM      8  O   UNL     1      27.113 113.605  65.166  1.00  0.00    -0.463 OA
ATOM      9  C   UNL     1      26.628 114.879  65.302  1.00  0.00     0.141 A 
ATOM     10  C   UNL     1      25.933 115.175  66.474  1.00  0.00     0.096 A 
ATOM     11  C   UNL     1      25.405 116.454  66.670  1.00  0.00     0.149 A 
ENDROOT
BRANCH   1  12
ATOM     12  C   UNL     1      25.135 118.886  65.925  1.00  0.00     0.039 C 
BRANCH  12  13
ATOM     13  C   UNL     1      24.001 119.296  64.980  1.00  0.00     0.001 C 
ATOM     14  C   UNL     1      24.474 120.136  63.802  1.00  0.00     0.004 C 
ENDBRANCH  12  13
ENDBRANCH   1  12
BRANCH  11  15
ATOM     15  O   UNL     1      24.748 116.779  67.829  1.00  0.00    -0.382 OA
BRANCH  15  16
ATOM     16  S   UNL     1      25.517 116.818  69.275  1.00  0.00     0.306 S 
ATOM     17  O   UNL     1      25.487 115.513  69.903  1.00  0.00    -0.187 OA
ATOM     18  O   UNL     1      26.770 117.527  69.094  1.00  0.00    -0.187 OA
ATOM     19  C   UNL     1      24.412 117.900  70.160  1.00  0.00     0.205 C 
ENDBRANCH  15  16
ENDBRANCH  11  15
BRANCH   6  20
ATOM     20  C   UNL     1      28.811 113.653  61.812  1.00  0.00    -0.007 A 
ATOM     21  C   UNL     1      28.226 112.776  60.885  1.00  0.00     0.013 A 
ATOM     22  C   UNL     1      30.138 114.062  61.604  1.00  0.00     0.059 A 
ATOM     23  C   UNL     1      28.939 112.336  59.766  1.00  0.00     0.051 A 
ATOM     24  C   UNL     1      30.854 113.611  60.493  1.00  0.00     0.161 A 
ATOM     25  C   UNL     1      30.246 112.767  59.561  1.00  0.00     0.161 A 
ATOM     26  O   UNL     1      32.150 114.046  60.380  1.00  0.00    -0.486 OA
ATOM     27  O   UNL     1      30.878 112.313  58.432  1.00  0.00    -0.486 OA
ATOM     28  C   UNL     1      32.879 113.263  59.428  1.00  0.00     0.271 C 
ATOM     29  C   UNL     1      32.065 113.066  58.160  1.00  0.00     0.271 C 
ENDBRANCH   6  20
TORSDOF 5
ENDMDL
MODEL 3
REMARK VINA RESULT:      -5.6      1.319      1.576
REMARK SMILES CCCc1cc2c(=O)c(-c3ccc4c(c3)OCCO4)coc2cc1OS(C)(=O)=O
REMARK SMILES IDX 4 1 5 2 6 3 7 4 8 5 9 6 20 7 21 8 22 9 23 10 24 11 3 12 2 13
REMARK SMILES IDX 1 14 25 15 26 16 28 17 29 18 27 19 10 20 11 21 15 22 12 23
REMARK SMILES IDX 14 24 13 25 16 26 19 27 17 28 18 29
REMARK H PARENT
ROOT
ATOM      1  C   UNL     1      25.744 117.914  65.167  1.00  0.00    -0.003 A 
ATOM      2  C   UNL     1      26.496 117.531  64.044  1.00  0.00     0.023 A 
ATOM      3  C   UNL     1      26.948 116.213  63.908  1.00  0.00     0.066 A 
ATOM      4  C   UNL     1      27.739 115.807  62.733  1.00  0.00     0.200 C 
ATOM      5  O   UNL     1      28.000 116.617  61.850  1.00  0.00    -0.288 OA
ATOM      6  C   UNL     1      28.184 114.385  62.686  1.00  0.00     0.065 C 
ATOM      7  C   UNL     1      27.838 113.607  63.725  1.00  0.00     0.208 C 
ATOM      8  O   UNL     1      27.103 113.977  64.824  1.00  0.00    -0.463 OA
ATOM      9  C   UNL     1      26.666 115.274  64.893  1.00  0.00     0.141 A 
ATOM     10  C   UNL     1      25.918 115.638  66.012  1.00  0.00     0.096 A 
ATOM     11  C   UNL     1      25.436 116.943  66.137  1.00  0.00     0.149 A 
ENDROOT
BRANCH   1  12
ATOM     12  C   UNL     1      25.316 119.358  65.304  1.00  0.00     0.039 C 
BRANCH  12  13
ATOM     13  C   UNL     1      24.310 119.803  64.238  1.00  0.00     0.001 C 
ATOM     14  C   UNL     1      24.950 120.568  63.087  1.00  0.00     0.004 C 
ENDBRANCH  12  13
ENDBRANCH   1  12
BRANCH  11  15
ATOM     15  O   UNL     1      24.728 117.334  67.245  1.00  0.00    -0.382 OA
BRANCH  15  16
ATOM     16  S   UNL     1      25.476 117.825  68.617  1.00  0.00     0.306 S 
ATOM     17  O   UNL     1      26.903 117.587  68.532  1.00  0.00    -0.187 OA
ATOM     18  O   UNL     1      24.960 119.136  68.960  1.00  0.00    -0.187 OA
ATOM     19  C   UNL     1      24.772 116.655  69.762  1.00  0.00     0.205 C 
ENDBRANCH  15  16
ENDBRANCH  11  15
BRANCH   6  20
ATOM     20  C   UNL     1      28.993 113.843  61.577  1.00  0.00    -0.007 A 
ATOM     21  C   UNL     1      30.392 113.788  61.677  1.00  0.00     0.013 A 
ATOM     22  C   UNL     1      28.384 113.382  60.399  1.00  0.00     0.059 A 
ATOM     23  C   UNL     1      31.164 113.263  60.635  1.00  0.00     0.051 A 
ATOM     24  C   UNL     1      29.156 112.871  59.354  1.00  0.00     0.161 A 
ATOM     25  C   UNL     1      30.545 112.789  59.483  1.00  0.00     0.161 A 
ATOM     26  O   UNL     1      28.480 112.461  58.233  1.00  0.00    -0.486 OA
ATOM     27  O   UNL     1      31.362 112.269  58.512  1.00  0.00    -0.486 OA
ATOM     28  C   UNL     1      29.368 112.294  57.123  1.00  0.00     0.271 C 
ATOM     29  C   UNL     1      30.612 111.527  57.542  1.00  0.00     0.271 C 
ENDBRANCH   6  20
TORSDOF 5
ENDMDL
