MODEL 1
REMARK VINA RESULT:      -5.3      0.000      0.000
REMARK SMILES CCCc1cc(C(=O)Nc2ccc(C)cc2)no1
REMARK SMILES IDX 4 1 5 2 6 3 17 4 18 5 3 6 2 7 1 8 7 9 8 10 9 11 10 13 11 14
REMARK SMILES IDX 16 15 12 16 15 17 13 18 14 19
REMARK H PARENT 9 12
ROOT
ATOM      1  C   UNL     1      17.007 105.337  66.743  1.00  0.00     0.137 A 
ATOM      2  C   UNL     1      17.685 106.230  67.535  1.00  0.00     0.083 A 
ATOM      3  C   UNL     1      16.697 106.762  68.402  1.00  0.00     0.171 A 
ATOM      4  N   UNL     1      15.492 106.218  68.142  1.00  0.00    -0.074 NA
ATOM      5  O   UNL     1      15.696 105.328  67.102  1.00  0.00    -0.361 OA
ENDROOT
BRANCH   1   6
ATOM      6  C   UNL     1      17.401 104.433  65.638  1.00  0.00     0.078 C 
BRANCH   6   7
ATOM      7  C   UNL     1      17.406 105.162  64.295  1.00  0.00     0.005 C 
ATOM      8  C   UNL     1      18.637 106.041  64.142  1.00  0.00     0.004 C 
ENDBRANCH   6   7
ENDBRANCH   1   6
BRANCH   3   9
ATOM      9  C   UNL     1      16.883 107.766  69.457  1.00  0.00     0.277 C 
ATOM     10  O   UNL     1      16.820 107.454  70.641  1.00  0.00    -0.267 OA
ATOM     11  N   UNL     1      17.125 109.030  68.950  1.00  0.00    -0.321 N 
ATOM     12  H   UNL     1      17.139 109.078  67.935  1.00  0.00     0.170 HD
BRANCH  11  13
ATOM     13  C   UNL     1      17.350 110.227  69.653  1.00  0.00     0.041 A 
ATOM     14  C   UNL     1      18.609 110.793  69.847  1.00  0.00     0.026 A 
ATOM     15  C   UNL     1      16.229 110.875  70.182  1.00  0.00     0.026 A 
ATOM     16  C   UNL     1      18.746 111.989  70.561  1.00  0.00     0.005 A 
ATOM     17  C   UNL     1      16.365 112.070  70.896  1.00  0.00     0.005 A 
ATOM     18  C   UNL     1      17.629 112.631  71.103  1.00  0.00    -0.051 A 
ATOM     19  C   UNL     1      17.777 113.928  71.838  1.00  0.00     0.044 C 
ENDBRANCH  11  13
ENDBRANCH   3   9
TORSDOF 4
ENDMDL
MODEL 2
REMARK VINA RESULT:      -5.2      0.201      1.150
REMARK SMILES CCCc1cc(C(=O)Nc2ccc(C)cc2)no1
REMARK SMILES IDX 4 1 5 2 6 3 17 4 18 5 3 6 2 7 1 8 7 9 8 10 9 11 10 13 11 14
REMARK SMILES IDX 16 15 12 16 15 17 13 18 14 19
REMARK H PARENT 9 12
ROOT
ATOM      1  C   UNL     1      17.194 105.407  66.705  1.00  0.00     0.137 A 
ATOM      2  C   UNL     1      17.823 106.234  67.601  1.00  0.00     0.083 A 
ATOM      3  C   UNL     1      16.770 106.823  68.346  1.00  0.00     0.171 A 
ATOM      4  N   UNL     1      15.575 106.373  67.917  1.00  0.00    -0.074 NA
ATOM      5  O   UNL     1      15.850 105.488  66.889  1.00  0.00    -0.361 OA
ENDROOT
BRANCH   1   6
ATOM      6  C   UNL     1      17.665 104.494  65.637  1.00  0.00     0.078 C 
BRANCH   6   7
ATOM      7  C   UNL     1      17.636 105.174  64.269  1.00  0.00     0.005 C 
ATOM      8  C   UNL     1      18.834 106.091  64.076  1.00  0.00     0.004 C 
ENDBRANCH   6   7
ENDBRANCH   1   6
BRANCH   3   9
ATOM      9  C   UNL     1      16.886 107.792  69.442  1.00  0.00     0.277 C 
ATOM     10  O   UNL     1      16.776 107.438  70.610  1.00  0.00    -0.267 OA
ATOM     11  N   UNL     1      17.123 109.078  68.990  1.00  0.00    -0.321 N 
ATOM     12  H   UNL     1      17.181 109.162  67.979  1.00  0.00     0.170 HD
BRANCH  11  13
ATOM     13  C   UNL     1      17.289 110.254  69.744  1.00  0.00     0.041 A 
ATOM     14  C   UNL     1      16.238 110.969  70.316  1.00  0.00     0.026 A 
ATOM     15  C   UNL     1      18.597 110.718  69.920  1.00  0.00     0.026 A 
ATOM     16  C   UNL     1      16.490 112.132  71.053  1.00  0.00     0.005 A 
ATOM     17  C   UNL     1      18.850 111.881  70.655  1.00  0.00     0.005 A 
ATOM     18  C   UNL     1      17.795 112.606  71.217  1.00  0.00    -0.051 A 
ATOM     19  C   UNL     1      18.063 113.834  72.034  1.00  0.00     0.044 C 
ENDBRANCH  11  13
ENDBRANCH   3   9
TORSDOF 4
ENDMDL
MODEL 3
REMARK VINA RESULT:      -5.1      2.237      3.300
REMARK SMILES CCCc1cc(C(=O)Nc2ccc(C)cc2)no1
REMARK SMILES IDX 4 1 5 2 6 3 17 4 18 5 3 6 2 7 1 8 7 9 8 10 9 11 10 13 11 14
REMARK SMILES IDX 16 15 12 16 15 17 13 18 14 19
REMARK H PARENT 9 12
ROOT
ATOM      1  C   UNL     1      17.713 103.740  65.266  1.00  0.00     0.137 A 
ATOM      2  C   UNL     1      16.742 104.146  66.147  1.00  0.00     0.083 A 
ATOM      3  C   UNL     1      17.257 105.335  66.724  1.00  0.00     0.171 A 
ATOM      4  N   UNL     1      18.472 105.623  66.217  1.00  0.00    -0.074 NA
ATOM      5  O   UNL     1      18.750 104.619  65.306  1.00  0.00    -0.361 OA
ENDROOT
BRANCH   1   6
ATOM      6  C   UNL     1      17.847 102.596  64.333  1.00  0.00     0.078 C 
BRANCH   6   7
ATOM      7  C   UNL     1      19.157 101.842  64.559  1.00  0.00     0.005 C 
ATOM      8  C   UNL     1      19.152 101.103  65.888  1.00  0.00     0.004 C 
ENDBRANCH   6   7
ENDBRANCH   1   6
BRANCH   3   9
ATOM      9  C   UNL     1      16.617 106.185  67.736  1.00  0.00     0.277 C 
ATOM     10  O   UNL     1      15.406 106.370  67.727  1.00  0.00    -0.267 OA
ATOM     11  N   UNL     1      17.524 106.709  68.639  1.00  0.00    -0.321 N 
ATOM     12  H   UNL     1      18.488 106.433  68.472  1.00  0.00     0.170 HD
BRANCH  11  13
ATOM     13  C   UNL     1      17.279 107.557  69.733  1.00  0.00     0.041 A 
ATOM     14  C   UNL     1      17.262 107.133  71.061  1.00  0.00     0.026 A 
ATOM     15  C   UNL     1      17.041 108.907  69.453  1.00  0.00     0.026 A 
ATOM     16  C   UNL     1      17.008 108.043  72.094  1.00  0.00     0.005 A 
ATOM     17  C   UNL     1      16.787 109.818  70.484  1.00  0.00     0.005 A 
ATOM     18  C   UNL     1      16.756 109.389  71.814  1.00  0.00    -0.051 A 
ATOM     19  C   UNL     1      16.517 110.367  72.925  1.00  0.00     0.044 C 
ENDBRANCH  11  13
ENDBRANCH   3   9
TORSDOF 4
ENDMDL
