MODEL 1
REMARK VINA RESULT:      -5.5      0.000      0.000
REMARK SMILES Cc1ccccc1-c1nc(-c2cccnc2)no1
REMARK SMILES IDX 1 1 2 2 3 3 4 4 5 5 6 6 7 7 8 8 9 9 18 10 10 11 17 12 11 13
REMARK SMILES IDX 12 14 16 15 13 16 15 17 14 18
REMARK H PARENT
ROOT
ATOM      1  C   UNL     1      16.712 110.150  73.431  1.00  0.00     0.045 C 
ATOM      2  C   UNL     1      16.790 109.563  72.046  1.00  0.00    -0.038 A 
ATOM      3  C   UNL     1      16.820 108.159  71.932  1.00  0.00     0.004 A 
ATOM      4  C   UNL     1      16.912 107.537  70.687  1.00  0.00     0.000 A 
ATOM      5  C   UNL     1      16.976 108.307  69.535  1.00  0.00     0.001 A 
ATOM      6  C   UNL     1      16.935 109.698  69.628  1.00  0.00     0.014 A 
ATOM      7  C   UNL     1      16.829 110.352  70.873  1.00  0.00     0.043 A 
ENDROOT
BRANCH   7   8
ATOM      8  C   UNL     1      16.779 111.814  70.853  1.00  0.00     0.258 A 
ATOM      9  N   UNL     1      17.735 112.685  71.099  1.00  0.00    -0.187 NA
ATOM     10  O   UNL     1      15.612 112.411  70.471  1.00  0.00    -0.334 OA
ATOM     11  C   UNL     1      17.113 113.895  70.884  1.00  0.00     0.204 A 
ATOM     12  N   UNL     1      15.829 113.786  70.504  1.00  0.00    -0.057 NA
BRANCH  11  13
ATOM     13  C   UNL     1      17.803 115.162  71.054  1.00  0.00     0.041 A 
ATOM     14  C   UNL     1      17.274 116.201  71.828  1.00  0.00     0.015 A 
ATOM     15  C   UNL     1      19.032 115.390  70.444  1.00  0.00     0.123 A 
ATOM     16  C   UNL     1      17.978 117.398  71.958  1.00  0.00     0.021 A 
ATOM     17  N   UNL     1      19.739 116.544  70.552  1.00  0.00    -0.264 NA
ATOM     18  C   UNL     1      19.194 117.520  71.307  1.00  0.00     0.111 A 
ENDBRANCH  11  13
ENDBRANCH   7   8
TORSDOF 2
ENDMDL
MODEL 2
REMARK VINA RESULT:      -5.2     14.526     16.410
REMARK SMILES Cc1ccccc1-c1nc(-c2cccnc2)no1
REMARK SMILES IDX 1 1 2 2 3 3 4 4 5 5 6 6 7 7 8 8 9 9 18 10 10 11 17 12 11 13
REMARK SMILES IDX 12 14 16 15 13 16 15 17 14 18
REMARK H PARENT
ROOT
ATOM      1  C   UNL     1      33.281 103.739  68.044  1.00  0.00     0.045 C 
ATOM      2  C   UNL     1      33.302 105.193  68.436  1.00  0.00    -0.038 A 
ATOM      3  C   UNL     1      34.530 105.877  68.341  1.00  0.00     0.004 A 
ATOM      4  C   UNL     1      34.640 107.219  68.704  1.00  0.00     0.000 A 
ATOM      5  C   UNL     1      33.524 107.901  69.167  1.00  0.00     0.001 A 
ATOM      6  C   UNL     1      32.298 107.243  69.257  1.00  0.00     0.014 A 
ATOM      7  C   UNL     1      32.157 105.890  68.884  1.00  0.00     0.043 A 
ENDROOT
BRANCH   7   8
ATOM      8  C   UNL     1      30.821 105.304  69.003  1.00  0.00     0.258 A 
ATOM      9  N   UNL     1      30.294 104.627  70.001  1.00  0.00    -0.187 NA
ATOM     10  O   UNL     1      29.936 105.513  67.986  1.00  0.00    -0.334 OA
ATOM     11  C   UNL     1      29.012 104.378  69.562  1.00  0.00     0.204 A 
ATOM     12  N   UNL     1      28.745 104.890  68.349  1.00  0.00    -0.057 NA
BRANCH  11  13
ATOM     13  C   UNL     1      28.053 103.629  70.355  1.00  0.00     0.041 A 
ATOM     14  C   UNL     1      28.177 103.492  71.742  1.00  0.00     0.015 A 
ATOM     15  C   UNL     1      26.960 103.014  69.754  1.00  0.00     0.123 A 
ATOM     16  C   UNL     1      27.227 102.762  72.456  1.00  0.00     0.021 A 
ATOM     17  N   UNL     1      26.020 102.297  70.422  1.00  0.00    -0.264 NA
ATOM     18  C   UNL     1      26.178 102.189  71.758  1.00  0.00     0.111 A 
ENDBRANCH  11  13
ENDBRANCH   7   8
TORSDOF 2
ENDMDL
MODEL 3
REMARK VINA RESULT:      -5.2     14.631     16.514
REMARK SMILES Cc1ccccc1-c1nc(-c2cccnc2)no1
REMARK SMILES IDX 1 1 2 2 3 3 4 4 5 5 6 6 7 7 8 8 9 9 18 10 10 11 17 12 11 13
REMARK SMILES IDX 12 14 16 15 13 16 15 17 14 18
REMARK H PARENT
ROOT
ATOM      1  C   UNL     1      33.640 104.050  68.117  1.00  0.00     0.045 C 
ATOM      2  C   UNL     1      33.507 105.511  68.458  1.00  0.00    -0.038 A 
ATOM      3  C   UNL     1      34.667 106.308  68.381  1.00  0.00     0.004 A 
ATOM      4  C   UNL     1      34.634 107.665  68.700  1.00  0.00     0.000 A 
ATOM      5  C   UNL     1      33.442 108.250  69.102  1.00  0.00     0.001 A 
ATOM      6  C   UNL     1      32.282 107.479  69.172  1.00  0.00     0.014 A 
ATOM      7  C   UNL     1      32.285 106.107  68.842  1.00  0.00     0.043 A 
ENDROOT
BRANCH   7   8
ATOM      8  C   UNL     1      31.008 105.400  68.937  1.00  0.00     0.258 A 
ATOM      9  N   UNL     1      30.436 104.847  69.986  1.00  0.00    -0.187 NA
ATOM     10  O   UNL     1      30.231 105.325  67.817  1.00  0.00    -0.334 OA
ATOM     11  C   UNL     1      29.245 104.378  69.477  1.00  0.00     0.204 A 
ATOM     12  N   UNL     1      29.072 104.639  68.171  1.00  0.00    -0.057 NA
BRANCH  11  13
ATOM     13  C   UNL     1      28.277 103.671  70.298  1.00  0.00     0.041 A 
ATOM     14  C   UNL     1      27.163 103.026  69.748  1.00  0.00     0.015 A 
ATOM     15  C   UNL     1      28.425 103.610  71.679  1.00  0.00     0.123 A 
ATOM     16  C   UNL     1      26.264 102.362  70.582  1.00  0.00     0.021 A 
ATOM     17  N   UNL     1      27.567 102.972  72.516  1.00  0.00    -0.264 NA
ATOM     18  C   UNL     1      26.506 102.363  71.945  1.00  0.00     0.111 A 
ENDBRANCH  11  13
ENDBRANCH   7   8
TORSDOF 2
ENDMDL
