MODEL 1
REMARK VINA RESULT:      -5.4      0.000      0.000
REMARK SMILES O=C(O)c1cccc(COc2ccccc2Cl)c1
REMARK SMILES IDX 4 1 5 2 6 3 7 4 8 5 18 6 2 7 1 8 3 9 9 11 10 12 11 13 12 14
REMARK SMILES IDX 16 15 13 16 15 17 14 18 17 19
REMARK H PARENT 3 10
ROOT
ATOM      1  C   UNL     1      34.312 106.957  68.383  1.00  0.00     0.060 A 
ATOM      2  C   UNL     1      33.324 107.750  68.975  1.00  0.00     0.016 A 
ATOM      3  C   UNL     1      32.101 107.187  69.338  1.00  0.00     0.001 A 
ATOM      4  C   UNL     1      31.864 105.830  69.117  1.00  0.00     0.007 A 
ATOM      5  C   UNL     1      32.848 105.014  68.541  1.00  0.00    -0.010 A 
ATOM      6  C   UNL     1      34.071 105.594  68.162  1.00  0.00     0.023 A 
ENDROOT
BRANCH   1   7
ATOM      7  C   UNL     1      35.595 107.600  68.007  1.00  0.00     0.335 C 
ATOM      8  O   UNL     1      36.168 108.473  68.631  1.00  0.00    -0.246 OA
BRANCH   7   9
ATOM      9  O   UNL     1      36.103 107.116  66.859  1.00  0.00    -0.478 OA
ATOM     10  H   UNL     1      36.463 107.911  66.413  1.00  0.00     0.297 HD
ENDBRANCH   7   9
ENDBRANCH   1   7
BRANCH   5  11
ATOM     11  C   UNL     1      32.593 103.548  68.268  1.00  0.00     0.265 C 
BRANCH  11  12
ATOM     12  O   UNL     1      31.690 102.957  69.205  1.00  0.00    -0.487 OA
BRANCH  12  13
ATOM     13  C   UNL     1      30.423 102.638  68.792  1.00  0.00     0.138 A 
ATOM     14  C   UNL     1      30.119 101.977  67.596  1.00  0.00     0.048 A 
ATOM     15  C   UNL     1      29.372 102.974  69.660  1.00  0.00     0.083 A 
ATOM     16  C   UNL     1      28.793 101.678  67.267  1.00  0.00     0.004 A 
ATOM     17  C   UNL     1      28.046 102.676  69.330  1.00  0.00     0.024 A 
ATOM     18  C   UNL     1      27.757 102.029  68.130  1.00  0.00     0.002 A 
ATOM     19  Cl  UNL     1      29.668 103.775  71.165  1.00  0.00    -0.080 Cl
ENDBRANCH  12  13
ENDBRANCH  11  12
ENDBRANCH   5  11
TORSDOF 5
ENDMDL
MODEL 2
REMARK VINA RESULT:      -5.3      3.508      7.425
REMARK SMILES O=C(O)c1cccc(COc2ccccc2Cl)c1
REMARK SMILES IDX 4 1 5 2 6 3 7 4 8 5 18 6 2 7 1 8 3 9 9 11 10 12 11 13 12 14
REMARK SMILES IDX 16 15 13 16 15 17 14 18 17 19
REMARK H PARENT 3 10
ROOT
ATOM      1  C   UNL     1      26.931 102.459  72.482  1.00  0.00     0.060 A 
ATOM      2  C   UNL     1      26.034 102.003  71.510  1.00  0.00     0.016 A 
ATOM      3  C   UNL     1      25.911 102.684  70.299  1.00  0.00     0.001 A 
ATOM      4  C   UNL     1      26.687 103.817  70.053  1.00  0.00     0.007 A 
ATOM      5  C   UNL     1      27.604 104.281  71.008  1.00  0.00    -0.010 A 
ATOM      6  C   UNL     1      27.708 103.598  72.231  1.00  0.00     0.023 A 
ENDROOT
BRANCH   1   7
ATOM      7  C   UNL     1      27.023 101.708  73.758  1.00  0.00     0.335 C 
ATOM      8  O   UNL     1      27.434 102.145  74.816  1.00  0.00    -0.246 OA
BRANCH   7   9
ATOM      9  O   UNL     1      26.591 100.439  73.648  1.00  0.00    -0.478 OA
ATOM     10  H   UNL     1      25.618 100.531  73.573  1.00  0.00     0.297 HD
ENDBRANCH   7   9
ENDBRANCH   1   7
BRANCH   5  11
ATOM     11  C   UNL     1      28.429 105.525  70.765  1.00  0.00     0.265 C 
BRANCH  11  12
ATOM     12  O   UNL     1      29.806 105.355  71.110  1.00  0.00    -0.487 OA
BRANCH  12  13
ATOM     13  C   UNL     1      30.640 104.735  70.217  1.00  0.00     0.138 A 
ATOM     14  C   UNL     1      30.712 103.351  70.025  1.00  0.00     0.048 A 
ATOM     15  C   UNL     1      31.447 105.567  69.423  1.00  0.00     0.083 A 
ATOM     16  C   UNL     1      31.585 102.809  69.076  1.00  0.00     0.004 A 
ATOM     17  C   UNL     1      32.319 105.024  68.474  1.00  0.00     0.024 A 
ATOM     18  C   UNL     1      32.390 103.644  68.303  1.00  0.00     0.002 A 
ATOM     19  Cl  UNL     1      31.402 107.289  69.586  1.00  0.00    -0.080 Cl
ENDBRANCH  12  13
ENDBRANCH  11  12
ENDBRANCH   5  11
TORSDOF 5
ENDMDL
MODEL 3
REMARK VINA RESULT:      -5.3     16.573     18.408
REMARK SMILES O=C(O)c1cccc(COc2ccccc2Cl)c1
REMARK SMILES IDX 4 1 5 2 6 3 7 4 8 5 18 6 2 7 1 8 3 9 9 11 10 12 11 13 12 14
REMARK SMILES IDX 16 15 13 16 15 17 14 18 17 19
REMARK H PARENT 3 10
ROOT
ATOM      1  C   UNL     1      23.005 122.432  68.348  1.00  0.00     0.060 A 
ATOM      2  C   UNL     1      23.557 122.894  69.548  1.00  0.00     0.016 A 
ATOM      3  C   UNL     1      24.720 122.313  70.051  1.00  0.00     0.001 A 
ATOM      4  C   UNL     1      25.339 121.274  69.356  1.00  0.00     0.007 A 
ATOM      5  C   UNL     1      24.812 120.807  68.143  1.00  0.00    -0.010 A 
ATOM      6  C   UNL     1      23.630 121.387  67.653  1.00  0.00     0.023 A 
ENDROOT
BRANCH   1   7
ATOM      7  C   UNL     1      21.763 123.074  67.854  1.00  0.00     0.335 C 
ATOM      8  O   UNL     1      20.674 122.542  67.754  1.00  0.00    -0.246 OA
BRANCH   7   9
ATOM      9  O   UNL     1      21.944 124.362  67.509  1.00  0.00    -0.478 OA
ATOM     10  H   UNL     1      22.313 124.769  68.321  1.00  0.00     0.297 HD
ENDBRANCH   7   9
ENDBRANCH   1   7
BRANCH   5  11
ATOM     11  C   UNL     1      25.456 119.662  67.394  1.00  0.00     0.265 C 
BRANCH  11  12
ATOM     12  O   UNL     1      24.596 119.087  66.408  1.00  0.00    -0.487 OA
BRANCH  12  13
ATOM     13  C   UNL     1      24.944 119.190  65.086  1.00  0.00     0.138 A 
ATOM     14  C   UNL     1      24.557 120.236  64.241  1.00  0.00     0.048 A 
ATOM     15  C   UNL     1      25.776 118.182  64.572  1.00  0.00     0.083 A 
ATOM     16  C   UNL     1      24.977 120.262  62.906  1.00  0.00     0.004 A 
ATOM     17  C   UNL     1      26.195 118.210  63.238  1.00  0.00     0.024 A 
ATOM     18  C   UNL     1      25.791 119.250  62.404  1.00  0.00     0.002 A 
ATOM     19  Cl  UNL     1      26.312 116.865  65.558  1.00  0.00    -0.080 Cl
ENDBRANCH  12  13
ENDBRANCH  11  12
ENDBRANCH   5  11
TORSDOF 5
ENDMDL
