MODEL 1
REMARK VINA RESULT:      -6.2      0.000      0.000
REMARK SMILES O=C(COC(=O)c1c(F)cccc1F)NC(=O)NCc1ccccc1
REMARK SMILES IDX 3 1 2 2 1 3 15 4 16 5 17 6 18 7 19 10 20 11 21 12 25 13
REMARK SMILES IDX 22 14 24 15 23 16 4 17 5 18 6 19 7 20 8 21 13 22 10 23 12 24
REMARK SMILES IDX 11 25 9 26 14 27
REMARK H PARENT 15 8 18 9
ROOT
ATOM      1  C   UNL     1      25.223 114.881  65.603  1.00  0.00     0.333 C 
ENDROOT
BRANCH   1   2
ATOM      2  C   UNL     1      25.997 113.616  65.992  1.00  0.00     0.266 C 
ATOM      3  O   UNL     1      25.444 112.689  66.582  1.00  0.00    -0.271 OA
ATOM      4  N   UNL     1      27.357 113.698  65.779  1.00  0.00    -0.275 N 
ATOM      5  C   UNL     1      28.010 112.685  65.123  1.00  0.00     0.321 C 
ATOM      6  O   UNL     1      27.524 111.614  64.782  1.00  0.00    -0.248 OA
ATOM      7  N   UNL     1      29.316 113.031  64.852  1.00  0.00    -0.334 N 
ATOM      8  H   UNL     1      27.695 114.606  65.473  1.00  0.00     0.174 HD
ATOM      9  H   UNL     1      29.748 113.679  65.498  1.00  0.00     0.165 HD
BRANCH   7  10
ATOM     10  C   UNL     1      30.195 112.063  64.239  1.00  0.00     0.153 C 
BRANCH  10  11
ATOM     11  C   UNL     1      30.917 112.664  63.063  1.00  0.00    -0.029 A 
ATOM     12  C   UNL     1      32.264 112.364  62.816  1.00  0.00     0.005 A 
ATOM     13  C   UNL     1      30.249 113.549  62.203  1.00  0.00     0.005 A 
ATOM     14  C   UNL     1      32.925 112.930  61.724  1.00  0.00     0.000 A 
ATOM     15  C   UNL     1      30.910 114.111  61.111  1.00  0.00     0.000 A 
ATOM     16  C   UNL     1      32.248 113.801  60.871  1.00  0.00     0.000 A 
ENDBRANCH  10  11
ENDBRANCH   7  10
ENDBRANCH   1   2
BRANCH   1  17
ATOM     17  O   UNL     1      25.881 115.723  64.653  1.00  0.00    -0.452 OA
BRANCH  17  18
ATOM     18  C   UNL     1      26.411 116.863  65.149  1.00  0.00     0.344 C 
ATOM     19  O   UNL     1      27.270 116.923  66.015  1.00  0.00    -0.246 OA
BRANCH  18  20
ATOM     20  C   UNL     1      25.868 118.014  64.426  1.00  0.00     0.131 A 
ATOM     21  C   UNL     1      24.832 118.775  64.958  1.00  0.00     0.140 A 
ATOM     22  C   UNL     1      26.409 118.366  63.195  1.00  0.00     0.140 A 
ATOM     23  C   UNL     1      24.329 119.877  64.266  1.00  0.00     0.040 A 
ATOM     24  C   UNL     1      25.910 119.460  62.487  1.00  0.00     0.040 A 
ATOM     25  C   UNL     1      24.866 120.217  63.023  1.00  0.00     0.006 A 
ATOM     26  F   UNL     1      24.324 118.494  66.168  1.00  0.00    -0.206 F 
ATOM     27  F   UNL     1      27.405 117.651  62.651  1.00  0.00    -0.206 F 
ENDBRANCH  18  20
ENDBRANCH  17  18
ENDBRANCH   1  17
TORSDOF 6
ENDMDL
MODEL 2
REMARK VINA RESULT:      -6.1     13.753     14.754
REMARK SMILES O=C(COC(=O)c1c(F)cccc1F)NC(=O)NCc1ccccc1
REMARK SMILES IDX 3 1 2 2 1 3 15 4 16 5 17 6 18 7 19 10 20 11 21 12 25 13
REMARK SMILES IDX 22 14 24 15 23 16 4 17 5 18 6 19 7 20 8 21 13 22 10 23 12 24
REMARK SMILES IDX 11 25 9 26 14 27
REMARK H PARENT 15 8 18 9
ROOT
ATOM      1  C   UNL     1      16.789 108.116  69.233  1.00  0.00     0.333 C 
ENDROOT
BRANCH   1   2
ATOM      2  C   UNL     1      16.675 106.775  68.499  1.00  0.00     0.266 C 
ATOM      3  O   UNL     1      15.588 106.214  68.365  1.00  0.00    -0.271 OA
ATOM      4  N   UNL     1      17.887 106.203  68.176  1.00  0.00    -0.275 N 
ATOM      5  C   UNL     1      18.108 105.737  66.903  1.00  0.00     0.321 C 
ATOM      6  O   UNL     1      17.278 105.669  66.006  1.00  0.00    -0.248 OA
ATOM      7  N   UNL     1      19.425 105.371  66.731  1.00  0.00    -0.334 N 
ATOM      8  H   UNL     1      18.706 106.688  68.532  1.00  0.00     0.174 HD
ATOM      9  H   UNL     1      19.909 105.051  67.559  1.00  0.00     0.165 HD
BRANCH   7  10
ATOM     10  C   UNL     1      19.839 104.776  65.482  1.00  0.00     0.153 C 
BRANCH  10  11
ATOM     11  C   UNL     1      20.118 103.308  65.654  1.00  0.00    -0.029 A 
ATOM     12  C   UNL     1      19.090 102.414  65.984  1.00  0.00     0.005 A 
ATOM     13  C   UNL     1      21.423 102.815  65.499  1.00  0.00     0.005 A 
ATOM     14  C   UNL     1      19.361 101.054  66.144  1.00  0.00     0.000 A 
ATOM     15  C   UNL     1      21.691 101.455  65.657  1.00  0.00     0.000 A 
ATOM     16  C   UNL     1      20.659 100.575  65.980  1.00  0.00     0.000 A 
ENDBRANCH  10  11
ENDBRANCH   7  10
ENDBRANCH   1   2
BRANCH   1  17
ATOM     17  O   UNL     1      17.792 108.163  70.251  1.00  0.00    -0.452 OA
BRANCH  17  18
ATOM     18  C   UNL     1      17.436 107.646  71.448  1.00  0.00     0.344 C 
ATOM     19  O   UNL     1      16.405 107.031  71.672  1.00  0.00    -0.246 OA
BRANCH  18  20
ATOM     20  C   UNL     1      18.514 107.854  72.415  1.00  0.00     0.131 A 
ATOM     21  C   UNL     1      19.727 107.183  72.297  1.00  0.00     0.140 A 
ATOM     22  C   UNL     1      18.331 108.752  73.461  1.00  0.00     0.140 A 
ATOM     23  C   UNL     1      20.752 107.398  73.219  1.00  0.00     0.040 A 
ATOM     24  C   UNL     1      19.344 108.969  74.395  1.00  0.00     0.040 A 
ATOM     25  C   UNL     1      20.558 108.289  74.275  1.00  0.00     0.006 A 
ATOM     26  F   UNL     1      19.955 106.351  71.270  1.00  0.00    -0.206 F 
ATOM     27  F   UNL     1      17.173 109.411  73.607  1.00  0.00    -0.206 F 
ENDBRANCH  18  20
ENDBRANCH  17  18
ENDBRANCH   1  17
TORSDOF 6
ENDMDL
MODEL 3
REMARK VINA RESULT:      -6.0      3.977      5.571
REMARK SMILES O=C(COC(=O)c1c(F)cccc1F)NC(=O)NCc1ccccc1
REMARK SMILES IDX 3 1 2 2 1 3 15 4 16 5 17 6 18 7 19 10 20 11 21 12 25 13
REMARK SMILES IDX 22 14 24 15 23 16 4 17 5 18 6 19 7 20 8 21 13 22 10 23 12 24
REMARK SMILES IDX 11 25 9 26 14 27
REMARK H PARENT 15 8 18 9
ROOT
ATOM      1  C   UNL     1      24.940 114.578  65.478  1.00  0.00     0.333 C 
ENDROOT
BRANCH   1   2
ATOM      2  C   UNL     1      25.905 113.445  65.110  1.00  0.00     0.266 C 
ATOM      3  O   UNL     1      26.811 113.110  65.872  1.00  0.00    -0.271 OA
ATOM      4  N   UNL     1      25.767 112.983  63.819  1.00  0.00    -0.275 N 
ATOM      5  C   UNL     1      25.680 111.633  63.579  1.00  0.00     0.321 C 
ATOM      6  O   UNL     1      25.826 110.743  64.407  1.00  0.00    -0.248 OA
ATOM      7  N   UNL     1      25.368 111.383  62.261  1.00  0.00    -0.334 N 
ATOM      8  H   UNL     1      25.108 113.497  63.241  1.00  0.00     0.174 HD
ATOM      9  H   UNL     1      25.680 112.073  61.591  1.00  0.00     0.165 HD
BRANCH   7  10
ATOM     10  C   UNL     1      25.313 110.019  61.790  1.00  0.00     0.153 C 
BRANCH  10  11
ATOM     11  C   UNL     1      23.888 109.564  61.630  1.00  0.00    -0.029 A 
ATOM     12  C   UNL     1      23.299 109.478  60.361  1.00  0.00     0.005 A 
ATOM     13  C   UNL     1      23.123 109.232  62.759  1.00  0.00     0.005 A 
ATOM     14  C   UNL     1      21.974 109.057  60.225  1.00  0.00     0.000 A 
ATOM     15  C   UNL     1      21.800 108.809  62.620  1.00  0.00     0.000 A 
ATOM     16  C   UNL     1      21.227 108.722  61.352  1.00  0.00     0.000 A 
ENDBRANCH  10  11
ENDBRANCH   7  10
ENDBRANCH   1   2
BRANCH   1  17
ATOM     17  O   UNL     1      25.058 115.755  64.676  1.00  0.00    -0.452 OA
BRANCH  17  18
ATOM     18  C   UNL     1      25.777 116.764  65.217  1.00  0.00     0.344 C 
ATOM     19  O   UNL     1      26.551 116.653  66.156  1.00  0.00    -0.246 OA
BRANCH  18  20
ATOM     20  C   UNL     1      25.559 117.991  64.451  1.00  0.00     0.131 A 
ATOM     21  C   UNL     1      26.233 118.224  63.257  1.00  0.00     0.140 A 
ATOM     22  C   UNL     1      24.648 118.934  64.915  1.00  0.00     0.140 A 
ATOM     23  C   UNL     1      26.009 119.394  62.530  1.00  0.00     0.040 A 
ATOM     24  C   UNL     1      24.421 120.112  64.203  1.00  0.00     0.040 A 
ATOM     25  C   UNL     1      25.105 120.344  63.007  1.00  0.00     0.006 A 
ATOM     26  F   UNL     1      27.078 117.311  62.756  1.00  0.00    -0.206 F 
ATOM     27  F   UNL     1      23.986 118.743  66.065  1.00  0.00    -0.206 F 
ENDBRANCH  18  20
ENDBRANCH  17  18
ENDBRANCH   1  17
TORSDOF 6
ENDMDL
