MODEL 1
REMARK VINA RESULT:      -4.6      0.000      0.000
REMARK SMILES COCC(=O)Nc1nc2ccc(C)cc2s1
REMARK SMILES IDX 4 1 5 2 6 3 3 5 2 6 1 7 7 8 8 9 16 10 9 11 15 12 10 13 14 14
REMARK SMILES IDX 11 15 12 16 13 17
REMARK H PARENT 6 4
ROOT
ATOM      1  C   UNL     1      16.327 106.613  68.263  1.00  0.00     0.252 C 
ATOM      2  O   UNL     1      15.449 106.183  69.002  1.00  0.00    -0.272 OA
ATOM      3  N   UNL     1      17.191 107.659  68.502  1.00  0.00    -0.300 N 
ATOM      4  H   UNL     1      17.852 107.911  67.778  1.00  0.00     0.172 HD
ENDROOT
BRANCH   1   5
ATOM      5  C   UNL     1      16.608 105.958  66.907  1.00  0.00     0.259 C 
BRANCH   5   6
ATOM      6  O   UNL     1      17.993 105.968  66.555  1.00  0.00    -0.375 OA
ATOM      7  C   UNL     1      18.565 104.665  66.617  1.00  0.00     0.195 C 
ENDBRANCH   5   6
ENDBRANCH   1   5
BRANCH   3   8
ATOM      8  C   UNL     1      17.163 108.410  69.639  1.00  0.00     0.190 A 
ATOM      9  N   UNL     1      16.774 109.645  69.805  1.00  0.00    -0.220 NA
ATOM     10  S   UNL     1      17.724 107.588  71.022  1.00  0.00    -0.097 S 
ATOM     11  C   UNL     1      16.919 109.999  71.134  1.00  0.00     0.084 A 
ATOM     12  C   UNL     1      17.428 108.999  71.967  1.00  0.00     0.057 A 
ATOM     13  C   UNL     1      16.606 111.251  71.697  1.00  0.00     0.030 A 
ATOM     14  C   UNL     1      17.632 109.208  73.342  1.00  0.00     0.024 A 
ATOM     15  C   UNL     1      16.806 111.471  73.064  1.00  0.00     0.006 A 
ATOM     16  C   UNL     1      17.301 110.458  73.889  1.00  0.00    -0.050 A 
ATOM     17  C   UNL     1      17.538 110.723  75.349  1.00  0.00     0.044 C 
ENDBRANCH   3   8
TORSDOF 3
ENDMDL
MODEL 2
REMARK VINA RESULT:      -4.5      2.708      3.467
REMARK SMILES COCC(=O)Nc1nc2ccc(C)cc2s1
REMARK SMILES IDX 4 1 5 2 6 3 3 5 2 6 1 7 7 8 8 9 16 10 9 11 15 12 10 13 14 14
REMARK SMILES IDX 11 15 12 16 13 17
REMARK H PARENT 6 4
ROOT
ATOM      1  C   UNL     1      16.757 108.256  70.098  1.00  0.00     0.252 C 
ATOM      2  O   UNL     1      16.855 108.149  71.315  1.00  0.00    -0.272 OA
ATOM      3  N   UNL     1      16.828 109.407  69.345  1.00  0.00    -0.300 N 
ATOM      4  H   UNL     1      16.705 109.334  68.343  1.00  0.00     0.172 HD
ENDROOT
BRANCH   1   5
ATOM      5  C   UNL     1      16.570 107.021  69.210  1.00  0.00     0.259 C 
BRANCH   5   6
ATOM      6  O   UNL     1      17.417 107.024  68.060  1.00  0.00    -0.375 OA
ATOM      7  C   UNL     1      16.904 106.193  67.022  1.00  0.00     0.195 C 
ENDBRANCH   5   6
ENDBRANCH   1   5
BRANCH   3   8
ATOM      8  C   UNL     1      16.999 110.646  69.886  1.00  0.00     0.190 A 
ATOM      9  N   UNL     1      16.102 111.524  70.242  1.00  0.00    -0.220 NA
ATOM     10  S   UNL     1      18.632 111.080  70.112  1.00  0.00    -0.097 S 
ATOM     11  C   UNL     1      16.731 112.648  70.746  1.00  0.00     0.084 A 
ATOM     12  C   UNL     1      18.127 112.596  70.759  1.00  0.00     0.057 A 
ATOM     13  C   UNL     1      16.094 113.808  71.228  1.00  0.00     0.030 A 
ATOM     14  C   UNL     1      18.907 113.662  71.241  1.00  0.00     0.024 A 
ATOM     15  C   UNL     1      16.861 114.875  71.710  1.00  0.00     0.006 A 
ATOM     16  C   UNL     1      18.256 114.804  71.732  1.00  0.00    -0.050 A 
ATOM     17  C   UNL     1      19.062 115.973  72.223  1.00  0.00     0.044 C 
ENDBRANCH   3   8
TORSDOF 3
ENDMDL
MODEL 3
REMARK VINA RESULT:      -4.5      2.792      3.496
REMARK SMILES COCC(=O)Nc1nc2ccc(C)cc2s1
REMARK SMILES IDX 4 1 5 2 6 3 3 5 2 6 1 7 7 8 8 9 16 10 9 11 15 12 10 13 14 14
REMARK SMILES IDX 11 15 12 16 13 17
REMARK H PARENT 6 4
ROOT
ATOM      1  C   UNL     1      16.940 108.145  69.853  1.00  0.00     0.252 C 
ATOM      2  O   UNL     1      17.065 107.959  71.058  1.00  0.00    -0.272 OA
ATOM      3  N   UNL     1      17.179 109.306  69.150  1.00  0.00    -0.300 N 
ATOM      4  H   UNL     1      17.007 109.308  68.153  1.00  0.00     0.172 HD
ENDROOT
BRANCH   1   5
ATOM      5  C   UNL     1      16.509 107.009  68.920  1.00  0.00     0.259 C 
BRANCH   5   6
ATOM      6  O   UNL     1      16.838 107.252  67.551  1.00  0.00    -0.375 OA
ATOM      7  C   UNL     1      16.975 106.039  66.816  1.00  0.00     0.195 C 
ENDBRANCH   5   6
ENDBRANCH   1   5
BRANCH   3   8
ATOM      8  C   UNL     1      17.582 110.468  69.738  1.00  0.00     0.190 A 
ATOM      9  N   UNL     1      18.791 110.925  69.923  1.00  0.00    -0.220 NA
ATOM     10  S   UNL     1      16.298 111.436  70.303  1.00  0.00    -0.097 S 
ATOM     11  C   UNL     1      18.727 112.149  70.564  1.00  0.00     0.084 A 
ATOM     12  C   UNL     1      17.438 112.603  70.858  1.00  0.00     0.057 A 
ATOM     13  C   UNL     1      19.825 112.948  70.935  1.00  0.00     0.030 A 
ATOM     14  C   UNL     1      17.212 113.830  71.507  1.00  0.00     0.024 A 
ATOM     15  C   UNL     1      19.611 114.170  71.582  1.00  0.00     0.006 A 
ATOM     16  C   UNL     1      18.318 114.621  71.856  1.00  0.00    -0.050 A 
ATOM     17  C   UNL     1      18.110 115.921  72.580  1.00  0.00     0.044 C 
ENDBRANCH   3   8
TORSDOF 3
ENDMDL
