MODEL 1
REMARK VINA RESULT:      -5.6      0.000      0.000
REMARK SMILES CCNC(=O)NC(=O)CSc1cccc(C(F)(F)F)c1
REMARK SMILES IDX 9 1 7 2 3 3 4 4 5 5 6 6 8 7 2 10 1 11 10 12 11 13 12 14
REMARK SMILES IDX 20 15 13 16 15 17 14 18 16 19 17 20 18 21 19 22
REMARK H PARENT 3 8 6 9
ROOT
ATOM      1  C   UNL     1      16.838 114.310  71.516  1.00  0.00     0.175 C 
ENDROOT
BRANCH   1   2
ATOM      2  C   UNL     1      18.028 114.822  70.718  1.00  0.00     0.238 C 
ATOM      3  N   UNL     1      18.245 118.342  70.797  1.00  0.00    -0.338 N 
ATOM      4  C   UNL     1      18.477 117.051  71.229  1.00  0.00     0.321 C 
ATOM      5  O   UNL     1      19.026 116.775  72.286  1.00  0.00    -0.248 OA
ATOM      6  N   UNL     1      17.965 116.142  70.339  1.00  0.00    -0.277 N 
ATOM      7  O   UNL     1      18.994 114.104  70.462  1.00  0.00    -0.274 OA
ATOM      8  H   UNL     1      18.293 118.437  69.791  1.00  0.00     0.165 HD
ATOM      9  H   UNL     1      17.021 116.433  70.124  1.00  0.00     0.174 HD
BRANCH   3  10
ATOM     10  C   UNL     1      18.782 119.451  71.561  1.00  0.00     0.114 C 
ATOM     11  C   UNL     1      18.237 120.776  71.066  1.00  0.00     0.027 C 
ENDBRANCH   3  10
ENDBRANCH   1   2
BRANCH   1  12
ATOM     12  S   UNL     1      15.866 113.102  70.544  1.00  0.00    -0.116 SA
BRANCH  12  13
ATOM     13  C   UNL     1      16.459 111.581  71.260  1.00  0.00     0.008 A 
ATOM     14  C   UNL     1      16.808 111.491  72.610  1.00  0.00     0.015 A 
ATOM     15  C   UNL     1      16.535 110.439  70.455  1.00  0.00     0.028 A 
ATOM     16  C   UNL     1      17.251 110.279  73.146  1.00  0.00     0.002 A 
ATOM     17  C   UNL     1      16.985 109.216  70.981  1.00  0.00     0.057 A 
ATOM     18  C   UNL     1      17.339 109.147  72.336  1.00  0.00     0.013 A 
BRANCH  17  19
ATOM     19  C   UNL     1      17.042 107.986  70.107  1.00  0.00     0.416 C 
ATOM     20  F   UNL     1      16.765 108.246  68.799  1.00  0.00    -0.166 F 
ATOM     21  F   UNL     1      18.271 107.401  70.121  1.00  0.00    -0.166 F 
ATOM     22  F   UNL     1      16.161 107.020  70.489  1.00  0.00    -0.166 F 
ENDBRANCH  17  19
ENDBRANCH  12  13
ENDBRANCH   1  12
TORSDOF 5
ENDMDL
MODEL 2
REMARK VINA RESULT:      -5.4     15.418     17.427
REMARK SMILES CCNC(=O)NC(=O)CSc1cccc(C(F)(F)F)c1
REMARK SMILES IDX 9 1 7 2 3 3 4 4 5 5 6 6 8 7 2 10 1 11 10 12 11 13 12 14
REMARK SMILES IDX 20 15 13 16 15 17 14 18 16 19 17 20 18 21 19 22
REMARK H PARENT 3 8 6 9
ROOT
ATOM      1  C   UNL     1      30.759 102.836  67.397  1.00  0.00     0.175 C 
ENDROOT
BRANCH   1   2
ATOM      2  C   UNL     1      29.726 101.750  67.656  1.00  0.00     0.238 C 
ATOM      3  N   UNL     1      27.937 102.321  70.641  1.00  0.00    -0.338 N 
ATOM      4  C   UNL     1      28.205 102.417  69.290  1.00  0.00     0.321 C 
ATOM      5  O   UNL     1      27.580 103.133  68.521  1.00  0.00    -0.248 OA
ATOM      6  N   UNL     1      29.287 101.644  68.954  1.00  0.00    -0.277 N 
ATOM      7  O   UNL     1      29.293 101.039  66.750  1.00  0.00    -0.274 OA
ATOM      8  H   UNL     1      28.121 101.400  71.017  1.00  0.00     0.165 HD
ATOM      9  H   UNL     1      30.019 101.847  69.623  1.00  0.00     0.174 HD
BRANCH   3  10
ATOM     10  C   UNL     1      26.777 103.002  71.183  1.00  0.00     0.114 C 
ATOM     11  C   UNL     1      25.565 102.093  71.203  1.00  0.00     0.027 C 
ENDBRANCH   3  10
ENDBRANCH   1   2
BRANCH   1  12
ATOM     12  S   UNL     1      31.855 103.059  68.846  1.00  0.00    -0.116 SA
BRANCH  12  13
ATOM     13  C   UNL     1      31.810 104.834  68.998  1.00  0.00     0.008 A 
ATOM     14  C   UNL     1      30.689 105.501  69.499  1.00  0.00     0.015 A 
ATOM     15  C   UNL     1      32.945 105.571  68.644  1.00  0.00     0.028 A 
ATOM     16  C   UNL     1      30.693 106.892  69.623  1.00  0.00     0.002 A 
ATOM     17  C   UNL     1      32.958 106.972  68.758  1.00  0.00     0.057 A 
ATOM     18  C   UNL     1      31.821 107.625  69.256  1.00  0.00     0.013 A 
BRANCH  17  19
ATOM     19  C   UNL     1      34.197 107.755  68.394  1.00  0.00     0.416 C 
ATOM     20  F   UNL     1      34.450 107.763  67.055  1.00  0.00    -0.166 F 
ATOM     21  F   UNL     1      34.109 109.061  68.767  1.00  0.00    -0.166 F 
ATOM     22  F   UNL     1      35.326 107.271  68.983  1.00  0.00    -0.166 F 
ENDBRANCH  17  19
ENDBRANCH  12  13
ENDBRANCH   1  12
TORSDOF 5
ENDMDL
MODEL 3
REMARK VINA RESULT:      -5.4     11.289     12.310
REMARK SMILES CCNC(=O)NC(=O)CSc1cccc(C(F)(F)F)c1
REMARK SMILES IDX 9 1 7 2 3 3 4 4 5 5 6 6 8 7 2 10 1 11 10 12 11 13 12 14
REMARK SMILES IDX 20 15 13 16 15 17 14 18 16 19 17 20 18 21 19 22
REMARK H PARENT 3 8 6 9
ROOT
ATOM      1  C   UNL     1      25.889 119.714  68.511  1.00  0.00     0.175 C 
ENDROOT
BRANCH   1   2
ATOM      2  C   UNL     1      26.123 121.168  68.132  1.00  0.00     0.238 C 
ATOM      3  N   UNL     1      23.120 122.793  67.247  1.00  0.00    -0.338 N 
ATOM      4  C   UNL     1      24.116 122.353  68.096  1.00  0.00     0.321 C 
ATOM      5  O   UNL     1      24.067 122.451  69.313  1.00  0.00    -0.248 OA
ATOM      6  N   UNL     1      25.127 121.755  67.388  1.00  0.00    -0.277 N 
ATOM      7  O   UNL     1      27.124 121.781  68.500  1.00  0.00    -0.274 OA
ATOM      8  H   UNL     1      23.474 123.129  66.361  1.00  0.00     0.165 HD
ATOM      9  H   UNL     1      24.697 121.104  66.744  1.00  0.00     0.174 HD
BRANCH   3  10
ATOM     10  C   UNL     1      21.996 123.528  67.796  1.00  0.00     0.114 C 
ATOM     11  C   UNL     1      20.719 122.716  67.723  1.00  0.00     0.027 C 
ENDBRANCH   3  10
ENDBRANCH   1   2
BRANCH   1  12
ATOM     12  S   UNL     1      24.366 119.068  67.730  1.00  0.00    -0.116 SA
BRANCH  12  13
ATOM     13  C   UNL     1      25.061 118.321  66.269  1.00  0.00     0.008 A 
ATOM     14  C   UNL     1      25.361 116.958  66.210  1.00  0.00     0.015 A 
ATOM     15  C   UNL     1      25.272 119.118  65.138  1.00  0.00     0.028 A 
ATOM     16  C   UNL     1      25.887 116.399  65.043  1.00  0.00     0.002 A 
ATOM     17  C   UNL     1      25.807 118.569  63.959  1.00  0.00     0.057 A 
ATOM     18  C   UNL     1      26.109 117.200  63.923  1.00  0.00     0.013 A 
BRANCH  17  19
ATOM     19  C   UNL     1      26.008 119.434  62.739  1.00  0.00     0.416 C 
ATOM     20  F   UNL     1      25.243 119.052  61.679  1.00  0.00    -0.166 F 
ATOM     21  F   UNL     1      25.696 120.738  62.975  1.00  0.00    -0.166 F 
ATOM     22  F   UNL     1      27.294 119.431  62.289  1.00  0.00    -0.166 F 
ENDBRANCH  17  19
ENDBRANCH  12  13
ENDBRANCH   1  12
TORSDOF 5
ENDMDL
