MODEL 1
REMARK VINA RESULT:      -6.0      0.000      0.000
REMARK SMILES CCn1c(=O)c(C(=O)Nc2cccnc2)c(O)c2ccccc21
REMARK SMILES IDX 3 1 4 2 5 3 6 4 16 5 18 6 19 7 20 8 21 9 22 10 23 11 2 12
REMARK SMILES IDX 1 13 7 14 8 15 9 16 10 18 11 19 15 20 12 21 14 22 13 23
REMARK SMILES IDX 17 24
REMARK H PARENT 9 17 17 25
ROOT
ATOM      1  N   UNL     1      25.423 117.435  66.210  1.00  0.00    -0.308 N 
ATOM      2  C   UNL     1      25.974 116.150  66.169  1.00  0.00     0.267 C 
ATOM      3  O   UNL     1      26.031 115.430  67.165  1.00  0.00    -0.268 OA
ATOM      4  C   UNL     1      26.527 115.674  64.874  1.00  0.00     0.147 C 
ATOM      5  C   UNL     1      26.545 116.483  63.801  1.00  0.00     0.143 C 
ATOM      6  C   UNL     1      26.031 117.860  63.879  1.00  0.00     0.041 A 
ATOM      7  C   UNL     1      26.127 118.743  62.787  1.00  0.00     0.014 A 
ATOM      8  C   UNL     1      25.591 120.027  62.852  1.00  0.00     0.001 A 
ATOM      9  C   UNL     1      24.953 120.446  64.011  1.00  0.00     0.002 A 
ATOM     10  C   UNL     1      24.876 119.591  65.114  1.00  0.00     0.027 A 
ATOM     11  C   UNL     1      25.429 118.300  65.073  1.00  0.00     0.055 A 
ENDROOT
BRANCH   1  12
ATOM     12  C   UNL     1      24.841 117.867  67.483  1.00  0.00     0.122 C 
ATOM     13  C   UNL     1      25.869 118.548  68.376  1.00  0.00     0.028 C 
ENDBRANCH   1  12
BRANCH   4  14
ATOM     14  C   UNL     1      26.974 114.253  64.747  1.00  0.00     0.265 C 
ATOM     15  O   UNL     1      26.252 113.428  64.200  1.00  0.00    -0.269 OA
ATOM     16  N   UNL     1      28.231 114.019  65.272  1.00  0.00    -0.320 N 
ATOM     17  H   UNL     1      28.752 114.840  65.562  1.00  0.00     0.170 HD
BRANCH  16  18
ATOM     18  C   UNL     1      28.912 112.787  65.345  1.00  0.00     0.059 A 
ATOM     19  C   UNL     1      28.883 111.932  66.444  1.00  0.00     0.029 A 
ATOM     20  C   UNL     1      29.683 112.384  64.254  1.00  0.00     0.137 A 
ATOM     21  C   UNL     1      29.601 110.736  66.410  1.00  0.00     0.022 A 
ATOM     22  N   UNL     1      30.392 111.230  64.189  1.00  0.00    -0.263 NA
ATOM     23  C   UNL     1      30.331 110.431  65.274  1.00  0.00     0.111 A 
ENDBRANCH  16  18
ENDBRANCH   4  14
BRANCH   5  24
ATOM     24  O   UNL     1      27.007 116.049  62.570  1.00  0.00    -0.506 OA
ATOM     25  H   UNL     1      27.751 116.625  62.314  1.00  0.00     0.293 HD
ENDBRANCH   5  24
TORSDOF 4
ENDMDL
MODEL 2
REMARK VINA RESULT:      -5.8      0.611      1.004
REMARK SMILES CCn1c(=O)c(C(=O)Nc2cccnc2)c(O)c2ccccc21
REMARK SMILES IDX 3 1 4 2 5 3 6 4 16 5 18 6 19 7 20 8 21 9 22 10 23 11 2 12
REMARK SMILES IDX 1 13 7 14 8 15 9 16 10 18 11 19 15 20 12 21 14 22 13 23
REMARK SMILES IDX 17 24
REMARK H PARENT 9 17 17 25
ROOT
ATOM      1  N   UNL     1      25.399 117.434  66.214  1.00  0.00    -0.308 N 
ATOM      2  C   UNL     1      25.947 116.149  66.160  1.00  0.00     0.267 C 
ATOM      3  O   UNL     1      26.007 115.420  67.149  1.00  0.00    -0.268 OA
ATOM      4  C   UNL     1      26.496 115.683  64.858  1.00  0.00     0.147 C 
ATOM      5  C   UNL     1      26.511 116.502  63.793  1.00  0.00     0.143 C 
ATOM      6  C   UNL     1      25.999 117.879  63.884  1.00  0.00     0.041 A 
ATOM      7  C   UNL     1      26.094 118.771  62.800  1.00  0.00     0.014 A 
ATOM      8  C   UNL     1      25.559 120.056  62.878  1.00  0.00     0.001 A 
ATOM      9  C   UNL     1      24.927 120.465  64.043  1.00  0.00     0.002 A 
ATOM     10  C   UNL     1      24.851 119.601  65.138  1.00  0.00     0.027 A 
ATOM     11  C   UNL     1      25.403 118.309  65.084  1.00  0.00     0.055 A 
ENDROOT
BRANCH   1  12
ATOM     12  C   UNL     1      24.822 117.856  67.493  1.00  0.00     0.122 C 
ATOM     13  C   UNL     1      25.849 118.546  68.379  1.00  0.00     0.028 C 
ENDBRANCH   1  12
BRANCH   4  14
ATOM     14  C   UNL     1      26.939 114.263  64.718  1.00  0.00     0.265 C 
ATOM     15  O   UNL     1      26.214 113.443  64.166  1.00  0.00    -0.269 OA
ATOM     16  N   UNL     1      28.198 114.022  65.236  1.00  0.00    -0.320 N 
ATOM     17  H   UNL     1      28.721 114.839  65.531  1.00  0.00     0.170 HD
BRANCH  16  18
ATOM     18  C   UNL     1      28.877 112.788  65.295  1.00  0.00     0.059 A 
ATOM     19  C   UNL     1      29.732 112.310  64.306  1.00  0.00     0.029 A 
ATOM     20  C   UNL     1      28.683 111.970  66.409  1.00  0.00     0.137 A 
ATOM     21  C   UNL     1      30.350 111.068  64.464  1.00  0.00     0.022 A 
ATOM     22  N   UNL     1      29.266 110.761  66.594  1.00  0.00    -0.263 NA
ATOM     23  C   UNL     1      30.090 110.339  65.612  1.00  0.00     0.111 A 
ENDBRANCH  16  18
ENDBRANCH   4  14
BRANCH   5  24
ATOM     24  O   UNL     1      26.968 116.077  62.556  1.00  0.00    -0.506 OA
ATOM     25  H   UNL     1      26.369 115.373  62.246  1.00  0.00     0.293 HD
ENDBRANCH   5  24
TORSDOF 4
ENDMDL
MODEL 3
REMARK VINA RESULT:      -5.8      2.070      2.343
REMARK SMILES CCn1c(=O)c(C(=O)Nc2cccnc2)c(O)c2ccccc21
REMARK SMILES IDX 3 1 4 2 5 3 6 4 16 5 18 6 19 7 20 8 21 9 22 10 23 11 2 12
REMARK SMILES IDX 1 13 7 14 8 15 9 16 10 18 11 19 15 20 12 21 14 22 13 23
REMARK SMILES IDX 17 24
REMARK H PARENT 9 17 17 25
ROOT
ATOM      1  N   UNL     1      25.332 117.563  66.178  1.00  0.00    -0.308 N 
ATOM      2  C   UNL     1      25.844 116.264  66.108  1.00  0.00     0.267 C 
ATOM      3  O   UNL     1      25.885 115.522  67.088  1.00  0.00    -0.268 OA
ATOM      4  C   UNL     1      26.379 115.799  64.800  1.00  0.00     0.147 C 
ATOM      5  C   UNL     1      26.416 116.630  63.745  1.00  0.00     0.143 C 
ATOM      6  C   UNL     1      25.943 118.019  63.853  1.00  0.00     0.041 A 
ATOM      7  C   UNL     1      26.061 118.922  62.779  1.00  0.00     0.014 A 
ATOM      8  C   UNL     1      25.563 120.219  62.874  1.00  0.00     0.001 A 
ATOM      9  C   UNL     1      24.943 120.632  64.044  1.00  0.00     0.002 A 
ATOM     10  C   UNL     1      24.844 119.757  65.129  1.00  0.00     0.027 A 
ATOM     11  C   UNL     1      25.359 118.451  65.059  1.00  0.00     0.055 A 
ENDROOT
BRANCH   1  12
ATOM     12  C   UNL     1      24.768 117.985  67.462  1.00  0.00     0.122 C 
ATOM     13  C   UNL     1      25.815 118.631  68.359  1.00  0.00     0.028 C 
ENDBRANCH   1  12
BRANCH   4  14
ATOM     14  C   UNL     1      26.783 114.369  64.642  1.00  0.00     0.265 C 
ATOM     15  O   UNL     1      27.957 114.079  64.446  1.00  0.00    -0.269 OA
ATOM     16  N   UNL     1      25.731 113.480  64.762  1.00  0.00    -0.320 N 
ATOM     17  H   UNL     1      24.847 113.874  65.063  1.00  0.00     0.170 HD
BRANCH  16  18
ATOM     18  C   UNL     1      25.776 112.077  64.624  1.00  0.00     0.059 A 
ATOM     19  C   UNL     1      25.407 111.385  63.473  1.00  0.00     0.029 A 
ATOM     20  C   UNL     1      26.205 111.312  65.708  1.00  0.00     0.137 A 
ATOM     21  C   UNL     1      25.486 109.992  63.447  1.00  0.00     0.022 A 
ATOM     22  N   UNL     1      26.293 109.959  65.717  1.00  0.00    -0.263 NA
ATOM     23  C   UNL     1      25.931 109.331  64.579  1.00  0.00     0.111 A 
ENDBRANCH  16  18
ENDBRANCH   4  14
BRANCH   5  24
ATOM     24  O   UNL     1      26.861 116.208  62.503  1.00  0.00    -0.506 OA
ATOM     25  H   UNL     1      27.574 116.811  62.224  1.00  0.00     0.293 HD
ENDBRANCH   5  24
TORSDOF 4
ENDMDL
