MODEL 1
REMARK VINA RESULT:      -5.9      0.000      0.000
REMARK SMILES Cc1cccc(Cn2c(=O)n(Cc3ccco3)c(=O)c3ccccc32)c1
REMARK SMILES IDX 8 1 9 2 10 3 11 4 18 5 19 6 20 7 21 8 22 9 23 10 24 11 25 12
REMARK SMILES IDX 7 13 6 14 2 15 3 16 26 17 4 18 5 19 1 20 12 21 13 22 14 23
REMARK SMILES IDX 17 24 15 25 16 26
REMARK H PARENT
ROOT
ATOM      1  N   UNL     1      24.528 119.418  67.604  1.00  0.00    -0.289 N 
ATOM      2  C   UNL     1      24.762 120.719  68.042  1.00  0.00     0.332 C 
ATOM      3  O   UNL     1      24.382 121.697  67.393  1.00  0.00    -0.247 OA
ATOM      4  N   UNL     1      25.433 120.869  69.246  1.00  0.00    -0.252 N 
ATOM      5  C   UNL     1      25.969 119.833  69.991  1.00  0.00     0.264 C 
ATOM      6  O   UNL     1      26.663 119.987  70.993  1.00  0.00    -0.268 OA
ATOM      7  C   UNL     1      25.693 118.468  69.518  1.00  0.00     0.064 A 
ATOM      8  C   UNL     1      26.161 117.375  70.267  1.00  0.00     0.016 A 
ATOM      9  C   UNL     1      25.907 116.076  69.841  1.00  0.00     0.001 A 
ATOM     10  C   UNL     1      25.187 115.872  68.670  1.00  0.00     0.002 A 
ATOM     11  C   UNL     1      24.726 116.963  67.925  1.00  0.00     0.027 A 
ATOM     12  C   UNL     1      24.973 118.282  68.339  1.00  0.00     0.059 A 
ENDROOT
BRANCH   1  13
ATOM     13  C   UNL     1      23.761 119.255  66.363  1.00  0.00     0.163 C 
BRANCH  13  14
ATOM     14  C   UNL     1      24.613 119.205  65.110  1.00  0.00    -0.028 A 
ATOM     15  C   UNL     1      26.094 118.002  63.583  1.00  0.00    -0.051 A 
ATOM     16  C   UNL     1      26.145 119.129  62.757  1.00  0.00     0.003 A 
ATOM     17  C   UNL     1      25.331 118.051  64.758  1.00  0.00     0.009 A 
ATOM     18  C   UNL     1      25.419 120.274  63.081  1.00  0.00     0.001 A 
ATOM     19  C   UNL     1      24.651 120.309  64.245  1.00  0.00     0.005 A 
ATOM     20  C   UNL     1      26.889 116.775  63.249  1.00  0.00     0.044 C 
ENDBRANCH  13  14
ENDBRANCH   1  13
BRANCH   4  21
ATOM     21  C   UNL     1      25.602 122.222  69.756  1.00  0.00     0.206 C 
BRANCH  21  22
ATOM     22  C   UNL     1      27.009 122.660  69.530  1.00  0.00     0.123 A 
ATOM     23  C   UNL     1      27.818 122.709  68.412  1.00  0.00     0.047 A 
ATOM     24  O   UNL     1      27.693 123.126  70.616  1.00  0.00    -0.467 OA
ATOM     25  C   UNL     1      29.060 123.237  68.838  1.00  0.00     0.042 A 
ATOM     26  C   UNL     1      28.932 123.474  70.186  1.00  0.00     0.195 A 
ENDBRANCH  21  22
ENDBRANCH   4  21
TORSDOF 4
ENDMDL
MODEL 2
REMARK VINA RESULT:      -5.8      2.402      5.032
REMARK SMILES Cc1cccc(Cn2c(=O)n(Cc3ccco3)c(=O)c3ccccc32)c1
REMARK SMILES IDX 8 1 9 2 10 3 11 4 18 5 19 6 20 7 21 8 22 9 23 10 24 11 25 12
REMARK SMILES IDX 7 13 6 14 2 15 3 16 26 17 4 18 5 19 1 20 12 21 13 22 14 23
REMARK SMILES IDX 17 24 15 25 16 26
REMARK H PARENT
ROOT
ATOM      1  N   UNL     1      26.168 117.455  66.048  1.00  0.00    -0.289 N 
ATOM      2  C   UNL     1      25.548 117.554  67.291  1.00  0.00     0.332 C 
ATOM      3  O   UNL     1      25.871 116.827  68.235  1.00  0.00    -0.247 OA
ATOM      4  N   UNL     1      24.554 118.512  67.427  1.00  0.00    -0.252 N 
ATOM      5  C   UNL     1      24.071 119.306  66.401  1.00  0.00     0.264 C 
ATOM      6  O   UNL     1      23.111 120.066  66.506  1.00  0.00    -0.268 OA
ATOM      7  C   UNL     1      24.754 119.196  65.103  1.00  0.00     0.064 A 
ATOM      8  C   UNL     1      24.346 120.021  64.041  1.00  0.00     0.016 A 
ATOM      9  C   UNL     1      24.982 119.938  62.808  1.00  0.00     0.001 A 
ATOM     10  C   UNL     1      26.023 119.033  62.637  1.00  0.00     0.002 A 
ATOM     11  C   UNL     1      26.424 118.211  63.697  1.00  0.00     0.027 A 
ATOM     12  C   UNL     1      25.794 118.280  64.950  1.00  0.00     0.059 A 
ENDROOT
BRANCH   1  13
ATOM     13  C   UNL     1      27.263 116.487  65.920  1.00  0.00     0.163 C 
BRANCH  13  14
ATOM     14  C   UNL     1      26.859 115.174  65.278  1.00  0.00    -0.028 A 
ATOM     15  C   UNL     1      27.363 113.248  63.861  1.00  0.00    -0.051 A 
ATOM     16  C   UNL     1      26.098 112.722  64.140  1.00  0.00     0.003 A 
ATOM     17  C   UNL     1      27.732 114.475  64.429  1.00  0.00     0.009 A 
ATOM     18  C   UNL     1      25.229 113.393  64.999  1.00  0.00     0.001 A 
ATOM     19  C   UNL     1      25.610 114.606  65.572  1.00  0.00     0.005 A 
ATOM     20  C   UNL     1      28.293 112.540  62.921  1.00  0.00     0.044 C 
ENDBRANCH  13  14
ENDBRANCH   1  13
BRANCH   4  21
ATOM     21  C   UNL     1      23.963 118.684  68.746  1.00  0.00     0.206 C 
BRANCH  21  22
ATOM     22  C   UNL     1      24.565 119.880  69.402  1.00  0.00     0.123 A 
ATOM     23  C   UNL     1      25.860 120.229  69.732  1.00  0.00     0.047 A 
ATOM     24  O   UNL     1      23.710 120.877  69.773  1.00  0.00    -0.467 OA
ATOM     25  C   UNL     1      25.791 121.508  70.332  1.00  0.00     0.042 A 
ATOM     26  C   UNL     1      24.462 121.858  70.333  1.00  0.00     0.195 A 
ENDBRANCH  21  22
ENDBRANCH   4  21
TORSDOF 4
ENDMDL
MODEL 3
REMARK VINA RESULT:      -5.7     14.235     17.252
REMARK SMILES Cc1cccc(Cn2c(=O)n(Cc3ccco3)c(=O)c3ccccc32)c1
REMARK SMILES IDX 8 1 9 2 10 3 11 4 18 5 19 6 20 7 21 8 22 9 23 10 24 11 25 12
REMARK SMILES IDX 7 13 6 14 2 15 3 16 26 17 4 18 5 19 1 20 12 21 13 22 14 23
REMARK SMILES IDX 17 24 15 25 16 26
REMARK H PARENT
ROOT
ATOM      1  N   UNL     1      29.310 102.273  68.870  1.00  0.00    -0.289 N 
ATOM      2  C   UNL     1      28.293 102.588  69.768  1.00  0.00     0.332 C 
ATOM      3  O   UNL     1      28.531 102.839  70.952  1.00  0.00    -0.247 OA
ATOM      4  N   UNL     1      26.999 102.617  69.272  1.00  0.00    -0.252 N 
ATOM      5  C   UNL     1      26.634 102.265  67.983  1.00  0.00     0.264 C 
ATOM      6  O   UNL     1      25.473 102.181  67.590  1.00  0.00    -0.268 OA
ATOM      7  C   UNL     1      27.727 101.954  67.049  1.00  0.00     0.064 A 
ATOM      8  C   UNL     1      27.420 101.649  65.712  1.00  0.00     0.016 A 
ATOM      9  C   UNL     1      28.438 101.357  64.811  1.00  0.00     0.001 A 
ATOM     10  C   UNL     1      29.758 101.372  65.246  1.00  0.00     0.002 A 
ATOM     11  C   UNL     1      30.059 101.674  66.579  1.00  0.00     0.027 A 
ATOM     12  C   UNL     1      29.044 101.970  67.504  1.00  0.00     0.059 A 
ENDROOT
BRANCH   1  13
ATOM     13  C   UNL     1      30.687 102.305  69.377  1.00  0.00     0.163 C 
BRANCH  13  14
ATOM     14  C   UNL     1      31.432 103.589  69.066  1.00  0.00    -0.028 A 
ATOM     15  C   UNL     1      31.606 106.026  69.139  1.00  0.00    -0.051 A 
ATOM     16  C   UNL     1      32.857 105.947  68.519  1.00  0.00     0.003 A 
ATOM     17  C   UNL     1      30.900 104.844  69.404  1.00  0.00     0.009 A 
ATOM     18  C   UNL     1      33.408 104.707  68.198  1.00  0.00     0.001 A 
ATOM     19  C   UNL     1      32.704 103.535  68.478  1.00  0.00     0.005 A 
ATOM     20  C   UNL     1      31.000 107.358  69.467  1.00  0.00     0.044 C 
ENDBRANCH  13  14
ENDBRANCH   1  13
BRANCH   4  21
ATOM     21  C   UNL     1      25.940 103.032  70.180  1.00  0.00     0.206 C 
BRANCH  21  22
ATOM     22  C   UNL     1      25.703 104.496  70.022  1.00  0.00     0.123 A 
ATOM     23  C   UNL     1      26.399 105.617  70.427  1.00  0.00     0.047 A 
ATOM     24  O   UNL     1      24.584 104.870  69.337  1.00  0.00    -0.467 OA
ATOM     25  C   UNL     1      25.667 106.735  69.962  1.00  0.00     0.042 A 
ATOM     26  C   UNL     1      24.571 106.227  69.305  1.00  0.00     0.195 A 
ENDBRANCH  21  22
ENDBRANCH   4  21
TORSDOF 4
ENDMDL
