MODEL 1
REMARK VINA RESULT:      -4.8      0.000      0.000
REMARK SMILES O=C(CC(=O)c1ccncc1)c1ccccc1
REMARK SMILES IDX 3 1 2 2 1 3 12 4 13 5 17 6 14 7 16 8 15 9 4 10 5 11 6 12
REMARK SMILES IDX 7 13 11 14 8 15 10 16 9 17
REMARK H PARENT
ROOT
ATOM      1  C   UNL     1      26.057 115.375  64.486  1.00  0.00     0.162 C 
ENDROOT
BRANCH   1   2
ATOM      2  C   UNL     1      26.429 116.739  65.016  1.00  0.00     0.170 C 
ATOM      3  O   UNL     1      27.230 116.844  65.947  1.00  0.00    -0.294 OA
BRANCH   2   4
ATOM      4  C   UNL     1      25.867 117.971  64.384  1.00  0.00     0.018 A 
ATOM      5  C   UNL     1      26.360 118.351  63.127  1.00  0.00     0.012 A 
ATOM      6  C   UNL     1      24.872 118.747  64.990  1.00  0.00     0.012 A 
ATOM      7  C   UNL     1      25.859 119.484  62.483  1.00  0.00     0.001 A 
ATOM      8  C   UNL     1      24.375 119.882  64.342  1.00  0.00     0.001 A 
ATOM      9  C   UNL     1      24.865 120.248  63.090  1.00  0.00     0.000 A 
ENDBRANCH   2   4
ENDBRANCH   1   2
BRANCH   1  10
ATOM     10  C   UNL     1      27.195 114.385  64.497  1.00  0.00     0.170 C 
ATOM     11  O   UNL     1      27.349 113.575  65.408  1.00  0.00    -0.294 OA
BRANCH  10  12
ATOM     12  C   UNL     1      28.137 114.349  63.340  1.00  0.00     0.021 A 
ATOM     13  C   UNL     1      28.032 115.228  62.262  1.00  0.00     0.032 A 
ATOM     14  C   UNL     1      29.143 113.382  63.339  1.00  0.00     0.032 A 
ATOM     15  C   UNL     1      28.951 115.105  61.233  1.00  0.00     0.111 A 
ATOM     16  C   UNL     1      30.011 113.340  62.264  1.00  0.00     0.111 A 
ATOM     17  N   UNL     1      29.935 114.183  61.212  1.00  0.00    -0.265 NA
ENDBRANCH  10  12
ENDBRANCH   1  10
TORSDOF 4
ENDMDL
MODEL 2
REMARK VINA RESULT:      -4.8     13.163     14.872
REMARK SMILES O=C(CC(=O)c1ccncc1)c1ccccc1
REMARK SMILES IDX 3 1 2 2 1 3 12 4 13 5 17 6 14 7 16 8 15 9 4 10 5 11 6 12
REMARK SMILES IDX 7 13 11 14 8 15 10 16 9 17
REMARK H PARENT
ROOT
ATOM      1  C   UNL     1      17.937 106.916  71.555  1.00  0.00     0.162 C 
ENDROOT
BRANCH   1   2
ATOM      2  C   UNL     1      19.413 106.771  71.274  1.00  0.00     0.170 C 
ATOM      3  O   UNL     1      19.797 106.140  70.288  1.00  0.00    -0.294 OA
BRANCH   2   4
ATOM      4  C   UNL     1      20.416 107.434  72.162  1.00  0.00     0.018 A 
ATOM      5  C   UNL     1      21.637 107.833  71.597  1.00  0.00     0.012 A 
ATOM      6  C   UNL     1      20.183 107.675  73.521  1.00  0.00     0.012 A 
ATOM      7  C   UNL     1      22.604 108.470  72.376  1.00  0.00     0.001 A 
ATOM      8  C   UNL     1      21.155 108.312  74.299  1.00  0.00     0.001 A 
ATOM      9  C   UNL     1      22.361 108.712  73.727  1.00  0.00     0.000 A 
ENDBRANCH   2   4
ENDBRANCH   1   2
BRANCH   1  10
ATOM     10  C   UNL     1      17.226 107.853  70.611  1.00  0.00     0.170 C 
ATOM     11  O   UNL     1      16.762 107.474  69.538  1.00  0.00    -0.294 OA
BRANCH  10  12
ATOM     12  C   UNL     1      17.029 109.276  71.014  1.00  0.00     0.021 A 
ATOM     13  C   UNL     1      17.108 109.697  72.342  1.00  0.00     0.032 A 
ATOM     14  C   UNL     1      16.736 110.209  70.017  1.00  0.00     0.032 A 
ATOM     15  C   UNL     1      16.900 111.039  72.611  1.00  0.00     0.111 A 
ATOM     16  C   UNL     1      16.545 111.527  70.389  1.00  0.00     0.111 A 
ATOM     17  N   UNL     1      16.622 111.959  71.665  1.00  0.00    -0.265 NA
ENDBRANCH  10  12
ENDBRANCH   1  10
TORSDOF 4
ENDMDL
MODEL 3
REMARK VINA RESULT:      -4.7     12.503     14.522
REMARK SMILES O=C(CC(=O)c1ccncc1)c1ccccc1
REMARK SMILES IDX 3 1 2 2 1 3 12 4 13 5 17 6 14 7 16 8 15 9 4 10 5 11 6 12
REMARK SMILES IDX 7 13 11 14 8 15 10 16 9 17
REMARK H PARENT
ROOT
ATOM      1  C   UNL     1      31.835 102.855  69.006  1.00  0.00     0.162 C 
ENDROOT
BRANCH   1   2
ATOM      2  C   UNL     1      30.463 102.287  68.735  1.00  0.00     0.170 C 
ATOM      3  O   UNL     1      30.302 101.458  67.838  1.00  0.00    -0.294 OA
BRANCH   2   4
ATOM      4  C   UNL     1      29.301 102.689  69.585  1.00  0.00     0.018 A 
ATOM      5  C   UNL     1      29.554 103.467  70.724  1.00  0.00     0.012 A 
ATOM      6  C   UNL     1      27.982 102.329  69.285  1.00  0.00     0.012 A 
ATOM      7  C   UNL     1      28.505 103.885  71.545  1.00  0.00     0.001 A 
ATOM      8  C   UNL     1      26.934 102.748  70.110  1.00  0.00     0.001 A 
ATOM      9  C   UNL     1      27.194 103.527  71.236  1.00  0.00     0.000 A 
ENDBRANCH   2   4
ENDBRANCH   1   2
BRANCH   1  10
ATOM     10  C   UNL     1      32.295 103.855  67.974  1.00  0.00     0.170 C 
ATOM     11  O   UNL     1      32.320 103.592  66.774  1.00  0.00    -0.294 OA
BRANCH  10  12
ATOM     12  C   UNL     1      32.684 105.226  68.415  1.00  0.00     0.021 A 
ATOM     13  C   UNL     1      31.769 106.122  68.968  1.00  0.00     0.032 A 
ATOM     14  C   UNL     1      34.011 105.623  68.243  1.00  0.00     0.032 A 
ATOM     15  C   UNL     1      32.230 107.375  69.336  1.00  0.00     0.111 A 
ATOM     16  C   UNL     1      34.372 106.896  68.642  1.00  0.00     0.111 A 
ATOM     17  N   UNL     1      33.508 107.778  69.185  1.00  0.00    -0.265 NA
ENDBRANCH  10  12
ENDBRANCH   1  10
TORSDOF 4
ENDMDL
