MODEL 1
REMARK VINA RESULT:      -5.0      0.000      0.000
REMARK SMILES CCCC(=O)NC(=S)Nc1ccccc1F
REMARK SMILES IDX 4 1 5 2 6 3 7 4 8 5 9 6 3 9 2 10 1 11 10 12 11 13 15 14
REMARK SMILES IDX 12 15 14 16 13 17 16 18
REMARK H PARENT 6 7 9 8
ROOT
ATOM      1  C   UNL     1      16.572 106.686  68.025  1.00  0.00     0.226 C 
ATOM      2  O   UNL     1      15.723 106.074  68.661  1.00  0.00    -0.275 OA
ATOM      3  N   UNL     1      16.908 108.025  68.219  1.00  0.00    -0.303 N 
ATOM      4  C   UNL     1      17.039 108.724  69.429  1.00  0.00     0.177 C 
ATOM      5  S   UNL     1      16.847 108.072  70.956  1.00  0.00    -0.040 S 
ATOM      6  N   UNL     1      17.281 110.071  69.141  1.00  0.00    -0.330 N 
ATOM      7  H   UNL     1      17.472 108.439  67.491  1.00  0.00     0.172 HD
ATOM      8  H   UNL     1      16.633 110.449  68.461  1.00  0.00     0.169 HD
ENDROOT
BRANCH   1   9
ATOM      9  C   UNL     1      17.269 106.102  66.806  1.00  0.00     0.100 C 
BRANCH   9  10
ATOM     10  C   UNL     1      16.535 104.887  66.246  1.00  0.00     0.006 C 
ATOM     11  C   UNL     1      17.349 103.616  66.419  1.00  0.00     0.004 C 
ENDBRANCH   9  10
ENDBRANCH   1   9
BRANCH   6  12
ATOM     12  C   UNL     1      17.901 111.026  69.983  1.00  0.00     0.076 A 
ATOM     13  C   UNL     1      19.286 110.940  70.165  1.00  0.00     0.029 A 
ATOM     14  C   UNL     1      17.186 111.990  70.707  1.00  0.00     0.146 A 
ATOM     15  C   UNL     1      19.946 111.845  71.003  1.00  0.00     0.002 A 
ATOM     16  C   UNL     1      17.842 112.892  71.542  1.00  0.00     0.041 A 
ATOM     17  C   UNL     1      19.226 112.826  71.684  1.00  0.00     0.003 A 
ATOM     18  F   UNL     1      15.846 112.013  70.686  1.00  0.00    -0.205 F 
ENDBRANCH   6  12
TORSDOF 3
ENDMDL
MODEL 2
REMARK VINA RESULT:      -4.7      2.146      2.471
REMARK SMILES CCCC(=O)NC(=S)Nc1ccccc1F
REMARK SMILES IDX 4 1 5 2 6 3 7 4 8 5 9 6 3 9 2 10 1 11 10 12 11 13 15 14
REMARK SMILES IDX 12 15 14 16 13 17 16 18
REMARK H PARENT 6 7 9 8
ROOT
ATOM      1  C   UNL     1      17.189 107.417  69.263  1.00  0.00     0.226 C 
ATOM      2  O   UNL     1      17.953 106.658  69.848  1.00  0.00    -0.275 OA
ATOM      3  N   UNL     1      16.619 108.563  69.817  1.00  0.00    -0.303 N 
ATOM      4  C   UNL     1      17.215 109.509  70.664  1.00  0.00     0.177 C 
ATOM      5  S   UNL     1      18.803 109.488  71.185  1.00  0.00    -0.040 S 
ATOM      6  N   UNL     1      16.239 110.430  71.059  1.00  0.00    -0.330 N 
ATOM      7  H   UNL     1      15.860 108.967  69.287  1.00  0.00     0.172 HD
ATOM      8  H   UNL     1      15.392 109.985  71.393  1.00  0.00     0.169 HD
ENDROOT
BRANCH   1   9
ATOM      9  C   UNL     1      16.620 107.115  67.886  1.00  0.00     0.100 C 
BRANCH   9  10
ATOM     10  C   UNL     1      15.595 105.986  67.916  1.00  0.00     0.006 C 
ATOM     11  C   UNL     1      15.950 104.883  66.933  1.00  0.00     0.004 C 
ENDBRANCH   9  10
ENDBRANCH   1   9
BRANCH   6  12
ATOM     12  C   UNL     1      16.449 111.752  71.519  1.00  0.00     0.076 A 
ATOM     13  C   UNL     1      16.407 112.789  70.579  1.00  0.00     0.029 A 
ATOM     14  C   UNL     1      16.781 112.061  72.845  1.00  0.00     0.146 A 
ATOM     15  C   UNL     1      16.627 114.112  70.976  1.00  0.00     0.002 A 
ATOM     16  C   UNL     1      17.002 113.378  73.242  1.00  0.00     0.041 A 
ATOM     17  C   UNL     1      16.916 114.408  72.308  1.00  0.00     0.003 A 
ATOM     18  F   UNL     1      16.984 111.089  73.747  1.00  0.00    -0.205 F 
ENDBRANCH   6  12
TORSDOF 3
ENDMDL
MODEL 3
REMARK VINA RESULT:      -4.7     15.829     16.640
REMARK SMILES CCCC(=O)NC(=S)Nc1ccccc1F
REMARK SMILES IDX 4 1 5 2 6 3 7 4 8 5 9 6 3 9 2 10 1 11 10 12 11 13 15 14
REMARK SMILES IDX 12 15 14 16 13 17 16 18
REMARK H PARENT 6 7 9 8
ROOT
ATOM      1  C   UNL     1      34.888 103.514  67.056  1.00  0.00     0.226 C 
ATOM      2  O   UNL     1      35.483 104.536  67.376  1.00  0.00    -0.275 OA
ATOM      3  N   UNL     1      33.829 102.949  67.767  1.00  0.00    -0.303 N 
ATOM      4  C   UNL     1      32.761 103.600  68.403  1.00  0.00     0.177 C 
ATOM      5  S   UNL     1      32.497 105.251  68.418  1.00  0.00    -0.040 S 
ATOM      6  N   UNL     1      31.999 102.645  69.083  1.00  0.00    -0.330 N 
ATOM      7  H   UNL     1      33.580 102.009  67.496  1.00  0.00     0.172 HD
ATOM      8  H   UNL     1      32.563 102.027  69.653  1.00  0.00     0.169 HD
ENDROOT
BRANCH   1   9
ATOM      9  C   UNL     1      35.339 102.620  65.913  1.00  0.00     0.100 C 
BRANCH   9  10
ATOM     10  C   UNL     1      34.894 103.148  64.553  1.00  0.00     0.006 C 
ATOM     11  C   UNL     1      35.875 102.764  63.457  1.00  0.00     0.004 C 
ENDBRANCH   9  10
ENDBRANCH   1   9
BRANCH   6  12
ATOM     12  C   UNL     1      30.641 102.754  69.470  1.00  0.00     0.076 A 
ATOM     13  C   UNL     1      30.353 103.407  70.673  1.00  0.00     0.029 A 
ATOM     14  C   UNL     1      29.589 102.167  68.754  1.00  0.00     0.146 A 
ATOM     15  C   UNL     1      29.030 103.525  71.114  1.00  0.00     0.002 A 
ATOM     16  C   UNL     1      28.271 102.283  69.191  1.00  0.00     0.041 A 
ATOM     17  C   UNL     1      27.989 102.971  70.369  1.00  0.00     0.003 A 
ATOM     18  F   UNL     1      29.830 101.401  67.680  1.00  0.00    -0.205 F 
ENDBRANCH   6  12
TORSDOF 3
ENDMDL
