MODEL 1
REMARK VINA RESULT:    -6.824      0.000      0.000
REMARK INTER + INTRA:          -9.117
REMARK INTER:                  -8.548
REMARK INTRA:                  -0.569
REMARK UNBOUND:                -0.698
REMARK  Name = 
REMARK  7 active torsions:
REMARK  status: ('A' for Active; 'I' for Inactive)
REMARK    1  A    between atoms: C_1  and  O_2
REMARK    2  A    between atoms: O_2  and  C_3
REMARK    3  A    between atoms: C_8  and  C_9
REMARK    4  A    between atoms: N_16  and  C_17
REMARK    5  A    between atoms: C_20  and  C_21
REMARK    6  A    between atoms: C_22  and  C_23
REMARK    7  A    between atoms: C_28  and  C_29
REMARK                            x       y       z     vdW  Elec       q    Type
REMARK                         _______ _______ _______ _____ _____    ______ ____
ROOT
ATOM      1  C   UNL     1      16.749  38.810  44.803  0.00  0.00    +0.000 A 
ATOM      2  C   UNL     1      16.669  39.406  43.539  0.00  0.00    +0.000 A 
ATOM      3  C   UNL     1      16.122  40.679  43.431  0.00  0.00    +0.000 A 
ATOM      4  C   UNL     1      15.658  41.372  44.545  0.00  0.00    +0.000 A 
ATOM      5  C   UNL     1      15.732  40.797  45.801  0.00  0.00    +0.000 A 
ATOM      6  C   UNL     1      16.280  39.503  45.941  0.00  0.00    +0.000 A 
ATOM      7  N   UNL     1      15.152  42.634  44.164  0.00  0.00    +0.000 N 
ATOM      8  C   UNL     1      14.646  43.596  45.038  0.00  0.00    +0.000 C 
ATOM      9  O   UNL     1      14.632  43.447  46.257  0.00  0.00    +0.000 OA
ATOM     10  N   UNL     1      14.169  44.730  44.401  0.00  0.00    +0.000 N 
ATOM     11  C   UNL     1      15.267  42.744  42.698  0.00  0.00    +0.000 C 
ATOM     12  C   UNL     1      15.969  41.484  42.182  0.00  0.00    +0.000 C 
ATOM     13  H   UNL     1      14.113  44.693  43.398  0.00  0.00    +0.000 HD
ENDROOT
BRANCH  10  14
ATOM     14  C   UNL     1      13.652  45.906  44.989  0.00  0.00    +0.000 A 
ATOM     15  C   UNL     1      12.645  45.928  45.949  0.00  0.00    +0.000 A 
ATOM     16  C   UNL     1      12.195  47.142  46.478  0.00  0.00    +0.000 A 
ATOM     17  C   UNL     1      12.745  48.363  46.061  0.00  0.00    +0.000 A 
ATOM     18  C   UNL     1      12.221  49.644  46.654  0.00  0.00    +0.000 C 
ATOM     19  C   UNL     1      13.771  48.358  45.094  0.00  0.00    +0.000 A 
ATOM     20  C   UNL     1      14.207  47.123  44.572  0.00  0.00    +0.000 A 
BRANCH  19  21
ATOM     21  C   UNL     1      14.395  49.596  44.607  0.00  0.00    +0.000 A 
ATOM     22  C   UNL     1      15.637  49.996  45.107  0.00  0.00    +0.000 A 
ATOM     23  N   UNL     1      16.295  51.121  44.740  0.00  0.00    +0.000 NA
ATOM     24  C   UNL     1      15.689  51.895  43.820  0.00  0.00    +0.000 A 
ATOM     25  C   UNL     1      14.458  51.601  43.255  0.00  0.00    +0.000 A 
ATOM     26  C   UNL     1      13.790  50.434  43.648  0.00  0.00    +0.000 A 
ATOM     27  C   UNL     1      12.452  50.106  43.045  0.00  0.00    +0.000 C 
ENDBRANCH  19  21
ENDBRANCH  10  14
BRANCH   6  28
ATOM     28  C   UNL     1      16.363  38.867  47.306  0.00  0.00    +0.000 C 
ATOM     29  F   UNL     1      15.771  39.611  48.288  0.00  0.00    +0.000 F 
ATOM     30  F   UNL     1      15.753  37.649  47.368  0.00  0.00    +0.000 F 
ATOM     31  F   UNL     1      17.644  38.674  47.731  0.00  0.00    +0.000 F 
ENDBRANCH   6  28
BRANCH   1  33
ATOM     32  C   UNL     1      17.801  36.848  43.934  0.00  0.00    +0.000 C 
ATOM     33  O   UNL     1      17.264  37.564  45.039  0.00  0.00    +0.000 OA
ENDBRANCH   1  33
TORSDOF 4
ENDMDL
MODEL 2
REMARK VINA RESULT:    -6.339      4.390     10.654
REMARK INTER + INTRA:          -8.520
REMARK INTER:                  -7.841
REMARK INTRA:                  -0.679
REMARK UNBOUND:                -0.698
REMARK  Name = 
REMARK  7 active torsions:
REMARK  status: ('A' for Active; 'I' for Inactive)
REMARK    1  A    between atoms: C_1  and  O_2
REMARK    2  A    between atoms: O_2  and  C_3
REMARK    3  A    between atoms: C_8  and  C_9
REMARK    4  A    between atoms: N_16  and  C_17
REMARK    5  A    between atoms: C_20  and  C_21
REMARK    6  A    between atoms: C_22  and  C_23
REMARK    7  A    between atoms: C_28  and  C_29
REMARK                            x       y       z     vdW  Elec       q    Type
REMARK                         _______ _______ _______ _____ _____    ______ ____
ROOT
ATOM      1  C   UNL     1      14.477  44.016  43.651  0.00  0.00    +0.000 A 
ATOM      2  C   UNL     1      15.260  43.160  42.869  0.00  0.00    +0.000 A 
ATOM      3  C   UNL     1      15.699  41.962  43.418  0.00  0.00    +0.000 A 
ATOM      4  C   UNL     1      15.377  41.594  44.721  0.00  0.00    +0.000 A 
ATOM      5  C   UNL     1      14.603  42.429  45.508  0.00  0.00    +0.000 A 
ATOM      6  C   UNL     1      14.145  43.654  44.976  0.00  0.00    +0.000 A 
ATOM      7  N   UNL     1      15.947  40.340  45.033  0.00  0.00    +0.000 N 
ATOM      8  C   UNL     1      15.788  39.663  46.242  0.00  0.00    +0.000 C 
ATOM      9  O   UNL     1      15.084  40.085  47.156  0.00  0.00    +0.000 OA
ATOM     10  N   UNL     1      16.491  38.471  46.308  0.00  0.00    +0.000 N 
ATOM     11  C   UNL     1      16.717  39.888  43.860  0.00  0.00    +0.000 C 
ATOM     12  C   UNL     1      16.521  40.915  42.740  0.00  0.00    +0.000 C 
ATOM     13  H   UNL     1      17.132  38.284  45.557  0.00  0.00    +0.000 HD
ENDROOT
BRANCH  10  14
ATOM     14  C   UNL     1      16.500  37.522  47.355  0.00  0.00    +0.000 A 
ATOM     15  C   UNL     1      15.381  36.817  47.788  0.00  0.00    +0.000 A 
ATOM     16  C   UNL     1      15.485  35.894  48.833  0.00  0.00    +0.000 A 
ATOM     17  C   UNL     1      16.713  35.650  49.467  0.00  0.00    +0.000 A 
ATOM     18  C   UNL     1      16.771  34.653  50.592  0.00  0.00    +0.000 C 
ATOM     19  C   UNL     1      17.857  36.350  49.035  0.00  0.00    +0.000 A 
ATOM     20  C   UNL     1      17.729  37.279  47.982  0.00  0.00    +0.000 A 
BRANCH  19  21
ATOM     21  C   UNL     1      19.177  36.151  49.651  0.00  0.00    +0.000 A 
ATOM     22  C   UNL     1      20.115  35.316  49.037  0.00  0.00    +0.000 A 
ATOM     23  N   UNL     1      21.351  35.051  49.521  0.00  0.00    +0.000 NA
ATOM     24  C   UNL     1      21.680  35.651  50.681  0.00  0.00    +0.000 A 
ATOM     25  C   UNL     1      20.833  36.497  51.379  0.00  0.00    +0.000 A 
ATOM     26  C   UNL     1      19.557  36.758  50.865  0.00  0.00    +0.000 A 
ATOM     27  C   UNL     1      18.627  37.671  51.615  0.00  0.00    +0.000 C 
ENDBRANCH  19  21
ENDBRANCH  10  14
BRANCH   6  28
ATOM     28  C   UNL     1      13.301  44.572  45.826  0.00  0.00    +0.000 C 
ATOM     29  F   UNL     1      13.937  45.734  46.164  0.00  0.00    +0.000 F 
ATOM     30  F   UNL     1      12.150  44.965  45.210  0.00  0.00    +0.000 F 
ATOM     31  F   UNL     1      12.928  44.013  47.012  0.00  0.00    +0.000 F 
ENDBRANCH   6  28
BRANCH   1  33
ATOM     32  C   UNL     1      13.073  45.217  42.135  0.00  0.00    +0.000 C 
ATOM     33  O   UNL     1      13.986  45.221  43.226  0.00  0.00    +0.000 OA
ENDBRANCH   1  33
TORSDOF 4
ENDMDL
MODEL 3
REMARK VINA RESULT:    -6.288      3.993      9.827
REMARK INTER + INTRA:          -8.457
REMARK INTER:                  -7.759
REMARK INTRA:                  -0.698
REMARK UNBOUND:                -0.698
REMARK  Name = 
REMARK  7 active torsions:
REMARK  status: ('A' for Active; 'I' for Inactive)
REMARK    1  A    between atoms: C_1  and  O_2
REMARK    2  A    between atoms: O_2  and  C_3
REMARK    3  A    between atoms: C_8  and  C_9
REMARK    4  A    between atoms: N_16  and  C_17
REMARK    5  A    between atoms: C_20  and  C_21
REMARK    6  A    between atoms: C_22  and  C_23
REMARK    7  A    between atoms: C_28  and  C_29
REMARK                            x       y       z     vdW  Elec       q    Type
REMARK                         _______ _______ _______ _____ _____    ______ ____
ROOT
ATOM      1  C   UNL     1      11.908  47.255  46.405  0.00  0.00    +0.000 A 
ATOM      2  C   UNL     1      11.115  46.254  46.977  0.00  0.00    +0.000 A 
ATOM      3  C   UNL     1      11.588  44.947  46.989  0.00  0.00    +0.000 A 
ATOM      4  C   UNL     1      12.827  44.614  46.450  0.00  0.00    +0.000 A 
ATOM      5  C   UNL     1      13.623  45.593  45.882  0.00  0.00    +0.000 A 
ATOM      6  C   UNL     1      13.167  46.929  45.854  0.00  0.00    +0.000 A 
ATOM      7  N   UNL     1      13.066  43.229  46.587  0.00  0.00    +0.000 N 
ATOM      8  C   UNL     1      14.229  42.571  46.188  0.00  0.00    +0.000 C 
ATOM      9  O   UNL     1      15.196  43.156  45.708  0.00  0.00    +0.000 OA
ATOM     10  N   UNL     1      14.190  41.201  46.392  0.00  0.00    +0.000 N 
ATOM     11  C   UNL     1      11.882  42.626  47.225  0.00  0.00    +0.000 C 
ATOM     12  C   UNL     1      10.902  43.753  47.566  0.00  0.00    +0.000 C 
ATOM     13  H   UNL     1      13.306  40.812  46.671  0.00  0.00    +0.000 HD
ENDROOT
BRANCH  10  14
ATOM     14  C   UNL     1      15.213  40.256  46.157  0.00  0.00    +0.000 A 
ATOM     15  C   UNL     1      15.979  39.660  47.154  0.00  0.00    +0.000 A 
ATOM     16  C   UNL     1      16.972  38.731  46.828  0.00  0.00    +0.000 A 
ATOM     17  C   UNL     1      17.220  38.373  45.494  0.00  0.00    +0.000 A 
ATOM     18  C   UNL     1      18.305  37.375  45.193  0.00  0.00    +0.000 C 
ATOM     19  C   UNL     1      16.449  38.962  44.472  0.00  0.00    +0.000 A 
ATOM     20  C   UNL     1      15.455  39.898  44.823  0.00  0.00    +0.000 A 
BRANCH  19  21
ATOM     21  C   UNL     1      16.651  38.639  43.052  0.00  0.00    +0.000 A 
ATOM     22  C   UNL     1      17.449  39.464  42.255  0.00  0.00    +0.000 A 
ATOM     23  N   UNL     1      17.693  39.270  40.938  0.00  0.00    +0.000 NA
ATOM     24  C   UNL     1      17.113  38.192  40.376  0.00  0.00    +0.000 A 
ATOM     25  C   UNL     1      16.302  37.305  41.066  0.00  0.00    +0.000 A 
ATOM     26  C   UNL     1      16.060  37.522  42.428  0.00  0.00    +0.000 A 
ATOM     27  C   UNL     1      15.178  36.569  43.186  0.00  0.00    +0.000 C 
ENDBRANCH  19  21
ENDBRANCH  10  14
BRANCH   6  28
ATOM     28  C   UNL     1      14.027  48.003  45.236  0.00  0.00    +0.000 C 
ATOM     29  F   UNL     1      14.029  49.171  45.946  0.00  0.00    +0.000 F 
ATOM     30  F   UNL     1      15.340  47.647  45.137  0.00  0.00    +0.000 F 
ATOM     31  F   UNL     1      13.630  48.353  43.979  0.00  0.00    +0.000 F 
ENDBRANCH   6  28
BRANCH   1  33
ATOM     32  C   UNL     1      10.498  49.026  47.172  0.00  0.00    +0.000 C 
ATOM     33  O   UNL     1      11.554  48.575  46.331  0.00  0.00    +0.000 OA
ENDBRANCH   1  33
TORSDOF 4
ENDMDL
