MODEL 1
REMARK VINA RESULT:    -6.301      0.000      0.000
REMARK INTER + INTRA:          -9.793
REMARK INTER:                  -8.355
REMARK INTRA:                  -1.438
REMARK UNBOUND:                -1.282
REMARK  Name = 
REMARK  7 active torsions:
REMARK  status: ('A' for Active; 'I' for Inactive)
REMARK    1  A    between atoms: C_1  and  N_2
REMARK    2  A    between atoms: C_6  and  C_7
REMARK    3  A    between atoms: C_7  and  C_8
REMARK    4  A    between atoms: C_8  and  N_9
REMARK    5  A    between atoms: C_12  and  N_13
REMARK    6  A    between atoms: N_13  and  C_14
REMARK    7  A    between atoms: C_17  and  C_18
REMARK                            x       y       z     vdW  Elec       q    Type
REMARK                         _______ _______ _______ _____ _____    ______ ____
ROOT
ATOM      1  N   UNL     1      15.745  39.540  50.718  0.00  0.00    +0.000 N 
ATOM      2  C   UNL     1      15.782  39.463  49.332  0.00  0.00    +0.000 A 
ATOM      3  N   UNL     1      14.809  40.124  48.703  0.00  0.00    +0.000 NA
ATOM      4  C   UNL     1      14.762  40.053  47.361  0.00  0.00    +0.000 A 
ATOM      5  C   UNL     1      15.706  39.320  46.621  0.00  0.00    +0.000 A 
ATOM      6  C   UNL     1      15.736  39.208  45.206  0.00  0.00    +0.000 A 
ATOM      7  C   UNL     1      16.724  38.460  44.571  0.00  0.00    +0.000 A 
ATOM      8  C   UNL     1      17.690  37.821  45.336  0.00  0.00    +0.000 A 
ATOM      9  C   UNL     1      17.663  37.940  46.728  0.00  0.00    +0.000 A 
ATOM     10  C   UNL     1      16.688  38.682  47.383  0.00  0.00    +0.000 A 
ATOM     11  N   UNL     1      16.731  38.758  48.714  0.00  0.00    +0.000 NA
ATOM     12  H   UNL     1      15.084  40.286  50.911  0.00  0.00    +0.000 HD
ENDROOT
BRANCH   4  13
ATOM     13  N   UNL     1      13.716  40.720  46.666  0.00  0.00    +0.000 N 
ATOM     14  H   UNL     1      12.831  40.306  46.944  0.00  0.00    +0.000 HD
BRANCH  13  15
ATOM     15  C   UNL     1      13.594  42.091  46.375  0.00  0.00    +0.000 A 
ATOM     16  C   UNL     1      12.483  42.846  46.766  0.00  0.00    +0.000 A 
ATOM     17  C   UNL     1      12.435  44.232  46.555  0.00  0.00    +0.000 A 
ATOM     18  C   UNL     1      13.515  44.901  45.965  0.00  0.00    +0.000 A 
ATOM     19  C   UNL     1      14.640  44.154  45.590  0.00  0.00    +0.000 A 
ATOM     20  C   UNL     1      14.680  42.772  45.804  0.00  0.00    +0.000 A 
BRANCH  18  21
ATOM     21  C   UNL     1      13.501  46.398  45.775  0.00  0.00    +0.000 C 
ATOM     22  F   UNL     1      14.730  46.976  45.879  0.00  0.00    +0.000 F 
ATOM     23  F   UNL     1      12.710  47.040  46.683  0.00  0.00    +0.000 F 
ATOM     24  F   UNL     1      13.026  46.757  44.546  0.00  0.00    +0.000 F 
ENDBRANCH  18  21
ENDBRANCH  13  15
ENDBRANCH   4  13
BRANCH   1  25
ATOM     25  C   UNL     1      17.031  39.690  51.377  0.00  0.00    +0.000 C 
BRANCH  25  26
ATOM     26  C   UNL     1      17.144  40.964  52.222  0.00  0.00    +0.000 C 
BRANCH  26  32
ATOM     27  C   UNL     1      15.161  40.681  54.409  0.00  0.00    +0.000 C 
ATOM     28  N   UNL     1      14.749  41.221  53.115  0.00  0.00    +0.000 NA
ATOM     29  C   UNL     1      13.813  42.343  53.288  0.00  0.00    +0.000 C 
ATOM     30  C   UNL     1      14.656  43.611  53.342  0.00  0.00    +0.000 C 
ATOM     31  C   UNL     1      16.045  43.198  52.874  0.00  0.00    +0.000 C 
ATOM     32  C   UNL     1      15.853  41.793  52.303  0.00  0.00    +0.000 C 
ENDBRANCH  26  32
ENDBRANCH  25  26
ENDBRANCH   1  25
TORSDOF 6
ENDMDL
MODEL 2
REMARK VINA RESULT:    -6.295      4.810      8.075
REMARK INTER + INTRA:          -9.785
REMARK INTER:                  -8.416
REMARK INTRA:                  -1.369
REMARK UNBOUND:                -1.282
REMARK  Name = 
REMARK  7 active torsions:
REMARK  status: ('A' for Active; 'I' for Inactive)
REMARK    1  A    between atoms: C_1  and  N_2
REMARK    2  A    between atoms: C_6  and  C_7
REMARK    3  A    between atoms: C_7  and  C_8
REMARK    4  A    between atoms: C_8  and  N_9
REMARK    5  A    between atoms: C_12  and  N_13
REMARK    6  A    between atoms: N_13  and  C_14
REMARK    7  A    between atoms: C_17  and  C_18
REMARK                            x       y       z     vdW  Elec       q    Type
REMARK                         _______ _______ _______ _____ _____    ______ ____
ROOT
ATOM      1  N   UNL     1      15.045  44.181  40.663  0.00  0.00    +0.000 N 
ATOM      2  C   UNL     1      15.197  43.442  41.828  0.00  0.00    +0.000 A 
ATOM      3  N   UNL     1      14.952  44.109  42.957  0.00  0.00    +0.000 NA
ATOM      4  C   UNL     1      15.126  43.461  44.123  0.00  0.00    +0.000 A 
ATOM      5  C   UNL     1      15.540  42.119  44.175  0.00  0.00    +0.000 A 
ATOM      6  C   UNL     1      15.731  41.361  45.361  0.00  0.00    +0.000 A 
ATOM      7  C   UNL     1      16.137  40.032  45.300  0.00  0.00    +0.000 A 
ATOM      8  C   UNL     1      16.354  39.444  44.060  0.00  0.00    +0.000 A 
ATOM      9  C   UNL     1      16.159  40.189  42.895  0.00  0.00    +0.000 A 
ATOM     10  C   UNL     1      15.752  41.517  42.933  0.00  0.00    +0.000 A 
ATOM     11  N   UNL     1      15.576  42.164  41.779  0.00  0.00    +0.000 NA
ATOM     12  H   UNL     1      14.558  45.021  40.960  0.00  0.00    +0.000 HD
ENDROOT
BRANCH   4  13
ATOM     13  N   UNL     1      14.905  44.158  45.344  0.00  0.00    +0.000 N 
ATOM     14  H   UNL     1      15.802  44.295  45.801  0.00  0.00    +0.000 HD
BRANCH  13  15
ATOM     15  C   UNL     1      14.010  45.213  45.599  0.00  0.00    +0.000 A 
ATOM     16  C   UNL     1      12.818  45.032  46.309  0.00  0.00    +0.000 A 
ATOM     17  C   UNL     1      11.997  46.120  46.640  0.00  0.00    +0.000 A 
ATOM     18  C   UNL     1      12.364  47.424  46.286  0.00  0.00    +0.000 A 
ATOM     19  C   UNL     1      13.567  47.615  45.594  0.00  0.00    +0.000 A 
ATOM     20  C   UNL     1      14.381  46.525  45.268  0.00  0.00    +0.000 A 
BRANCH  18  21
ATOM     21  C   UNL     1      11.516  48.611  46.676  0.00  0.00    +0.000 C 
ATOM     22  F   UNL     1      12.234  49.746  46.905  0.00  0.00    +0.000 F 
ATOM     23  F   UNL     1      10.792  48.393  47.811  0.00  0.00    +0.000 F 
ATOM     24  F   UNL     1      10.608  48.935  45.710  0.00  0.00    +0.000 F 
ENDBRANCH  18  21
ENDBRANCH  13  15
ENDBRANCH   4  13
BRANCH   1  25
ATOM     25  C   UNL     1      14.420  43.486  39.550  0.00  0.00    +0.000 C 
BRANCH  25  26
ATOM     26  C   UNL     1      13.043  44.042  39.172  0.00  0.00    +0.000 C 
BRANCH  26  32
ATOM     27  C   UNL     1      11.805  45.480  41.452  0.00  0.00    +0.000 C 
ATOM     28  N   UNL     1      11.702  44.025  41.364  0.00  0.00    +0.000 NA
ATOM     29  C   UNL     1      10.362  43.567  41.765  0.00  0.00    +0.000 C 
ATOM     30  C   UNL     1       9.518  43.520  40.497  0.00  0.00    +0.000 C 
ATOM     31  C   UNL     1      10.505  43.651  39.345  0.00  0.00    +0.000 C 
ATOM     32  C   UNL     1      11.877  43.474  39.996  0.00  0.00    +0.000 C 
ENDBRANCH  26  32
ENDBRANCH  25  26
ENDBRANCH   1  25
TORSDOF 6
ENDMDL
MODEL 3
REMARK VINA RESULT:    -6.276      6.160      9.744
REMARK INTER + INTRA:          -9.760
REMARK INTER:                  -8.478
REMARK INTRA:                  -1.282
REMARK UNBOUND:                -1.282
REMARK  Name = 
REMARK  7 active torsions:
REMARK  status: ('A' for Active; 'I' for Inactive)
REMARK    1  A    between atoms: C_1  and  N_2
REMARK    2  A    between atoms: C_6  and  C_7
REMARK    3  A    between atoms: C_7  and  C_8
REMARK    4  A    between atoms: C_8  and  N_9
REMARK    5  A    between atoms: C_12  and  N_13
REMARK    6  A    between atoms: N_13  and  C_14
REMARK    7  A    between atoms: C_17  and  C_18
REMARK                            x       y       z     vdW  Elec       q    Type
REMARK                         _______ _______ _______ _____ _____    ______ ____
ROOT
ATOM      1  N   UNL     1      14.171  49.863  44.885  0.00  0.00    +0.000 N 
ATOM      2  C   UNL     1      13.714  48.638  45.352  0.00  0.00    +0.000 A 
ATOM      3  N   UNL     1      14.482  47.593  45.042  0.00  0.00    +0.000 NA
ATOM      4  C   UNL     1      14.071  46.371  45.428  0.00  0.00    +0.000 A 
ATOM      5  C   UNL     1      12.879  46.179  46.147  0.00  0.00    +0.000 A 
ATOM      6  C   UNL     1      12.385  44.928  46.604  0.00  0.00    +0.000 A 
ATOM      7  C   UNL     1      11.193  44.851  47.318  0.00  0.00    +0.000 A 
ATOM      8  C   UNL     1      10.484  46.014  47.585  0.00  0.00    +0.000 A 
ATOM      9  C   UNL     1      10.976  47.244  47.142  0.00  0.00    +0.000 A 
ATOM     10  C   UNL     1      12.165  47.345  46.430  0.00  0.00    +0.000 A 
ATOM     11  N   UNL     1      12.578  48.555  46.047  0.00  0.00    +0.000 NA
ATOM     12  H   UNL     1      15.126  49.680  44.593  0.00  0.00    +0.000 HD
ENDROOT
BRANCH   4  13
ATOM     13  N   UNL     1      14.852  45.234  45.081  0.00  0.00    +0.000 N 
ATOM     14  H   UNL     1      15.024  44.694  45.924  0.00  0.00    +0.000 HD
BRANCH  13  15
ATOM     15  C   UNL     1      14.752  44.419  43.938  0.00  0.00    +0.000 A 
ATOM     16  C   UNL     1      15.354  43.159  43.859  0.00  0.00    +0.000 A 
ATOM     17  C   UNL     1      15.150  42.324  42.750  0.00  0.00    +0.000 A 
ATOM     18  C   UNL     1      14.316  42.726  41.700  0.00  0.00    +0.000 A 
ATOM     19  C   UNL     1      13.692  43.978  41.782  0.00  0.00    +0.000 A 
ATOM     20  C   UNL     1      13.900  44.804  42.892  0.00  0.00    +0.000 A 
BRANCH  18  21
ATOM     21  C   UNL     1      14.047  41.821  40.521  0.00  0.00    +0.000 C 
ATOM     22  F   UNL     1      14.828  40.704  40.498  0.00  0.00    +0.000 F 
ATOM     23  F   UNL     1      14.247  42.440  39.322  0.00  0.00    +0.000 F 
ATOM     24  F   UNL     1      12.758  41.373  40.499  0.00  0.00    +0.000 F 
ENDBRANCH  18  21
ENDBRANCH  13  15
ENDBRANCH   4  13
BRANCH   1  25
ATOM     25  C   UNL     1      14.026  50.983  45.799  0.00  0.00    +0.000 C 
BRANCH  25  26
ATOM     26  C   UNL     1      15.104  52.059  45.630  0.00  0.00    +0.000 C 
BRANCH  26  32
ATOM     27  C   UNL     1      15.897  52.384  42.790  0.00  0.00    +0.000 C 
ATOM     28  N   UNL     1      16.484  51.314  43.595  0.00  0.00    +0.000 NA
ATOM     29  C   UNL     1      17.918  51.164  43.303  0.00  0.00    +0.000 C 
ATOM     30  C   UNL     1      18.660  52.061  44.287  0.00  0.00    +0.000 C 
ATOM     31  C   UNL     1      17.629  52.459  45.334  0.00  0.00    +0.000 C 
ATOM     32  C   UNL     1      16.436  51.544  45.061  0.00  0.00    +0.000 C 
ENDBRANCH  26  32
ENDBRANCH  25  26
ENDBRANCH   1  25
TORSDOF 6
ENDMDL
