MODEL 1
REMARK VINA RESULT:    -7.380      0.000      0.000
REMARK INTER + INTRA:          -8.855
REMARK INTER:                  -8.223
REMARK INTRA:                  -0.631
REMARK UNBOUND:                -0.396
REMARK  Name = 
REMARK  8 active torsions:
REMARK  status: ('A' for Active; 'I' for Inactive)
REMARK    1  A    between atoms: C_1  and  N_2
REMARK    2  A    between atoms: C_10  and  C_11
REMARK    3  A    between atoms: C_14  and  C_15
REMARK    4  A    between atoms: C_15  and  O_17
REMARK    5  A    between atoms: C_26  and  C_27
REMARK    6  A    between atoms: C_26  and  C_28
REMARK    7  A    between atoms: C_31  and  C_32
REMARK    8  A    between atoms: C_31  and  C_33
REMARK                            x       y       z     vdW  Elec       q    Type
REMARK                         _______ _______ _______ _____ _____    ______ ____
ROOT
ATOM      1  C   UNL     1      17.167  42.688  43.292  0.00  0.00    +0.000 C 
ATOM      2  N   UNL     1      15.885  43.043  43.899  0.00  0.00    +0.000 N 
ATOM      3  C   UNL     1      15.459  42.258  45.006  0.00  0.00    +0.000 A 
ATOM      4  C   UNL     1      15.839  40.907  45.143  0.00  0.00    +0.000 A 
ATOM      5  C   UNL     1      15.392  40.072  46.197  0.00  0.00    +0.000 A 
ATOM      6  C   UNL     1      14.489  40.606  47.137  0.00  0.00    +0.000 A 
ATOM      7  C   UNL     1      14.133  41.965  47.013  0.00  0.00    +0.000 A 
ATOM      8  C   UNL     1      14.589  42.789  45.974  0.00  0.00    +0.000 A 
ATOM      9  N   UNL     1      14.241  44.145  46.075  0.00  0.00    +0.000 NA
ATOM     10  C   UNL     1      13.968  44.905  45.058  0.00  0.00    +0.000 C 
ATOM     11  C   UNL     1      13.917  44.486  43.626  0.00  0.00    +0.000 A 
ATOM     12  C   UNL     1      12.883  44.999  42.820  0.00  0.00    +0.000 A 
ATOM     13  C   UNL     1      12.861  44.748  41.451  0.00  0.00    +0.000 A 
ATOM     14  C   UNL     1      13.870  43.981  40.881  0.00  0.00    +0.000 A 
ATOM     15  C   UNL     1      14.882  43.447  41.685  0.00  0.00    +0.000 A 
ATOM     16  C   UNL     1      14.921  43.667  43.076  0.00  0.00    +0.000 A 
ATOM     17  C   UNL     1      13.926  39.788  48.303  0.00  0.00    +0.000 C 
ATOM     18  C   UNL     1      14.618  40.242  49.608  0.00  0.00    +0.000 C 
ATOM     19  C   UNL     1      12.401  39.990  48.466  0.00  0.00    +0.000 C 
ATOM     20  C   UNL     1      14.147  38.273  48.091  0.00  0.00    +0.000 C 
ATOM     21  C   UNL     1      15.558  37.965  47.620  0.00  0.00    +0.000 C 
ATOM     22  C   UNL     1      15.866  38.614  46.251  0.00  0.00    +0.000 C 
ATOM     23  C   UNL     1      15.164  37.821  45.126  0.00  0.00    +0.000 C 
ATOM     24  C   UNL     1      17.396  38.498  46.048  0.00  0.00    +0.000 C 
ENDROOT
BRANCH  10  25
ATOM     25  C   UNL     1      13.684  46.342  45.380  0.00  0.00    +0.000 A 
ATOM     26  C   UNL     1      14.586  47.326  44.959  0.00  0.00    +0.000 A 
ATOM     27  C   UNL     1      14.336  48.672  45.237  0.00  0.00    +0.000 A 
ATOM     28  C   UNL     1      13.175  49.044  45.928  0.00  0.00    +0.000 A 
ATOM     29  C   UNL     1      12.262  48.059  46.334  0.00  0.00    +0.000 A 
ATOM     30  C   UNL     1      12.514  46.711  46.055  0.00  0.00    +0.000 A 
BRANCH  28  31
ATOM     31  C   UNL     1      12.950  50.484  46.200  0.00  0.00    +0.000 C 
ATOM     32  O   UNL     1      11.934  50.974  46.656  0.00  0.00    +0.000 OA
BRANCH  31  33
ATOM     33  O   UNL     1      14.010  51.247  45.882  0.00  0.00    +0.000 OA
ATOM     34  H   UNL     1      13.742  51.679  45.043  0.00  0.00    +0.000 HD
ENDBRANCH  31  33
ENDBRANCH  28  31
ENDBRANCH  10  25
TORSDOF 3
ENDMDL
MODEL 2
REMARK VINA RESULT:    -7.029      1.827      2.562
REMARK INTER + INTRA:          -8.452
REMARK INTER:                  -7.830
REMARK INTRA:                  -0.622
REMARK UNBOUND:                -0.396
REMARK  Name = 
REMARK  8 active torsions:
REMARK  status: ('A' for Active; 'I' for Inactive)
REMARK    1  A    between atoms: C_1  and  N_2
REMARK    2  A    between atoms: C_10  and  C_11
REMARK    3  A    between atoms: C_14  and  C_15
REMARK    4  A    between atoms: C_15  and  O_17
REMARK    5  A    between atoms: C_26  and  C_27
REMARK    6  A    between atoms: C_26  and  C_28
REMARK    7  A    between atoms: C_31  and  C_32
REMARK    8  A    between atoms: C_31  and  C_33
REMARK                            x       y       z     vdW  Elec       q    Type
REMARK                         _______ _______ _______ _____ _____    ______ ____
ROOT
ATOM      1  C   UNL     1      17.093  40.778  42.568  0.00  0.00    +0.000 C 
ATOM      2  N   UNL     1      16.021  41.024  43.532  0.00  0.00    +0.000 N 
ATOM      3  C   UNL     1      16.114  40.351  44.781  0.00  0.00    +0.000 A 
ATOM      4  C   UNL     1      16.761  39.104  44.902  0.00  0.00    +0.000 A 
ATOM      5  C   UNL     1      16.827  38.371  46.113  0.00  0.00    +0.000 A 
ATOM      6  C   UNL     1      16.179  38.895  47.248  0.00  0.00    +0.000 A 
ATOM      7  C   UNL     1      15.557  40.155  47.132  0.00  0.00    +0.000 A 
ATOM      8  C   UNL     1      15.506  40.881  45.932  0.00  0.00    +0.000 A 
ATOM      9  N   UNL     1      14.962  42.171  46.024  0.00  0.00    +0.000 NA
ATOM     10  C   UNL     1      14.251  42.730  45.094  0.00  0.00    +0.000 C 
ATOM     11  C   UNL     1      13.834  42.108  43.801  0.00  0.00    +0.000 A 
ATOM     12  C   UNL     1      12.525  42.344  43.342  0.00  0.00    +0.000 A 
ATOM     13  C   UNL     1      12.125  41.900  42.084  0.00  0.00    +0.000 A 
ATOM     14  C   UNL     1      13.030  41.216  41.282  0.00  0.00    +0.000 A 
ATOM     15  C   UNL     1      14.322  40.956  41.748  0.00  0.00    +0.000 A 
ATOM     16  C   UNL     1      14.751  41.376  43.023  0.00  0.00    +0.000 A 
ATOM     17  C   UNL     1      16.169  38.177  48.602  0.00  0.00    +0.000 C 
ATOM     18  C   UNL     1      17.136  38.909  49.559  0.00  0.00    +0.000 C 
ATOM     19  C   UNL     1      14.760  38.174  49.242  0.00  0.00    +0.000 C 
ATOM     20  C   UNL     1      16.589  36.696  48.461  0.00  0.00    +0.000 C 
ATOM     21  C   UNL     1      17.815  36.535  47.578  0.00  0.00    +0.000 C 
ATOM     22  C   UNL     1      17.555  37.020  46.133  0.00  0.00    +0.000 C 
ATOM     23  C   UNL     1      16.697  35.981  45.378  0.00  0.00    +0.000 C 
ATOM     24  C   UNL     1      18.940  37.102  45.446  0.00  0.00    +0.000 C 
ENDROOT
BRANCH  10  25
ATOM     25  C   UNL     1      13.820  44.141  45.364  0.00  0.00    +0.000 A 
ATOM     26  C   UNL     1      12.819  44.377  46.314  0.00  0.00    +0.000 A 
ATOM     27  C   UNL     1      12.410  45.684  46.591  0.00  0.00    +0.000 A 
ATOM     28  C   UNL     1      13.007  46.764  45.927  0.00  0.00    +0.000 A 
ATOM     29  C   UNL     1      14.023  46.528  44.989  0.00  0.00    +0.000 A 
ATOM     30  C   UNL     1      14.432  45.219  44.713  0.00  0.00    +0.000 A 
BRANCH  28  31
ATOM     31  C   UNL     1      12.542  48.134  46.253  0.00  0.00    +0.000 C 
ATOM     32  O   UNL     1      11.542  48.417  46.886  0.00  0.00    +0.000 OA
BRANCH  31  33
ATOM     33  O   UNL     1      13.350  49.090  45.764  0.00  0.00    +0.000 OA
ATOM     34  H   UNL     1      13.047  49.200  44.838  0.00  0.00    +0.000 HD
ENDBRANCH  31  33
ENDBRANCH  28  31
ENDBRANCH  10  25
TORSDOF 3
ENDMDL
MODEL 3
REMARK VINA RESULT:    -6.898      6.907     10.726
REMARK INTER + INTRA:          -8.303
REMARK INTER:                  -7.907
REMARK INTRA:                  -0.396
REMARK UNBOUND:                -0.396
REMARK  Name = 
REMARK  8 active torsions:
REMARK  status: ('A' for Active; 'I' for Inactive)
REMARK    1  A    between atoms: C_1  and  N_2
REMARK    2  A    between atoms: C_10  and  C_11
REMARK    3  A    between atoms: C_14  and  C_15
REMARK    4  A    between atoms: C_15  and  O_17
REMARK    5  A    between atoms: C_26  and  C_27
REMARK    6  A    between atoms: C_26  and  C_28
REMARK    7  A    between atoms: C_31  and  C_32
REMARK    8  A    between atoms: C_31  and  C_33
REMARK                            x       y       z     vdW  Elec       q    Type
REMARK                         _______ _______ _______ _____ _____    ______ ____
ROOT
ATOM      1  C   UNL     1      16.903  35.837  53.949  0.00  0.00    +0.000 C 
ATOM      2  N   UNL     1      17.595  36.571  52.889  0.00  0.00    +0.000 N 
ATOM      3  C   UNL     1      18.746  35.955  52.327  0.00  0.00    +0.000 A 
ATOM      4  C   UNL     1      19.553  35.074  53.076  0.00  0.00    +0.000 A 
ATOM      5  C   UNL     1      20.740  34.483  52.576  0.00  0.00    +0.000 A 
ATOM      6  C   UNL     1      21.160  34.823  51.276  0.00  0.00    +0.000 A 
ATOM      7  C   UNL     1      20.336  35.682  50.518  0.00  0.00    +0.000 A 
ATOM      8  C   UNL     1      19.156  36.253  51.016  0.00  0.00    +0.000 A 
ATOM      9  N   UNL     1      18.393  36.979  50.088  0.00  0.00    +0.000 NA
ATOM     10  C   UNL     1      17.712  38.044  50.379  0.00  0.00    +0.000 C 
ATOM     11  C   UNL     1      17.651  38.723  51.708  0.00  0.00    +0.000 A 
ATOM     12  C   UNL     1      17.677  40.131  51.738  0.00  0.00    +0.000 A 
ATOM     13  C   UNL     1      17.491  40.817  52.935  0.00  0.00    +0.000 A 
ATOM     14  C   UNL     1      17.283  40.102  54.107  0.00  0.00    +0.000 A 
ATOM     15  C   UNL     1      17.286  38.704  54.084  0.00  0.00    +0.000 A 
ATOM     16  C   UNL     1      17.489  37.980  52.892  0.00  0.00    +0.000 A 
ATOM     17  C   UNL     1      22.437  34.261  50.644  0.00  0.00    +0.000 C 
ATOM     18  C   UNL     1      22.045  33.200  49.591  0.00  0.00    +0.000 C 
ATOM     19  C   UNL     1      23.265  35.362  49.939  0.00  0.00    +0.000 C 
ATOM     20  C   UNL     1      23.364  33.629  51.706  0.00  0.00    +0.000 C 
ATOM     21  C   UNL     1      22.598  32.743  52.674  0.00  0.00    +0.000 C 
ATOM     22  C   UNL     1      21.545  33.539  53.479  0.00  0.00    +0.000 C 
ATOM     23  C   UNL     1      22.245  34.375  54.574  0.00  0.00    +0.000 C 
ATOM     24  C   UNL     1      20.640  32.491  54.169  0.00  0.00    +0.000 C 
ENDROOT
BRANCH  10  25
ATOM     25  C   UNL     1      16.911  38.632  49.255  0.00  0.00    +0.000 A 
ATOM     26  C   UNL     1      17.434  38.599  47.957  0.00  0.00    +0.000 A 
ATOM     27  C   UNL     1      16.701  39.130  46.892  0.00  0.00    +0.000 A 
ATOM     28  C   UNL     1      15.435  39.687  47.118  0.00  0.00    +0.000 A 
ATOM     29  C   UNL     1      14.904  39.702  48.416  0.00  0.00    +0.000 A 
ATOM     30  C   UNL     1      15.639  39.171  49.481  0.00  0.00    +0.000 A 
BRANCH  28  31
ATOM     31  C   UNL     1      14.693  40.237  45.958  0.00  0.00    +0.000 C 
ATOM     32  O   UNL     1      13.538  39.989  45.666  0.00  0.00    +0.000 OA
BRANCH  31  33
ATOM     33  O   UNL     1      15.437  41.071  45.211  0.00  0.00    +0.000 OA
ATOM     34  H   UNL     1      15.872  40.478  44.563  0.00  0.00    +0.000 HD
ENDBRANCH  31  33
ENDBRANCH  28  31
ENDBRANCH  10  25
TORSDOF 3
ENDMDL
