MODEL 1
REMARK VINA RESULT:    -7.632      0.000      0.000
REMARK INTER + INTRA:         -10.265
REMARK INTER:                  -9.403
REMARK INTRA:                  -0.862
REMARK UNBOUND:                -0.849
REMARK  Name = 
REMARK  6 active torsions:
REMARK  status: ('A' for Active; 'I' for Inactive)
REMARK    1  A    between atoms: C_1  and  C_2
REMARK    2  A    between atoms: C_5  and  C_6
REMARK    3  A    between atoms: C_11  and  C_12
REMARK    4  A    between atoms: C_15  and  C_16
REMARK    5  A    between atoms: C_21  and  C_22
REMARK    6  A    between atoms: C_24  and  C_25
REMARK                            x       y       z     vdW  Elec       q    Type
REMARK                         _______ _______ _______ _____ _____    ______ ____
ROOT
ATOM      1  C   UNL     1      15.000  43.338  44.437  0.00  0.00    +0.000 A 
ATOM      2  C   UNL     1      15.467  43.313  43.118  0.00  0.00    +0.000 A 
ATOM      3  C   UNL     1      16.120  42.182  42.609  0.00  0.00    +0.000 A 
ATOM      4  C   UNL     1      16.323  41.047  43.404  0.00  0.00    +0.000 A 
ATOM      5  C   UNL     1      15.845  41.074  44.721  0.00  0.00    +0.000 A 
ATOM      6  C   UNL     1      15.192  42.203  45.231  0.00  0.00    +0.000 A 
ENDROOT
BRANCH   1  12
ATOM      7  C   UNL     1      13.064  48.843  46.051  0.00  0.00    +0.000 A 
ATOM      8  C   UNL     1      12.015  48.165  46.677  0.00  0.00    +0.000 A 
ATOM      9  C   UNL     1      11.937  46.766  46.629  0.00  0.00    +0.000 A 
ATOM     10  C   UNL     1      12.932  46.042  45.944  0.00  0.00    +0.000 A 
ATOM     11  C   UNL     1      13.164  44.662  45.697  0.00  0.00    +0.000 A 
ATOM     12  C   UNL     1      14.329  44.530  44.961  0.00  0.00    +0.000 A 
ATOM     13  N   UNL     1      14.797  45.810  44.751  0.00  0.00    +0.000 N 
ATOM     14  C   UNL     1      13.971  46.741  45.336  0.00  0.00    +0.000 A 
ATOM     15  C   UNL     1      14.070  48.138  45.373  0.00  0.00    +0.000 A 
ATOM     16  H   UNL     1      15.623  46.041  44.219  0.00  0.00    +0.000 HD
BRANCH   7  21
ATOM     17  C   UNL     1      14.785  52.931  46.950  0.00  0.00    +0.000 C 
ATOM     18  C   UNL     1      13.857  52.420  45.856  0.00  0.00    +0.000 C 
ATOM     19  C   UNL     1      12.377  52.474  46.260  0.00  0.00    +0.000 C 
ATOM     20  N   UNL     1      12.128  51.099  46.637  0.00  0.00    +0.000 N 
ATOM     21  C   UNL     1      13.136  50.327  46.100  0.00  0.00    +0.000 C 
ATOM     22  N   UNL     1      14.160  50.981  45.606  0.00  0.00    +0.000 NA
ATOM     23  H   UNL     1      11.185  50.763  46.488  0.00  0.00    +0.000 HD
ENDBRANCH   7  21
ENDBRANCH   1  12
BRANCH   4  24
ATOM     24  C   UNL     1      17.009  39.873  42.868  0.00  0.00    +0.000 A 
ATOM     25  C   UNL     1      17.192  38.575  43.309  0.00  0.00    +0.000 A 
ATOM     26  C   UNL     1      17.955  37.902  42.318  0.00  0.00    +0.000 A 
ATOM     27  C   UNL     1      18.466  36.604  42.154  0.00  0.00    +0.000 A 
ATOM     28  C   UNL     1      19.195  36.310  40.991  0.00  0.00    +0.000 A 
ATOM     29  C   UNL     1      19.416  37.288  40.010  0.00  0.00    +0.000 A 
ATOM     30  C   UNL     1      18.905  38.585  40.156  0.00  0.00    +0.000 A 
ATOM     31  C   UNL     1      18.189  38.841  41.322  0.00  0.00    +0.000 A 
ATOM     32  O   UNL     1      17.622  40.032  41.655  0.00  0.00    +0.000 OA
BRANCH  29  33
ATOM     33  C   UNL     1      20.193  36.956  38.788  0.00  0.00    +0.000 C 
ATOM     34  N   UNL     1      21.147  37.743  38.351  0.00  0.00    +0.000 NA
ATOM     35  C   UNL     1      21.653  37.074  37.116  0.00  0.00    +0.000 C 
ATOM     36  C   UNL     1      23.171  37.107  37.110  0.00  0.00    +0.000 C 
ATOM     37  C   UNL     1      21.087  35.647  37.147  0.00  0.00    +0.000 C 
ATOM     38  N   UNL     1      19.982  35.802  38.067  0.00  0.00    +0.000 N 
ATOM     39  H   UNL     1      19.734  34.977  38.602  0.00  0.00    +0.000 HD
ENDBRANCH  29  33
ENDBRANCH   4  24
TORSDOF 4
ENDMDL
MODEL 2
REMARK VINA RESULT:    -7.584      9.150      9.886
REMARK INTER + INTRA:         -10.206
REMARK INTER:                  -9.358
REMARK INTRA:                  -0.849
REMARK UNBOUND:                -0.849
REMARK  Name = 
REMARK  6 active torsions:
REMARK  status: ('A' for Active; 'I' for Inactive)
REMARK    1  A    between atoms: C_1  and  C_2
REMARK    2  A    between atoms: C_5  and  C_6
REMARK    3  A    between atoms: C_11  and  C_12
REMARK    4  A    between atoms: C_15  and  C_16
REMARK    5  A    between atoms: C_21  and  C_22
REMARK    6  A    between atoms: C_24  and  C_25
REMARK                            x       y       z     vdW  Elec       q    Type
REMARK                         _______ _______ _______ _____ _____    ______ ____
ROOT
ATOM      1  C   UNL     1      14.989  42.869  53.438  0.00  0.00    +0.000 A 
ATOM      2  C   UNL     1      14.346  41.721  53.915  0.00  0.00    +0.000 A 
ATOM      3  C   UNL     1      14.972  40.469  53.851  0.00  0.00    +0.000 A 
ATOM      4  C   UNL     1      16.256  40.331  53.309  0.00  0.00    +0.000 A 
ATOM      5  C   UNL     1      16.899  41.485  52.840  0.00  0.00    +0.000 A 
ATOM      6  C   UNL     1      16.276  42.737  52.905  0.00  0.00    +0.000 A 
ENDROOT
BRANCH   1  12
ATOM      7  C   UNL     1      13.278  48.677  53.463  0.00  0.00    +0.000 A 
ATOM      8  C   UNL     1      11.993  48.179  53.692  0.00  0.00    +0.000 A 
ATOM      9  C   UNL     1      11.767  46.798  53.786  0.00  0.00    +0.000 A 
ATOM     10  C   UNL     1      12.852  45.910  53.650  0.00  0.00    +0.000 A 
ATOM     11  C   UNL     1      12.987  44.495  53.686  0.00  0.00    +0.000 A 
ATOM     12  C   UNL     1      14.320  44.171  53.500  0.00  0.00    +0.000 A 
ATOM     13  N   UNL     1      14.989  45.367  53.343  0.00  0.00    +0.000 N 
ATOM     14  C   UNL     1      14.123  46.433  53.432  0.00  0.00    +0.000 A 
ATOM     15  C   UNL     1      14.372  47.808  53.336  0.00  0.00    +0.000 A 
ATOM     16  H   UNL     1      15.978  45.455  53.164  0.00  0.00    +0.000 HD
BRANCH   7  21
ATOM     17  C   UNL     1      14.741  52.576  51.690  0.00  0.00    +0.000 C 
ATOM     18  C   UNL     1      13.552  52.226  52.574  0.00  0.00    +0.000 C 
ATOM     19  C   UNL     1      13.891  52.276  54.072  0.00  0.00    +0.000 C 
ATOM     20  N   UNL     1      14.088  50.874  54.372  0.00  0.00    +0.000 N 
ATOM     21  C   UNL     1      13.509  50.142  53.358  0.00  0.00    +0.000 C 
ATOM     22  N   UNL     1      13.145  50.819  52.295  0.00  0.00    +0.000 NA
ATOM     23  H   UNL     1      13.856  50.587  55.314  0.00  0.00    +0.000 HD
ENDBRANCH   7  21
ENDBRANCH   1  12
BRANCH   4  24
ATOM     24  C   UNL     1      16.900  39.021  53.240  0.00  0.00    +0.000 A 
ATOM     25  C   UNL     1      16.756  37.835  53.938  0.00  0.00    +0.000 A 
ATOM     26  C   UNL     1      17.680  36.910  53.384  0.00  0.00    +0.000 A 
ATOM     27  C   UNL     1      18.029  35.571  53.627  0.00  0.00    +0.000 A 
ATOM     28  C   UNL     1      19.027  34.982  52.835  0.00  0.00    +0.000 A 
ATOM     29  C   UNL     1      19.671  35.710  51.823  0.00  0.00    +0.000 A 
ATOM     30  C   UNL     1      19.328  37.044  51.564  0.00  0.00    +0.000 A 
ATOM     31  C   UNL     1      18.335  37.596  52.370  0.00  0.00    +0.000 A 
ATOM     32  O   UNL     1      17.868  38.870  52.285  0.00  0.00    +0.000 OA
BRANCH  29  33
ATOM     33  C   UNL     1      20.727  35.068  50.999  0.00  0.00    +0.000 C 
ATOM     34  N   UNL     1      21.630  35.781  50.370  0.00  0.00    +0.000 NA
ATOM     35  C   UNL     1      22.474  34.777  49.656  0.00  0.00    +0.000 C 
ATOM     36  C   UNL     1      23.939  35.140  49.823  0.00  0.00    +0.000 C 
ATOM     37  C   UNL     1      22.123  33.416  50.272  0.00  0.00    +0.000 C 
ATOM     38  N   UNL     1      20.838  33.700  50.872  0.00  0.00    +0.000 N 
ATOM     39  H   UNL     1      20.603  33.153  51.693  0.00  0.00    +0.000 HD
ENDBRANCH  29  33
ENDBRANCH   4  24
TORSDOF 4
ENDMDL
MODEL 3
REMARK VINA RESULT:    -7.378      1.555     13.510
REMARK INTER + INTRA:          -9.952
REMARK INTER:                  -9.105
REMARK INTRA:                  -0.848
REMARK UNBOUND:                -0.849
REMARK  Name = 
REMARK  6 active torsions:
REMARK  status: ('A' for Active; 'I' for Inactive)
REMARK    1  A    between atoms: C_1  and  C_2
REMARK    2  A    between atoms: C_5  and  C_6
REMARK    3  A    between atoms: C_11  and  C_12
REMARK    4  A    between atoms: C_15  and  C_16
REMARK    5  A    between atoms: C_21  and  C_22
REMARK    6  A    between atoms: C_24  and  C_25
REMARK                            x       y       z     vdW  Elec       q    Type
REMARK                         _______ _______ _______ _____ _____    ______ ____
ROOT
ATOM      1  C   UNL     1      16.276  41.073  43.142  0.00  0.00    +0.000 A 
ATOM      2  C   UNL     1      15.189  40.865  43.999  0.00  0.00    +0.000 A 
ATOM      3  C   UNL     1      14.494  41.949  44.554  0.00  0.00    +0.000 A 
ATOM      4  C   UNL     1      14.868  43.268  44.267  0.00  0.00    +0.000 A 
ATOM      5  C   UNL     1      15.952  43.471  43.402  0.00  0.00    +0.000 A 
ATOM      6  C   UNL     1      16.645  42.389  42.846  0.00  0.00    +0.000 A 
ENDROOT
BRANCH   1  12
ATOM      7  C   UNL     1      19.561  37.102  39.964  0.00  0.00    +0.000 A 
ATOM      8  C   UNL     1      19.264  36.206  40.994  0.00  0.00    +0.000 A 
ATOM      9  C   UNL     1      18.478  36.604  42.086  0.00  0.00    +0.000 A 
ATOM     10  C   UNL     1      17.984  37.922  42.135  0.00  0.00    +0.000 A 
ATOM     11  C   UNL     1      17.184  38.648  43.060  0.00  0.00    +0.000 A 
ATOM     12  C   UNL     1      17.000  39.932  42.577  0.00  0.00    +0.000 A 
ATOM     13  N   UNL     1      17.685  39.995  41.381  0.00  0.00    +0.000 N 
ATOM     14  C   UNL     1      18.286  38.792  41.092  0.00  0.00    +0.000 A 
ATOM     15  C   UNL     1      19.067  38.415  39.992  0.00  0.00    +0.000 A 
ATOM     16  H   UNL     1      17.757  40.818  40.801  0.00  0.00    +0.000 HD
BRANCH   7  21
ATOM     17  C   UNL     1      22.446  37.501  36.500  0.00  0.00    +0.000 C 
ATOM     18  C   UNL     1      22.147  36.365  37.469  0.00  0.00    +0.000 C 
ATOM     19  C   UNL     1      21.011  35.453  36.985  0.00  0.00    +0.000 C 
ATOM     20  N   UNL     1      19.892  35.948  37.758  0.00  0.00    +0.000 N 
ATOM     21  C   UNL     1      20.399  36.675  38.814  0.00  0.00    +0.000 C 
ATOM     22  N   UNL     1      21.681  36.948  38.761  0.00  0.00    +0.000 NA
ATOM     23  H   UNL     1      19.179  35.268  37.990  0.00  0.00    +0.000 HD
ENDBRANCH   7  21
ENDBRANCH   1  12
BRANCH   4  24
ATOM     24  C   UNL     1      14.143  44.393  44.854  0.00  0.00    +0.000 A 
ATOM     25  C   UNL     1      13.035  44.506  45.676  0.00  0.00    +0.000 A 
ATOM     26  C   UNL     1      12.828  45.892  45.906  0.00  0.00    +0.000 A 
ATOM     27  C   UNL     1      11.903  46.662  46.632  0.00  0.00    +0.000 A 
ATOM     28  C   UNL     1      12.035  48.059  46.618  0.00  0.00    +0.000 A 
ATOM     29  C   UNL     1      13.063  48.682  45.894  0.00  0.00    +0.000 A 
ATOM     30  C   UNL     1      13.997  47.926  45.172  0.00  0.00    +0.000 A 
ATOM     31  C   UNL     1      13.835  46.544  45.206  0.00  0.00    +0.000 A 
ATOM     32  O   UNL     1      14.626  45.640  44.569  0.00  0.00    +0.000 OA
BRANCH  29  33
ATOM     33  C   UNL     1      13.181  50.163  45.891  0.00  0.00    +0.000 C 
ATOM     34  N   UNL     1      12.897  50.872  46.957  0.00  0.00    +0.000 NA
ATOM     35  C   UNL     1      13.122  52.288  46.541  0.00  0.00    +0.000 C 
ATOM     36  C   UNL     1      13.873  53.024  47.636  0.00  0.00    +0.000 C 
ATOM     37  C   UNL     1      13.905  52.221  45.222  0.00  0.00    +0.000 C 
ATOM     38  N   UNL     1      13.620  50.869  44.793  0.00  0.00    +0.000 N 
ATOM     39  H   UNL     1      14.336  50.424  44.230  0.00  0.00    +0.000 HD
ENDBRANCH  29  33
ENDBRANCH   4  24
TORSDOF 4
ENDMDL
