MODEL 1
REMARK VINA RESULT:    -6.704      0.000      0.000
REMARK INTER + INTRA:         -10.466
REMARK INTER:                  -9.326
REMARK INTRA:                  -1.140
REMARK UNBOUND:                -1.018
REMARK  Name = 
REMARK  7 active torsions:
REMARK  status: ('A' for Active; 'I' for Inactive)
REMARK    1  A    between atoms: C_4  and  C_5
REMARK    2  A    between atoms: C_5  and  C_6
REMARK    3  A    between atoms: C_6  and  C_7
REMARK    4  A    between atoms: C_7  and  N_8
REMARK    5  A    between atoms: C_11  and  N_12
REMARK    6  A    between atoms: N_21  and  C_22
REMARK    7  A    between atoms: C_22  and  C_23
REMARK                            x       y       z     vdW  Elec       q    Type
REMARK                         _______ _______ _______ _____ _____    ______ ____
ROOT
ATOM      1  N   UNL     1      20.442  35.149  51.467  0.00  0.00    +0.000 N 
ATOM      2  C   UNL     1      21.697  34.906  51.017  0.00  0.00    +0.000 A 
ATOM      3  N   UNL     1      22.336  35.551  50.068  0.00  0.00    +0.000 NA
ATOM      4  C   UNL     1      23.565  34.958  49.960  0.00  0.00    +0.000 A 
ATOM      5  C   UNL     1      24.631  35.266  49.102  0.00  0.00    +0.000 A 
ATOM      6  C   UNL     1      25.803  34.505  49.181  0.00  0.00    +0.000 A 
ATOM      7  C   UNL     1      25.910  33.456  50.094  0.00  0.00    +0.000 A 
ATOM      8  C   UNL     1      24.856  33.134  50.958  0.00  0.00    +0.000 A 
ATOM      9  C   UNL     1      23.693  33.911  50.864  0.00  0.00    +0.000 A 
ATOM     10  N   UNL     1      22.482  33.890  51.526  0.00  0.00    +0.000 N 
ATOM     11  H   UNL     1      20.149  34.830  52.381  0.00  0.00    +0.000 HD
ENDROOT
BRANCH   1  15
ATOM     12  N   UNL     1      17.666  38.026  50.069  0.00  0.00    +0.000 NA
ATOM     13  C   UNL     1      17.570  36.656  49.568  0.00  0.00    +0.000 C 
ATOM     14  C   UNL     1      18.940  35.980  49.648  0.00  0.00    +0.000 C 
ATOM     15  C   UNL     1      19.655  36.285  50.973  0.00  0.00    +0.000 C 
ATOM     16  C   UNL     1      18.713  36.851  52.034  0.00  0.00    +0.000 C 
ATOM     17  C   UNL     1      17.978  38.087  51.504  0.00  0.00    +0.000 C 
BRANCH  12  18
ATOM     18  C   UNL     1      16.540  38.884  49.688  0.00  0.00    +0.000 C 
BRANCH  18  19
ATOM     19  C   UNL     1      15.412  39.022  50.721  0.00  0.00    +0.000 C 
BRANCH  19  20
ATOM     20  C   UNL     1      14.643  40.330  50.514  0.00  0.00    +0.000 C 
BRANCH  20  24
ATOM     21  C   UNL     1      15.186  43.078  53.791  0.00  0.00    +0.000 A 
ATOM     22  C   UNL     1      13.945  42.481  53.580  0.00  0.00    +0.000 A 
ATOM     23  C   UNL     1      13.769  41.587  52.524  0.00  0.00    +0.000 A 
ATOM     24  C   UNL     1      14.838  41.277  51.671  0.00  0.00    +0.000 A 
ATOM     25  C   UNL     1      16.080  41.887  51.889  0.00  0.00    +0.000 A 
ATOM     26  C   UNL     1      16.253  42.782  52.946  0.00  0.00    +0.000 A 
ENDBRANCH  20  24
ENDBRANCH  19  20
ENDBRANCH  18  19
ENDBRANCH  12  18
ENDBRANCH   1  15
BRANCH  10  27
ATOM     27  C   UNL     1      22.137  32.962  52.590  0.00  0.00    +0.000 C 
BRANCH  27  28
ATOM     28  C   UNL     1      22.488  33.488  53.961  0.00  0.00    +0.000 A 
ATOM     29  C   UNL     1      23.796  33.403  54.462  0.00  0.00    +0.000 A 
ATOM     30  C   UNL     1      24.103  33.877  55.739  0.00  0.00    +0.000 A 
ATOM     31  C   UNL     1      23.104  34.431  56.535  0.00  0.00    +0.000 A 
ATOM     32  C   UNL     1      21.799  34.511  56.057  0.00  0.00    +0.000 A 
ATOM     33  C   UNL     1      21.491  34.040  54.780  0.00  0.00    +0.000 A 
ENDBRANCH  27  28
ENDBRANCH  10  27
TORSDOF 7
ENDMDL
MODEL 2
REMARK VINA RESULT:    -6.686      4.389      7.296
REMARK INTER + INTRA:         -10.441
REMARK INTER:                  -9.487
REMARK INTRA:                  -0.953
REMARK UNBOUND:                -1.018
REMARK  Name = 
REMARK  7 active torsions:
REMARK  status: ('A' for Active; 'I' for Inactive)
REMARK    1  A    between atoms: C_4  and  C_5
REMARK    2  A    between atoms: C_5  and  C_6
REMARK    3  A    between atoms: C_6  and  C_7
REMARK    4  A    between atoms: C_7  and  N_8
REMARK    5  A    between atoms: C_11  and  N_12
REMARK    6  A    between atoms: N_21  and  C_22
REMARK    7  A    between atoms: C_22  and  C_23
REMARK                            x       y       z     vdW  Elec       q    Type
REMARK                         _______ _______ _______ _____ _____    ______ ____
ROOT
ATOM      1  N   UNL     1      16.754  38.331  49.547  0.00  0.00    +0.000 N 
ATOM      2  C   UNL     1      16.861  38.517  50.884  0.00  0.00    +0.000 A 
ATOM      3  N   UNL     1      16.699  39.643  51.541  0.00  0.00    +0.000 NA
ATOM      4  C   UNL     1      16.904  39.350  52.863  0.00  0.00    +0.000 A 
ATOM      5  C   UNL     1      16.847  40.193  53.982  0.00  0.00    +0.000 A 
ATOM      6  C   UNL     1      17.098  39.652  55.248  0.00  0.00    +0.000 A 
ATOM      7  C   UNL     1      17.403  38.299  55.396  0.00  0.00    +0.000 A 
ATOM      8  C   UNL     1      17.465  37.442  54.291  0.00  0.00    +0.000 A 
ATOM      9  C   UNL     1      17.207  38.004  53.033  0.00  0.00    +0.000 A 
ATOM     10  N   UNL     1      17.182  37.491  51.751  0.00  0.00    +0.000 N 
ATOM     11  H   UNL     1      16.584  37.409  49.165  0.00  0.00    +0.000 HD
ENDROOT
BRANCH   1  15
ATOM     12  N   UNL     1      15.235  40.993  46.624  0.00  0.00    +0.000 NA
ATOM     13  C   UNL     1      15.772  39.705  46.189  0.00  0.00    +0.000 C 
ATOM     14  C   UNL     1      16.802  39.206  47.204  0.00  0.00    +0.000 C 
ATOM     15  C   UNL     1      16.330  39.413  48.651  0.00  0.00    +0.000 C 
ATOM     16  C   UNL     1      14.832  39.701  48.747  0.00  0.00    +0.000 C 
ATOM     17  C   UNL     1      14.451  40.894  47.863  0.00  0.00    +0.000 C 
BRANCH  12  18
ATOM     18  C   UNL     1      14.549  41.744  45.567  0.00  0.00    +0.000 C 
BRANCH  18  19
ATOM     19  C   UNL     1      14.555  43.273  45.708  0.00  0.00    +0.000 C 
BRANCH  19  20
ATOM     20  C   UNL     1      13.152  43.795  46.031  0.00  0.00    +0.000 C 
BRANCH  20  24
ATOM     21  C   UNL     1      13.003  48.103  46.014  0.00  0.00    +0.000 A 
ATOM     22  C   UNL     1      11.985  47.373  46.625  0.00  0.00    +0.000 A 
ATOM     23  C   UNL     1      12.036  45.979  46.637  0.00  0.00    +0.000 A 
ATOM     24  C   UNL     1      13.109  45.302  46.041  0.00  0.00    +0.000 A 
ATOM     25  C   UNL     1      14.124  46.046  45.426  0.00  0.00    +0.000 A 
ATOM     26  C   UNL     1      14.071  47.441  45.414  0.00  0.00    +0.000 A 
ENDBRANCH  20  24
ENDBRANCH  19  20
ENDBRANCH  18  19
ENDBRANCH  12  18
ENDBRANCH   1  15
BRANCH  10  27
ATOM     27  C   UNL     1      17.428  36.099  51.413  0.00  0.00    +0.000 C 
BRANCH  27  28
ATOM     28  C   UNL     1      18.818  35.866  50.871  0.00  0.00    +0.000 A 
ATOM     29  C   UNL     1      19.956  36.261  51.589  0.00  0.00    +0.000 A 
ATOM     30  C   UNL     1      21.235  36.057  51.068  0.00  0.00    +0.000 A 
ATOM     31  C   UNL     1      21.391  35.464  49.818  0.00  0.00    +0.000 A 
ATOM     32  C   UNL     1      20.271  35.077  49.088  0.00  0.00    +0.000 A 
ATOM     33  C   UNL     1      18.992  35.279  49.609  0.00  0.00    +0.000 A 
ENDBRANCH  27  28
ENDBRANCH  10  27
TORSDOF 7
ENDMDL
MODEL 3
REMARK VINA RESULT:    -6.562     10.604     14.169
REMARK INTER + INTRA:         -10.265
REMARK INTER:                  -9.247
REMARK INTRA:                  -1.018
REMARK UNBOUND:                -1.018
REMARK  Name = 
REMARK  7 active torsions:
REMARK  status: ('A' for Active; 'I' for Inactive)
REMARK    1  A    between atoms: C_4  and  C_5
REMARK    2  A    between atoms: C_5  and  C_6
REMARK    3  A    between atoms: C_6  and  C_7
REMARK    4  A    between atoms: C_7  and  N_8
REMARK    5  A    between atoms: C_11  and  N_12
REMARK    6  A    between atoms: N_21  and  C_22
REMARK    7  A    between atoms: C_22  and  C_23
REMARK                            x       y       z     vdW  Elec       q    Type
REMARK                         _______ _______ _______ _____ _____    ______ ____
ROOT
ATOM      1  N   UNL     1      14.546  45.117  45.048  0.00  0.00    +0.000 N 
ATOM      2  C   UNL     1      14.241  44.853  43.754  0.00  0.00    +0.000 A 
ATOM      3  N   UNL     1      13.167  45.235  43.101  0.00  0.00    +0.000 NA
ATOM      4  C   UNL     1      13.293  44.739  41.831  0.00  0.00    +0.000 A 
ATOM      5  C   UNL     1      12.425  44.863  40.736  0.00  0.00    +0.000 A 
ATOM      6  C   UNL     1      12.777  44.259  39.524  0.00  0.00    +0.000 A 
ATOM      7  C   UNL     1      13.969  43.543  39.405  0.00  0.00    +0.000 A 
ATOM      8  C   UNL     1      14.847  43.409  40.487  0.00  0.00    +0.000 A 
ATOM      9  C   UNL     1      14.477  44.025  41.691  0.00  0.00    +0.000 A 
ATOM     10  N   UNL     1      15.065  44.104  42.937  0.00  0.00    +0.000 N 
ATOM     11  H   UNL     1      15.502  45.062  45.375  0.00  0.00    +0.000 HD
ENDROOT
BRANCH   1  15
ATOM     12  N   UNL     1      11.785  47.747  46.889  0.00  0.00    +0.000 NA
ATOM     13  C   UNL     1      12.333  48.107  45.583  0.00  0.00    +0.000 C 
ATOM     14  C   UNL     1      13.699  47.444  45.397  0.00  0.00    +0.000 C 
ATOM     15  C   UNL     1      13.700  45.985  45.875  0.00  0.00    +0.000 C 
ATOM     16  C   UNL     1      12.290  45.424  46.060  0.00  0.00    +0.000 C 
ATOM     17  C   UNL     1      11.471  46.315  47.001  0.00  0.00    +0.000 C 
BRANCH  12  18
ATOM     18  C   UNL     1      10.689  48.612  47.339  0.00  0.00    +0.000 C 
BRANCH  18  19
ATOM     19  C   UNL     1      10.722  50.064  46.839  0.00  0.00    +0.000 C 
BRANCH  19  20
ATOM     20  C   UNL     1      11.133  51.017  47.965  0.00  0.00    +0.000 C 
BRANCH  20  24
ATOM     21  C   UNL     1      15.067  52.656  47.314  0.00  0.00    +0.000 A 
ATOM     22  C   UNL     1      14.434  52.828  48.544  0.00  0.00    +0.000 A 
ATOM     23  C   UNL     1      13.164  52.293  48.758  0.00  0.00    +0.000 A 
ATOM     24  C   UNL     1      12.516  51.574  47.743  0.00  0.00    +0.000 A 
ATOM     25  C   UNL     1      13.159  51.412  46.509  0.00  0.00    +0.000 A 
ATOM     26  C   UNL     1      14.430  51.949  46.297  0.00  0.00    +0.000 A 
ENDBRANCH  20  24
ENDBRANCH  19  20
ENDBRANCH  18  19
ENDBRANCH  12  18
ENDBRANCH   1  15
BRANCH  10  27
ATOM     27  C   UNL     1      16.345  43.511  43.286  0.00  0.00    +0.000 C 
BRANCH  27  28
ATOM     28  C   UNL     1      16.238  42.044  43.625  0.00  0.00    +0.000 A 
ATOM     29  C   UNL     1      15.722  41.616  44.858  0.00  0.00    +0.000 A 
ATOM     30  C   UNL     1      15.646  40.256  45.165  0.00  0.00    +0.000 A 
ATOM     31  C   UNL     1      16.095  39.308  44.250  0.00  0.00    +0.000 A 
ATOM     32  C   UNL     1      16.620  39.717  43.027  0.00  0.00    +0.000 A 
ATOM     33  C   UNL     1      16.695  41.076  42.717  0.00  0.00    +0.000 A 
ENDBRANCH  27  28
ENDBRANCH  10  27
TORSDOF 7
ENDMDL
