MODEL 1
REMARK VINA RESULT:    -7.109      0.000      0.000
REMARK INTER + INTRA:          -9.377
REMARK INTER:                  -8.724
REMARK INTRA:                  -0.653
REMARK UNBOUND:                -0.606
REMARK  Name = 
REMARK  4 active torsions:
REMARK  status: ('A' for Active; 'I' for Inactive)
REMARK    1  A    between atoms: C_4  and  C_5
REMARK    2  A    between atoms: C_9  and  O_10
REMARK    3  A    between atoms: O_10  and  C_11
REMARK    4  A    between atoms: C_11  and  C_12
REMARK                            x       y       z     vdW  Elec       q    Type
REMARK                         _______ _______ _______ _____ _____    ______ ____
ROOT
ATOM      1  C   UNL     1      13.523  45.756  45.555  0.00  0.00    +0.000 A 
ATOM      2  C   UNL     1      12.348  45.624  46.306  0.00  0.00    +0.000 A 
ATOM      3  C   UNL     1      11.673  46.753  46.773  0.00  0.00    +0.000 A 
ATOM      4  C   UNL     1      12.161  48.031  46.495  0.00  0.00    +0.000 A 
ATOM      5  C   UNL     1      13.328  48.184  45.748  0.00  0.00    +0.000 A 
ATOM      6  C   UNL     1      14.007  47.048  45.294  0.00  0.00    +0.000 A 
ENDROOT
BRANCH   1  10
ATOM      7  O   UNL     1      15.852  43.121  42.276  0.00  0.00    +0.000 OA
ATOM      8  C   UNL     1      15.406  43.236  43.410  0.00  0.00    +0.000 A 
ATOM      9  C   UNL     1      14.712  44.463  43.831  0.00  0.00    +0.000 A 
ATOM     10  C   UNL     1      14.236  44.554  45.082  0.00  0.00    +0.000 A 
ATOM     11  O   UNL     1      14.337  43.545  46.029  0.00  0.00    +0.000 OA
ATOM     12  C   UNL     1      14.983  42.386  45.681  0.00  0.00    +0.000 A 
ATOM     13  C   UNL     1      15.083  41.395  46.657  0.00  0.00    +0.000 A 
ATOM     14  C   UNL     1      15.729  40.192  46.363  0.00  0.00    +0.000 A 
ATOM     15  C   UNL     1      16.274  39.980  45.094  0.00  0.00    +0.000 A 
ATOM     16  C   UNL     1      16.174  40.970  44.116  0.00  0.00    +0.000 A 
ATOM     17  C   UNL     1      15.527  42.172  44.418  0.00  0.00    +0.000 A 
ENDBRANCH   1  10
BRANCH   5  18
ATOM     18  O   UNL     1      13.925  49.371  45.421  0.00  0.00    +0.000 OA
BRANCH  18  19
ATOM     19  C   UNL     1      15.185  49.332  44.743  0.00  0.00    +0.000 C 
BRANCH  19  20
ATOM     20  C   UNL     1      16.048  50.547  44.998  0.00  0.00    +0.000 A 
ATOM     21  C   UNL     1      17.301  50.696  44.386  0.00  0.00    +0.000 A 
ATOM     22  C   UNL     1      18.071  51.838  44.612  0.00  0.00    +0.000 A 
ATOM     23  C   UNL     1      17.593  52.850  45.442  0.00  0.00    +0.000 A 
ATOM     24  C   UNL     1      16.342  52.722  46.043  0.00  0.00    +0.000 A 
ATOM     25  C   UNL     1      15.571  51.580  45.818  0.00  0.00    +0.000 A 
ENDBRANCH  19  20
ENDBRANCH  18  19
ENDBRANCH   5  18
TORSDOF 4
ENDMDL
MODEL 2
REMARK VINA RESULT:    -7.016      1.745      8.300
REMARK INTER + INTRA:          -9.263
REMARK INTER:                  -8.657
REMARK INTRA:                  -0.606
REMARK UNBOUND:                -0.606
REMARK  Name = 
REMARK  4 active torsions:
REMARK  status: ('A' for Active; 'I' for Inactive)
REMARK    1  A    between atoms: C_4  and  C_5
REMARK    2  A    between atoms: C_9  and  O_10
REMARK    3  A    between atoms: O_10  and  C_11
REMARK    4  A    between atoms: C_11  and  C_12
REMARK                            x       y       z     vdW  Elec       q    Type
REMARK                         _______ _______ _______ _____ _____    ______ ____
ROOT
ATOM      1  C   UNL     1      13.753  47.111  45.574  0.00  0.00    +0.000 A 
ATOM      2  C   UNL     1      12.542  47.233  46.267  0.00  0.00    +0.000 A 
ATOM      3  C   UNL     1      11.888  46.101  46.758  0.00  0.00    +0.000 A 
ATOM      4  C   UNL     1      12.435  44.832  46.564  0.00  0.00    +0.000 A 
ATOM      5  C   UNL     1      13.640  44.689  45.877  0.00  0.00    +0.000 A 
ATOM      6  C   UNL     1      14.284  45.826  45.378  0.00  0.00    +0.000 A 
ENDROOT
BRANCH   1  10
ATOM      7  O   UNL     1      17.532  50.009  44.905  0.00  0.00    +0.000 OA
ATOM      8  C   UNL     1      16.346  49.767  44.724  0.00  0.00    +0.000 A 
ATOM      9  C   UNL     1      15.729  48.546  45.266  0.00  0.00    +0.000 A 
ATOM     10  C   UNL     1      14.426  48.313  45.046  0.00  0.00    +0.000 A 
ATOM     11  O   UNL     1      13.590  49.169  44.342  0.00  0.00    +0.000 OA
ATOM     12  C   UNL     1      14.125  50.316  43.813  0.00  0.00    +0.000 A 
ATOM     13  C   UNL     1      13.265  51.149  43.099  0.00  0.00    +0.000 A 
ATOM     14  C   UNL     1      13.752  52.332  42.537  0.00  0.00    +0.000 A 
ATOM     15  C   UNL     1      15.095  52.682  42.690  0.00  0.00    +0.000 A 
ATOM     16  C   UNL     1      15.956  51.849  43.406  0.00  0.00    +0.000 A 
ATOM     17  C   UNL     1      15.464  50.666  43.965  0.00  0.00    +0.000 A 
ENDBRANCH   1  10
BRANCH   5  18
ATOM     18  O   UNL     1      14.275  43.509  45.601  0.00  0.00    +0.000 OA
BRANCH  18  19
ATOM     19  C   UNL     1      15.204  43.478  44.514  0.00  0.00    +0.000 C 
BRANCH  19  20
ATOM     20  C   UNL     1      15.711  42.090  44.190  0.00  0.00    +0.000 A 
ATOM     21  C   UNL     1      16.263  41.787  42.937  0.00  0.00    +0.000 A 
ATOM     22  C   UNL     1      16.752  40.507  42.667  0.00  0.00    +0.000 A 
ATOM     23  C   UNL     1      16.705  39.520  43.649  0.00  0.00    +0.000 A 
ATOM     24  C   UNL     1      16.173  39.812  44.903  0.00  0.00    +0.000 A 
ATOM     25  C   UNL     1      15.684  41.092  45.175  0.00  0.00    +0.000 A 
ENDBRANCH  19  20
ENDBRANCH  18  19
ENDBRANCH   5  18
TORSDOF 4
ENDMDL
MODEL 3
REMARK VINA RESULT:    -7.009      1.439      2.616
REMARK INTER + INTRA:          -9.254
REMARK INTER:                  -8.552
REMARK INTRA:                  -0.702
REMARK UNBOUND:                -0.606
REMARK  Name = 
REMARK  4 active torsions:
REMARK  status: ('A' for Active; 'I' for Inactive)
REMARK    1  A    between atoms: C_4  and  C_5
REMARK    2  A    between atoms: C_9  and  O_10
REMARK    3  A    between atoms: O_10  and  C_11
REMARK    4  A    between atoms: C_11  and  C_12
REMARK                            x       y       z     vdW  Elec       q    Type
REMARK                         _______ _______ _______ _____ _____    ______ ____
ROOT
ATOM      1  C   UNL     1      13.777  44.947  45.746  0.00  0.00    +0.000 A 
ATOM      2  C   UNL     1      12.583  45.071  46.468  0.00  0.00    +0.000 A 
ATOM      3  C   UNL     1      12.008  46.325  46.681  0.00  0.00    +0.000 A 
ATOM      4  C   UNL     1      12.618  47.474  46.173  0.00  0.00    +0.000 A 
ATOM      5  C   UNL     1      13.806  47.373  45.451  0.00  0.00    +0.000 A 
ATOM      6  C   UNL     1      14.383  46.113  45.253  0.00  0.00    +0.000 A 
ENDROOT
BRANCH   1  10
ATOM      7  O   UNL     1      15.052  40.520  47.124  0.00  0.00    +0.000 OA
ATOM      8  C   UNL     1      15.024  41.387  46.260  0.00  0.00    +0.000 A 
ATOM      9  C   UNL     1      14.396  42.693  46.515  0.00  0.00    +0.000 A 
ATOM     10  C   UNL     1      14.383  43.617  45.543  0.00  0.00    +0.000 A 
ATOM     11  O   UNL     1      14.948  43.437  44.288  0.00  0.00    +0.000 OA
ATOM     12  C   UNL     1      15.538  42.231  44.005  0.00  0.00    +0.000 A 
ATOM     13  C   UNL     1      16.084  42.072  42.732  0.00  0.00    +0.000 A 
ATOM     14  C   UNL     1      16.698  40.866  42.385  0.00  0.00    +0.000 A 
ATOM     15  C   UNL     1      16.769  39.822  43.310  0.00  0.00    +0.000 A 
ATOM     16  C   UNL     1      16.223  39.980  44.585  0.00  0.00    +0.000 A 
ATOM     17  C   UNL     1      15.609  41.189  44.926  0.00  0.00    +0.000 A 
ENDBRANCH   1  10
BRANCH   5  18
ATOM     18  O   UNL     1      14.515  48.413  44.917  0.00  0.00    +0.000 OA
BRANCH  18  19
ATOM     19  C   UNL     1      13.824  49.636  44.645  0.00  0.00    +0.000 C 
BRANCH  19  20
ATOM     20  C   UNL     1      14.204  50.767  45.575  0.00  0.00    +0.000 A 
ATOM     21  C   UNL     1      13.322  51.227  46.565  0.00  0.00    +0.000 A 
ATOM     22  C   UNL     1      13.702  52.253  47.432  0.00  0.00    +0.000 A 
ATOM     23  C   UNL     1      14.970  52.822  47.329  0.00  0.00    +0.000 A 
ATOM     24  C   UNL     1      15.861  52.363  46.361  0.00  0.00    +0.000 A 
ATOM     25  C   UNL     1      15.483  51.337  45.492  0.00  0.00    +0.000 A 
ENDBRANCH  19  20
ENDBRANCH  18  19
ENDBRANCH   5  18
TORSDOF 4
ENDMDL
