MODEL 1
REMARK VINA RESULT:    -5.269      0.000      0.000
REMARK INTER + INTRA:          -8.504
REMARK INTER:                  -7.145
REMARK INTRA:                  -1.359
REMARK UNBOUND:                -1.695
REMARK  Name = 
REMARK  6 active torsions:
REMARK  status: ('A' for Active; 'I' for Inactive)
REMARK    1  A    between atoms: C_1  and  N_2
REMARK    2  A    between atoms: N_2  and  C_3
REMARK    3  A    between atoms: N_2  and  C_12
REMARK    4  A    between atoms: C_3  and  C_4
REMARK    5  A    between atoms: C_5  and  C_6
REMARK    6  A    between atoms: C_12  and  C_13
REMARK                            x       y       z     vdW  Elec       q    Type
REMARK                         _______ _______ _______ _____ _____    ______ ____
ROOT
ATOM      1  C   UNL     1      22.782  33.360  49.512  0.00  0.00    +0.000 C 
ATOM      2  N   UNL     1      22.867  34.038  50.805  0.00  0.00    +0.000 NA
ENDROOT
BRANCH   2   3
ATOM      3  C   UNL     1      22.537  35.461  50.692  0.00  0.00    +0.000 C 
BRANCH   3   4
ATOM      4  C   UNL     1      21.066  35.794  50.615  0.00  0.00    +0.000 C 
ATOM      5  C   UNL     1      20.408  36.705  51.352  0.00  0.00    +0.000 C 
BRANCH   5   6
ATOM      6  C   UNL     1      18.985  37.015  51.282  0.00  0.00    +0.000 C 
ATOM      7  C   UNL     1      18.322  37.336  52.408  0.00  0.00    +0.000 C 
ATOM      8  C   UNL     1      16.851  37.637  52.464  0.00  0.00    +0.000 C 
ATOM      9  C   UNL     1      16.106  37.237  51.193  0.00  0.00    +0.000 C 
ATOM     10  C   UNL     1      16.894  37.637  49.954  0.00  0.00    +0.000 C 
ATOM     11  C   UNL     1      18.279  36.981  49.942  0.00  0.00    +0.000 C 
ENDBRANCH   5   6
ENDBRANCH   3   4
ENDBRANCH   2   3
BRANCH   2  12
ATOM     12  C   UNL     1      22.103  33.349  51.864  0.00  0.00    +0.000 C 
BRANCH  12  13
ATOM     13  C   UNL     1      22.490  33.629  53.312  0.00  0.00    +0.000 A 
ATOM     14  C   UNL     1      23.832  33.402  53.680  0.00  0.00    +0.000 A 
ATOM     15  C   UNL     1      24.267  33.605  54.984  0.00  0.00    +0.000 A 
ATOM     16  C   UNL     1      23.370  34.051  55.948  0.00  0.00    +0.000 A 
ATOM     17  C   UNL     1      22.034  34.315  55.620  0.00  0.00    +0.000 A 
ATOM     18  C   UNL     1      21.160  34.784  56.615  0.00  0.00    +0.000 A 
ATOM     19  C   UNL     1      19.830  35.077  56.325  0.00  0.00    +0.000 A 
ATOM     20  C   UNL     1      19.360  34.911  55.032  0.00  0.00    +0.000 A 
ATOM     21  C   UNL     1      20.217  34.444  54.031  0.00  0.00    +0.000 A 
ATOM     22  C   UNL     1      21.572  34.120  54.290  0.00  0.00    +0.000 A 
ENDBRANCH  12  13
ENDBRANCH   2  12
TORSDOF 5
ENDMDL
MODEL 2
REMARK VINA RESULT:    -5.069      9.514     14.527
REMARK INTER + INTRA:          -8.245
REMARK INTER:                  -7.652
REMARK INTRA:                  -0.593
REMARK UNBOUND:                -1.695
REMARK  Name = 
REMARK  6 active torsions:
REMARK  status: ('A' for Active; 'I' for Inactive)
REMARK    1  A    between atoms: C_1  and  N_2
REMARK    2  A    between atoms: N_2  and  C_3
REMARK    3  A    between atoms: N_2  and  C_12
REMARK    4  A    between atoms: C_3  and  C_4
REMARK    5  A    between atoms: C_5  and  C_6
REMARK    6  A    between atoms: C_12  and  C_13
REMARK                            x       y       z     vdW  Elec       q    Type
REMARK                         _______ _______ _______ _____ _____    ______ ____
ROOT
ATOM      1  C   UNL     1      13.670  44.777  42.684  0.00  0.00    +0.000 C 
ATOM      2  N   UNL     1      14.542  44.162  43.683  0.00  0.00    +0.000 NA
ENDROOT
BRANCH   2   3
ATOM      3  C   UNL     1      15.802  43.703  43.092  0.00  0.00    +0.000 C 
BRANCH   3   4
ATOM      4  C   UNL     1      16.327  42.382  43.602  0.00  0.00    +0.000 C 
ATOM      5  C   UNL     1      15.694  41.529  44.425  0.00  0.00    +0.000 C 
BRANCH   5   6
ATOM      6  C   UNL     1      16.209  40.260  44.924  0.00  0.00    +0.000 C 
ATOM      7  C   UNL     1      16.213  40.022  46.249  0.00  0.00    +0.000 C 
ATOM      8  C   UNL     1      16.751  38.769  46.880  0.00  0.00    +0.000 C 
ATOM      9  C   UNL     1      17.587  37.924  45.922  0.00  0.00    +0.000 C 
ATOM     10  C   UNL     1      16.920  37.835  44.556  0.00  0.00    +0.000 C 
ATOM     11  C   UNL     1      16.722  39.225  43.943  0.00  0.00    +0.000 C 
ENDBRANCH   5   6
ENDBRANCH   3   4
ENDBRANCH   2   3
BRANCH   2  12
ATOM     12  C   UNL     1      14.737  45.014  44.874  0.00  0.00    +0.000 C 
BRANCH  12  13
ATOM     13  C   UNL     1      13.500  45.399  45.678  0.00  0.00    +0.000 A 
ATOM     14  C   UNL     1      12.753  44.354  46.258  0.00  0.00    +0.000 A 
ATOM     15  C   UNL     1      11.596  44.610  46.985  0.00  0.00    +0.000 A 
ATOM     16  C   UNL     1      11.167  45.921  47.156  0.00  0.00    +0.000 A 
ATOM     17  C   UNL     1      11.894  46.992  46.620  0.00  0.00    +0.000 A 
ATOM     18  C   UNL     1      11.441  48.305  46.830  0.00  0.00    +0.000 A 
ATOM     19  C   UNL     1      12.146  49.398  46.330  0.00  0.00    +0.000 A 
ATOM     20  C   UNL     1      13.318  49.189  45.620  0.00  0.00    +0.000 A 
ATOM     21  C   UNL     1      13.779  47.887  45.402  0.00  0.00    +0.000 A 
ATOM     22  C   UNL     1      13.083  46.750  45.880  0.00  0.00    +0.000 A 
ENDBRANCH  12  13
ENDBRANCH   2  12
TORSDOF 5
ENDMDL
MODEL 3
REMARK VINA RESULT:    -4.903     11.845     14.483
REMARK INTER + INTRA:          -8.032
REMARK INTER:                  -6.337
REMARK INTRA:                  -1.695
REMARK UNBOUND:                -1.695
REMARK  Name = 
REMARK  6 active torsions:
REMARK  status: ('A' for Active; 'I' for Inactive)
REMARK    1  A    between atoms: C_1  and  N_2
REMARK    2  A    between atoms: N_2  and  C_3
REMARK    3  A    between atoms: N_2  and  C_12
REMARK    4  A    between atoms: C_3  and  C_4
REMARK    5  A    between atoms: C_5  and  C_6
REMARK    6  A    between atoms: C_12  and  C_13
REMARK                            x       y       z     vdW  Elec       q    Type
REMARK                         _______ _______ _______ _____ _____    ______ ____
ROOT
ATOM      1  C   UNL     1      12.040  39.447  45.616  0.00  0.00    +0.000 C 
ATOM      2  N   UNL     1      12.884  40.622  45.402  0.00  0.00    +0.000 NA
ENDROOT
BRANCH   2   3
ATOM      3  C   UNL     1      13.314  41.217  46.670  0.00  0.00    +0.000 C 
BRANCH   3   4
ATOM      4  C   UNL     1      13.466  42.720  46.675  0.00  0.00    +0.000 C 
ATOM      5  C   UNL     1      12.724  43.606  45.990  0.00  0.00    +0.000 C 
BRANCH   5   6
ATOM      6  C   UNL     1      12.882  45.055  45.989  0.00  0.00    +0.000 C 
ATOM      7  C   UNL     1      11.977  45.820  46.628  0.00  0.00    +0.000 C 
ATOM      8  C   UNL     1      12.017  47.321  46.665  0.00  0.00    +0.000 C 
ATOM      9  C   UNL     1      12.985  47.923  45.649  0.00  0.00    +0.000 C 
ATOM     10  C   UNL     1      14.297  47.150  45.628  0.00  0.00    +0.000 C 
ATOM     11  C   UNL     1      14.067  45.676  45.278  0.00  0.00    +0.000 C 
ENDBRANCH   5   6
ENDBRANCH   3   4
ENDBRANCH   2   3
BRANCH   2  12
ATOM     12  C   UNL     1      14.005  40.361  44.475  0.00  0.00    +0.000 C 
BRANCH  12  13
ATOM     13  C   UNL     1      14.663  41.562  43.806  0.00  0.00    +0.000 A 
ATOM     14  C   UNL     1      16.014  41.819  44.118  0.00  0.00    +0.000 A 
ATOM     15  C   UNL     1      16.686  42.907  43.575  0.00  0.00    +0.000 A 
ATOM     16  C   UNL     1      16.023  43.759  42.699  0.00  0.00    +0.000 A 
ATOM     17  C   UNL     1      14.690  43.526  42.340  0.00  0.00    +0.000 A 
ATOM     18  C   UNL     1      14.057  44.396  41.436  0.00  0.00    +0.000 A 
ATOM     19  C   UNL     1      12.739  44.188  41.040  0.00  0.00    +0.000 A 
ATOM     20  C   UNL     1      12.038  43.100  41.538  0.00  0.00    +0.000 A 
ATOM     21  C   UNL     1      12.654  42.227  42.440  0.00  0.00    +0.000 A 
ATOM     22  C   UNL     1      13.987  42.414  42.879  0.00  0.00    +0.000 A 
ENDBRANCH  12  13
ENDBRANCH   2  12
TORSDOF 5
ENDMDL
