MODEL 1
REMARK VINA RESULT:    -7.205      0.000      0.000
REMARK INTER + INTRA:          -9.166
REMARK INTER:                  -8.866
REMARK INTRA:                  -0.301
REMARK UNBOUND:                -0.276
REMARK  Name = 
REMARK  5 active torsions:
REMARK  status: ('A' for Active; 'I' for Inactive)
REMARK    1  A    between atoms: C_1  and  S_2
REMARK    2  A    between atoms: S_2  and  N_5
REMARK    3  A    between atoms: C_8  and  C_9
REMARK    4  A    between atoms: C_13  and  C_14
REMARK    5  A    between atoms: C_19  and  N_20
REMARK                            x       y       z     vdW  Elec       q    Type
REMARK                         _______ _______ _______ _____ _____    ______ ____
ROOT
ATOM      1  C   UNL     1      16.554  39.210  46.673  0.00  0.00    +0.000 A 
ATOM      2  C   UNL     1      16.436  38.246  47.655  0.00  0.00    +0.000 A 
ATOM      3  C   UNL     1      17.401  37.246  47.367  0.00  0.00    +0.000 A 
ATOM      4  C   UNL     1      17.793  36.031  47.953  0.00  0.00    +0.000 A 
ATOM      5  C   UNL     1      18.813  35.298  47.324  0.00  0.00    +0.000 A 
ATOM      6  C   UNL     1      19.458  35.758  46.168  0.00  0.00    +0.000 A 
ATOM      7  C   UNL     1      19.082  36.971  45.585  0.00  0.00    +0.000 A 
ATOM      8  C   UNL     1      18.053  37.672  46.215  0.00  0.00    +0.000 A 
ATOM      9  O   UNL     1      17.547  38.863  45.799  0.00  0.00    +0.000 OA
ENDROOT
BRANCH   5  10
ATOM     10  C   UNL     1      19.214  34.003  47.904  0.00  0.00    +0.000 C 
ATOM     11  O   UNL     1      18.805  32.984  47.354  0.00  0.00    +0.000 OA
ATOM     12  N   UNL     1      20.023  34.026  49.040  0.00  0.00    +0.000 N 
ATOM     13  C   UNL     1      20.642  35.250  49.552  0.00  0.00    +0.000 C 
ATOM     14  C   UNL     1      21.693  34.982  50.620  0.00  0.00    +0.000 C 
ATOM     15  C   UNL     1      21.123  34.055  51.711  0.00  0.00    +0.000 C 
ATOM     16  C   UNL     1      20.453  32.793  51.134  0.00  0.00    +0.000 C 
ATOM     17  C   UNL     1      20.466  32.756  49.609  0.00  0.00    +0.000 C 
BRANCH  15  18
ATOM     18  N   UNL     1      22.117  33.748  52.760  0.00  0.00    +0.000 N 
ATOM     19  C   UNL     1      23.257  33.013  52.401  0.00  0.00    +0.000 C 
ATOM     20  O   UNL     1      23.423  32.533  51.281  0.00  0.00    +0.000 OA
ATOM     21  O   UNL     1      24.199  32.787  53.358  0.00  0.00    +0.000 OA
ATOM     22  C   UNL     1      24.279  33.678  54.468  0.00  0.00    +0.000 C 
ATOM     23  C   UNL     1      22.932  33.995  55.017  0.00  0.00    +0.000 A 
ATOM     24  C   UNL     1      22.762  34.313  56.372  0.00  0.00    +0.000 A 
ATOM     25  C   UNL     1      21.508  34.671  56.854  0.00  0.00    +0.000 A 
ATOM     26  C   UNL     1      20.426  34.718  55.983  0.00  0.00    +0.000 A 
ATOM     27  C   UNL     1      20.599  34.416  54.627  0.00  0.00    +0.000 A 
ATOM     28  C   UNL     1      21.859  34.061  54.127  0.00  0.00    +0.000 A 
ENDBRANCH  15  18
ENDBRANCH   5  10
BRANCH   1  32
ATOM     29  N   UNL     1      13.879  42.234  45.191  0.00  0.00    +0.000 NA
ATOM     30  C   UNL     1      13.834  41.933  46.635  0.00  0.00    +0.000 C 
ATOM     31  C   UNL     1      14.452  40.576  46.947  0.00  0.00    +0.000 C 
ATOM     32  C   UNL     1      15.876  40.515  46.390  0.00  0.00    +0.000 C 
ATOM     33  C   UNL     1      15.915  40.861  44.889  0.00  0.00    +0.000 C 
ATOM     34  C   UNL     1      14.565  41.273  44.316  0.00  0.00    +0.000 C 
BRANCH  29  36
ATOM     35  C   UNL     1      15.137  44.055  43.640  0.00  0.00    +0.000 C 
ATOM     36  S   UNL     1      13.729  43.848  44.715  0.00  0.00    +0.000 S 
ATOM     37  O   UNL     1      13.943  44.678  45.880  0.00  0.00    +0.000 OA
ATOM     38  O   UNL     1      12.537  43.983  43.902  0.00  0.00    +0.000 OA
ENDBRANCH  29  36
ENDBRANCH   1  32
TORSDOF 4
ENDMDL
MODEL 2
REMARK VINA RESULT:    -6.774      4.032      7.934
REMARK INTER + INTRA:          -8.634
REMARK INTER:                  -8.443
REMARK INTRA:                  -0.191
REMARK UNBOUND:                -0.276
REMARK  Name = 
REMARK  5 active torsions:
REMARK  status: ('A' for Active; 'I' for Inactive)
REMARK    1  A    between atoms: C_1  and  S_2
REMARK    2  A    between atoms: S_2  and  N_5
REMARK    3  A    between atoms: C_8  and  C_9
REMARK    4  A    between atoms: C_13  and  C_14
REMARK    5  A    between atoms: C_19  and  N_20
REMARK                            x       y       z     vdW  Elec       q    Type
REMARK                         _______ _______ _______ _____ _____    ______ ____
ROOT
ATOM      1  C   UNL     1      13.761  46.061  45.612  0.00  0.00    +0.000 A 
ATOM      2  C   UNL     1      13.289  44.942  46.270  0.00  0.00    +0.000 A 
ATOM      3  C   UNL     1      13.678  43.816  45.498  0.00  0.00    +0.000 A 
ATOM      4  C   UNL     1      13.519  42.424  45.601  0.00  0.00    +0.000 A 
ATOM      5  C   UNL     1      14.053  41.625  44.577  0.00  0.00    +0.000 A 
ATOM      6  C   UNL     1      14.755  42.170  43.494  0.00  0.00    +0.000 A 
ATOM      7  C   UNL     1      14.927  43.553  43.389  0.00  0.00    +0.000 A 
ATOM      8  C   UNL     1      14.371  44.328  44.407  0.00  0.00    +0.000 A 
ATOM      9  O   UNL     1      14.428  45.685  44.479  0.00  0.00    +0.000 OA
ENDROOT
BRANCH   5  10
ATOM     10  C   UNL     1      13.866  40.164  44.650  0.00  0.00    +0.000 C 
ATOM     11  O   UNL     1      12.868  39.692  44.112  0.00  0.00    +0.000 OA
ATOM     12  N   UNL     1      14.831  39.422  45.331  0.00  0.00    +0.000 N 
ATOM     13  C   UNL     1      16.097  39.995  45.793  0.00  0.00    +0.000 C 
ATOM     14  C   UNL     1      17.095  38.940  46.251  0.00  0.00    +0.000 C 
ATOM     15  C   UNL     1      16.431  37.977  47.254  0.00  0.00    +0.000 C 
ATOM     16  C   UNL     1      15.088  37.417  46.748  0.00  0.00    +0.000 C 
ATOM     17  C   UNL     1      14.690  37.969  45.382  0.00  0.00    +0.000 C 
BRANCH  15  18
ATOM     18  N   UNL     1      17.356  36.920  47.711  0.00  0.00    +0.000 N 
ATOM     19  C   UNL     1      17.530  35.790  46.896  0.00  0.00    +0.000 C 
ATOM     20  O   UNL     1      16.882  35.595  45.869  0.00  0.00    +0.000 OA
ATOM     21  O   UNL     1      18.431  34.849  47.292  0.00  0.00    +0.000 OA
ATOM     22  C   UNL     1      19.491  35.236  48.163  0.00  0.00    +0.000 C 
ATOM     23  C   UNL     1      19.004  36.102  49.272  0.00  0.00    +0.000 A 
ATOM     24  C   UNL     1      19.650  36.112  50.517  0.00  0.00    +0.000 A 
ATOM     25  C   UNL     1      19.222  36.975  51.519  0.00  0.00    +0.000 A 
ATOM     26  C   UNL     1      18.154  37.832  51.278  0.00  0.00    +0.000 A 
ATOM     27  C   UNL     1      17.519  37.831  50.030  0.00  0.00    +0.000 A 
ATOM     28  C   UNL     1      17.945  36.972  49.008  0.00  0.00    +0.000 A 
ENDBRANCH  15  18
ENDBRANCH   5  10
BRANCH   1  32
ATOM     29  N   UNL     1      13.513  50.331  45.164  0.00  0.00    +0.000 NA
ATOM     30  C   UNL     1      12.405  49.654  45.867  0.00  0.00    +0.000 C 
ATOM     31  C   UNL     1      12.369  48.163  45.557  0.00  0.00    +0.000 C 
ATOM     32  C   UNL     1      13.726  47.534  45.880  0.00  0.00    +0.000 C 
ATOM     33  C   UNL     1      14.878  48.267  45.165  0.00  0.00    +0.000 C 
ATOM     34  C   UNL     1      14.434  49.495  44.381  0.00  0.00    +0.000 C 
BRANCH  29  36
ATOM     35  C   UNL     1      13.156  51.936  47.308  0.00  0.00    +0.000 C 
ATOM     36  S   UNL     1      14.030  51.825  45.759  0.00  0.00    +0.000 S 
ATOM     37  O   UNL     1      13.509  52.856  44.887  0.00  0.00    +0.000 OA
ATOM     38  O   UNL     1      15.444  51.739  46.061  0.00  0.00    +0.000 OA
ENDBRANCH  29  36
ENDBRANCH   1  32
TORSDOF 4
ENDMDL
MODEL 3
REMARK VINA RESULT:    -6.752      5.072      6.451
REMARK INTER + INTRA:          -8.607
REMARK INTER:                  -8.331
REMARK INTRA:                  -0.276
REMARK UNBOUND:                -0.276
REMARK  Name = 
REMARK  5 active torsions:
REMARK  status: ('A' for Active; 'I' for Inactive)
REMARK    1  A    between atoms: C_1  and  S_2
REMARK    2  A    between atoms: S_2  and  N_5
REMARK    3  A    between atoms: C_8  and  C_9
REMARK    4  A    between atoms: C_13  and  C_14
REMARK    5  A    between atoms: C_19  and  N_20
REMARK                            x       y       z     vdW  Elec       q    Type
REMARK                         _______ _______ _______ _____ _____    ______ ____
ROOT
ATOM      1  C   UNL     1      15.545  40.623  45.750  0.00  0.00    +0.000 A 
ATOM      2  C   UNL     1      14.737  40.457  46.859  0.00  0.00    +0.000 A 
ATOM      3  C   UNL     1      15.368  39.489  47.685  0.00  0.00    +0.000 A 
ATOM      4  C   UNL     1      15.080  38.883  48.919  0.00  0.00    +0.000 A 
ATOM      5  C   UNL     1      15.981  37.919  49.401  0.00  0.00    +0.000 A 
ATOM      6  C   UNL     1      17.152  37.579  48.711  0.00  0.00    +0.000 A 
ATOM      7  C   UNL     1      17.451  38.186  47.488  0.00  0.00    +0.000 A 
ATOM      8  C   UNL     1      16.532  39.125  47.018  0.00  0.00    +0.000 A 
ATOM      9  O   UNL     1      16.644  39.816  45.852  0.00  0.00    +0.000 OA
ENDROOT
BRANCH   5  10
ATOM     10  C   UNL     1      15.679  37.246  50.678  0.00  0.00    +0.000 C 
ATOM     11  O   UNL     1      15.286  36.084  50.628  0.00  0.00    +0.000 OA
ATOM     12  N   UNL     1      15.854  37.978  51.852  0.00  0.00    +0.000 N 
ATOM     13  C   UNL     1      16.501  39.291  51.883  0.00  0.00    +0.000 C 
ATOM     14  C   UNL     1      16.827  39.760  53.294  0.00  0.00    +0.000 C 
ATOM     15  C   UNL     1      15.584  39.644  54.196  0.00  0.00    +0.000 C 
ATOM     16  C   UNL     1      14.911  38.261  54.115  0.00  0.00    +0.000 C 
ATOM     17  C   UNL     1      15.600  37.320  53.132  0.00  0.00    +0.000 C 
BRANCH  15  18
ATOM     18  N   UNL     1      15.857  40.069  55.585  0.00  0.00    +0.000 N 
ATOM     19  C   UNL     1      15.526  41.382  55.956  0.00  0.00    +0.000 C 
ATOM     20  O   UNL     1      15.109  42.221  55.160  0.00  0.00    +0.000 OA
ATOM     21  O   UNL     1      15.722  41.747  57.253  0.00  0.00    +0.000 OA
ATOM     22  C   UNL     1      15.742  40.735  58.257  0.00  0.00    +0.000 C 
ATOM     23  C   UNL     1      16.555  39.560  57.837  0.00  0.00    +0.000 A 
ATOM     24  C   UNL     1      17.211  38.761  58.785  0.00  0.00    +0.000 A 
ATOM     25  C   UNL     1      17.911  37.630  58.381  0.00  0.00    +0.000 A 
ATOM     26  C   UNL     1      17.951  37.293  57.032  0.00  0.00    +0.000 A 
ATOM     27  C   UNL     1      17.283  38.082  56.089  0.00  0.00    +0.000 A 
ATOM     28  C   UNL     1      16.568  39.221  56.483  0.00  0.00    +0.000 A 
ENDBRANCH  15  18
ENDBRANCH   5  10
BRANCH   1  32
ATOM     29  N   UNL     1      14.213  43.192  42.569  0.00  0.00    +0.000 NA
ATOM     30  C   UNL     1      15.149  43.762  43.559  0.00  0.00    +0.000 C 
ATOM     31  C   UNL     1      15.172  42.947  44.846  0.00  0.00    +0.000 C 
ATOM     32  C   UNL     1      15.490  41.485  44.527  0.00  0.00    +0.000 C 
ATOM     33  C   UNL     1      14.527  40.909  43.470  0.00  0.00    +0.000 C 
ATOM     34  C   UNL     1      13.543  41.930  42.913  0.00  0.00    +0.000 C 
BRANCH  29  36
ATOM     35  C   UNL     1      12.976  44.621  40.638  0.00  0.00    +0.000 C 
ATOM     36  S   UNL     1      14.419  43.622  40.948  0.00  0.00    +0.000 S 
ATOM     37  O   UNL     1      14.301  42.421  40.150  0.00  0.00    +0.000 OA
ATOM     38  O   UNL     1      15.578  44.485  40.841  0.00  0.00    +0.000 OA
ENDBRANCH  29  36
ENDBRANCH   1  32
TORSDOF 4
ENDMDL
