MODEL 1
REMARK VINA RESULT:    -7.301      0.000      0.000
REMARK INTER + INTRA:          -8.252
REMARK INTER:                  -7.818
REMARK INTRA:                  -0.434
REMARK UNBOUND:                -0.524
REMARK  Name = 
REMARK  8 active torsions:
REMARK  status: ('A' for Active; 'I' for Inactive)
REMARK    1  A    between atoms: C_2  and  C_3
REMARK    2  A    between atoms: C_2  and  C_4
REMARK    3  A    between atoms: C_7  and  C_8
REMARK    4  A    between atoms: C_11  and  C_12
REMARK    5  A    between atoms: C_17  and  C_18
REMARK    6  A    between atoms: C_26  and  C_27
REMARK    7  A    between atoms: C_26  and  C_28
REMARK    8  A    between atoms: C_32  and  C_33
REMARK                            x       y       z     vdW  Elec       q    Type
REMARK                         _______ _______ _______ _____ _____    ______ ____
ROOT
ATOM      1  C   UNL     1      14.753  41.499  54.206  0.00  0.00    +0.000 C 
ATOM      2  C   UNL     1      15.047  41.510  55.732  0.00  0.00    +0.000 C 
ATOM      3  C   UNL     1      16.133  40.450  55.980  0.00  0.00    +0.000 C 
ATOM      4  C   UNL     1      16.040  39.520  54.763  0.00  0.00    +0.000 C 
ATOM      5  C   UNL     1      14.852  38.547  54.980  0.00  0.00    +0.000 C 
ATOM      6  C   UNL     1      17.314  38.715  54.480  0.00  0.00    +0.000 C 
ATOM      7  C   UNL     1      17.254  38.023  53.102  0.00  0.00    +0.000 C 
ATOM      8  C   UNL     1      16.902  38.973  51.900  0.00  0.00    +0.000 C 
ATOM      9  C   UNL     1      18.171  39.876  51.712  0.00  0.00    +0.000 C 
ATOM     10  C   UNL     1      15.647  39.868  52.269  0.00  0.00    +0.000 C 
ATOM     11  C   UNL     1      15.285  40.825  51.127  0.00  0.00    +0.000 C 
ATOM     12  C   UNL     1      15.054  40.100  49.796  0.00  0.00    +0.000 C 
ATOM     13  C   UNL     1      16.227  39.182  49.387  0.00  0.00    +0.000 C 
ATOM     14  C   UNL     1      16.133  38.612  47.902  0.00  0.00    +0.000 C 
ATOM     15  C   UNL     1      14.818  37.845  47.632  0.00  0.00    +0.000 C 
ATOM     16  C   UNL     1      16.176  39.816  46.913  0.00  0.00    +0.000 C 
ATOM     17  C   UNL     1      16.416  39.442  45.477  0.00  0.00    +0.000 A 
ATOM     18  N   UNL     1      15.974  40.340  44.554  0.00  0.00    +0.000 NA
ATOM     19  C   UNL     1      16.187  40.022  43.262  0.00  0.00    +0.000 A 
ATOM     20  C   UNL     1      16.819  38.855  42.889  0.00  0.00    +0.000 A 
ATOM     21  N   UNL     1      17.268  37.960  43.795  0.00  0.00    +0.000 NA
ATOM     22  C   UNL     1      17.069  38.263  45.110  0.00  0.00    +0.000 A 
ATOM     23  C   UNL     1      17.578  37.249  46.134  0.00  0.00    +0.000 C 
ATOM     24  C   UNL     1      16.878  35.895  45.884  0.00  0.00    +0.000 C 
ATOM     25  C   UNL     1      19.092  37.035  45.854  0.00  0.00    +0.000 C 
ATOM     26  C   UNL     1      17.423  37.767  47.616  0.00  0.00    +0.000 C 
ATOM     27  C   UNL     1      17.636  36.679  48.686  0.00  0.00    +0.000 C 
ATOM     28  C   UNL     1      17.780  37.286  50.084  0.00  0.00    +0.000 C 
ATOM     29  C   UNL     1      16.569  38.148  50.534  0.00  0.00    +0.000 C 
ATOM     30  C   UNL     1      15.385  37.168  50.786  0.00  0.00    +0.000 C 
ATOM     31  C   UNL     1      15.843  40.563  53.634  0.00  0.00    +0.000 C 
ENDROOT
BRANCH   1  33
ATOM     32  C   UNL     1      13.505  43.562  53.572  0.00  0.00    +0.000 C 
ATOM     33  C   UNL     1      14.677  42.907  53.637  0.00  0.00    +0.000 C 
ATOM     34  C   UNL     1      15.946  43.568  53.169  0.00  0.00    +0.000 C 
ENDBRANCH   1  33
TORSDOF 1
ENDMDL
MODEL 2
REMARK VINA RESULT:    -6.572      5.249      8.815
REMARK INTER + INTRA:          -7.481
REMARK INTER:                  -7.034
REMARK INTRA:                  -0.447
REMARK UNBOUND:                -0.524
REMARK  Name = 
REMARK  8 active torsions:
REMARK  status: ('A' for Active; 'I' for Inactive)
REMARK    1  A    between atoms: C_2  and  C_3
REMARK    2  A    between atoms: C_2  and  C_4
REMARK    3  A    between atoms: C_7  and  C_8
REMARK    4  A    between atoms: C_11  and  C_12
REMARK    5  A    between atoms: C_17  and  C_18
REMARK    6  A    between atoms: C_26  and  C_27
REMARK    7  A    between atoms: C_26  and  C_28
REMARK    8  A    between atoms: C_32  and  C_33
REMARK                            x       y       z     vdW  Elec       q    Type
REMARK                         _______ _______ _______ _____ _____    ______ ____
ROOT
ATOM      1  C   UNL     1      23.717  32.259  51.917  0.00  0.00    +0.000 C 
ATOM      2  C   UNL     1      24.605  31.159  51.271  0.00  0.00    +0.000 C 
ATOM      3  C   UNL     1      24.122  31.000  49.819  0.00  0.00    +0.000 C 
ATOM      4  C   UNL     1      22.696  31.566  49.829  0.00  0.00    +0.000 C 
ATOM      5  C   UNL     1      21.745  30.485  50.405  0.00  0.00    +0.000 C 
ATOM      6  C   UNL     1      22.183  32.018  48.456  0.00  0.00    +0.000 C 
ATOM      7  C   UNL     1      20.873  32.823  48.578  0.00  0.00    +0.000 C 
ATOM      8  C   UNL     1      20.928  34.025  49.589  0.00  0.00    +0.000 C 
ATOM      9  C   UNL     1      21.856  35.090  48.906  0.00  0.00    +0.000 C 
ATOM     10  C   UNL     1      21.564  33.548  50.960  0.00  0.00    +0.000 C 
ATOM     11  C   UNL     1      21.653  34.700  51.968  0.00  0.00    +0.000 C 
ATOM     12  C   UNL     1      20.303  35.381  52.213  0.00  0.00    +0.000 C 
ATOM     13  C   UNL     1      19.606  35.846  50.915  0.00  0.00    +0.000 C 
ATOM     14  C   UNL     1      18.331  36.773  51.144  0.00  0.00    +0.000 C 
ATOM     15  C   UNL     1      17.260  36.114  52.042  0.00  0.00    +0.000 C 
ATOM     16  C   UNL     1      18.797  38.077  51.862  0.00  0.00    +0.000 C 
ATOM     17  C   UNL     1      17.784  39.187  51.868  0.00  0.00    +0.000 A 
ATOM     18  N   UNL     1      17.924  40.104  52.865  0.00  0.00    +0.000 NA
ATOM     19  C   UNL     1      17.027  41.110  52.881  0.00  0.00    +0.000 A 
ATOM     20  C   UNL     1      16.024  41.211  51.941  0.00  0.00    +0.000 A 
ATOM     21  N   UNL     1      15.879  40.312  50.944  0.00  0.00    +0.000 NA
ATOM     22  C   UNL     1      16.778  39.288  50.903  0.00  0.00    +0.000 A 
ATOM     23  C   UNL     1      16.613  38.272  49.774  0.00  0.00    +0.000 C 
ATOM     24  C   UNL     1      15.215  37.625  49.888  0.00  0.00    +0.000 C 
ATOM     25  C   UNL     1      16.638  39.064  48.437  0.00  0.00    +0.000 C 
ATOM     26  C   UNL     1      17.787  37.219  49.742  0.00  0.00    +0.000 C 
ATOM     27  C   UNL     1      17.518  36.007  48.828  0.00  0.00    +0.000 C 
ATOM     28  C   UNL     1      18.789  35.188  48.593  0.00  0.00    +0.000 C 
ATOM     29  C   UNL     1      19.453  34.650  49.890  0.00  0.00    +0.000 C 
ATOM     30  C   UNL     1      18.515  33.541  50.451  0.00  0.00    +0.000 C 
ATOM     31  C   UNL     1      22.901  32.812  50.725  0.00  0.00    +0.000 C 
ENDROOT
BRANCH   1  33
ATOM     32  C   UNL     1      25.580  33.899  52.148  0.00  0.00    +0.000 C 
ATOM     33  C   UNL     1      24.545  33.254  52.714  0.00  0.00    +0.000 C 
ATOM     34  C   UNL     1      24.170  33.525  54.146  0.00  0.00    +0.000 C 
ENDBRANCH   1  33
TORSDOF 1
ENDMDL
MODEL 3
REMARK VINA RESULT:    -6.120      2.090      3.391
REMARK INTER + INTRA:          -7.002
REMARK INTER:                  -6.478
REMARK INTRA:                  -0.524
REMARK UNBOUND:                -0.524
REMARK  Name = 
REMARK  8 active torsions:
REMARK  status: ('A' for Active; 'I' for Inactive)
REMARK    1  A    between atoms: C_2  and  C_3
REMARK    2  A    between atoms: C_2  and  C_4
REMARK    3  A    between atoms: C_7  and  C_8
REMARK    4  A    between atoms: C_11  and  C_12
REMARK    5  A    between atoms: C_17  and  C_18
REMARK    6  A    between atoms: C_26  and  C_27
REMARK    7  A    between atoms: C_26  and  C_28
REMARK    8  A    between atoms: C_32  and  C_33
REMARK                            x       y       z     vdW  Elec       q    Type
REMARK                         _______ _______ _______ _____ _____    ______ ____
ROOT
ATOM      1  C   UNL     1      16.752  37.204  54.839  0.00  0.00    +0.000 C 
ATOM      2  C   UNL     1      17.295  36.751  56.223  0.00  0.00    +0.000 C 
ATOM      3  C   UNL     1      18.504  35.841  55.945  0.00  0.00    +0.000 C 
ATOM      4  C   UNL     1      18.297  35.365  54.501  0.00  0.00    +0.000 C 
ATOM      5  C   UNL     1      17.260  34.212  54.509  0.00  0.00    +0.000 C 
ATOM      6  C   UNL     1      19.577  34.897  53.797  0.00  0.00    +0.000 C 
ATOM      7  C   UNL     1      19.353  34.702  52.284  0.00  0.00    +0.000 C 
ATOM      8  C   UNL     1      18.716  35.934  51.545  0.00  0.00    +0.000 C 
ATOM      9  C   UNL     1      19.843  37.025  51.529  0.00  0.00    +0.000 C 
ATOM     10  C   UNL     1      17.461  36.461  52.358  0.00  0.00    +0.000 C 
ATOM     11  C   UNL     1      16.823  37.678  51.678  0.00  0.00    +0.000 C 
ATOM     12  C   UNL     1      16.442  37.412  50.218  0.00  0.00    +0.000 C 
ATOM     13  C   UNL     1      17.612  36.865  49.370  0.00  0.00    +0.000 C 
ATOM     14  C   UNL     1      17.325  36.813  47.803  0.00  0.00    +0.000 C 
ATOM     15  C   UNL     1      16.063  35.996  47.447  0.00  0.00    +0.000 C 
ATOM     16  C   UNL     1      17.087  38.271  47.302  0.00  0.00    +0.000 C 
ATOM     17  C   UNL     1      17.118  38.435  45.808  0.00  0.00    +0.000 A 
ATOM     18  N   UNL     1      16.444  39.513  45.322  0.00  0.00    +0.000 NA
ATOM     19  C   UNL     1      16.467  39.678  43.984  0.00  0.00    +0.000 A 
ATOM     20  C   UNL     1      17.136  38.808  43.151  0.00  0.00    +0.000 A 
ATOM     21  N   UNL     1      17.813  37.739  43.622  0.00  0.00    +0.000 NA
ATOM     22  C   UNL     1      17.810  37.555  44.972  0.00  0.00    +0.000 A 
ATOM     23  C   UNL     1      18.577  36.344  45.504  0.00  0.00    +0.000 C 
ATOM     24  C   UNL     1      17.977  35.063  44.884  0.00  0.00    +0.000 C 
ATOM     25  C   UNL     1      20.036  36.461  44.980  0.00  0.00    +0.000 C 
ATOM     26  C   UNL     1      18.624  36.311  47.080  0.00  0.00    +0.000 C 
ATOM     27  C   UNL     1      19.116  34.973  47.665  0.00  0.00    +0.000 C 
ATOM     28  C   UNL     1      19.434  35.096  49.158  0.00  0.00    +0.000 C 
ATOM     29  C   UNL     1      18.239  35.571  50.029  0.00  0.00    +0.000 C 
ATOM     30  C   UNL     1      17.213  34.400  50.066  0.00  0.00    +0.000 C 
ATOM     31  C   UNL     1      17.815  36.683  53.844  0.00  0.00    +0.000 C 
ENDROOT
BRANCH   1  33
ATOM     32  C   UNL     1      17.441  39.600  54.865  0.00  0.00    +0.000 C 
ATOM     33  C   UNL     1      16.449  38.694  54.814  0.00  0.00    +0.000 C 
ATOM     34  C   UNL     1      15.014  39.139  54.706  0.00  0.00    +0.000 C 
ENDBRANCH   1  33
TORSDOF 1
ENDMDL
