MODEL 1
REMARK VINA RESULT:    -5.499      0.000      0.000
REMARK INTER + INTRA:         -10.118
REMARK INTER:                  -7.805
REMARK INTRA:                  -2.314
REMARK UNBOUND:                -2.690
REMARK  Name = 
REMARK  6 active torsions:
REMARK  status: ('A' for Active; 'I' for Inactive)
REMARK    1  A    between atoms: C_2  and  C_3
REMARK    2  A    between atoms: N_11  and  C_12
REMARK    3  A    between atoms: C_12  and  C_13
REMARK    4  A    between atoms: C_13  and  C_14
REMARK    5  A    between atoms: C_14  and  C_15
REMARK    6  A    between atoms: C_15  and  C_16
REMARK                            x       y       z     vdW  Elec       q    Type
REMARK                         _______ _______ _______ _____ _____    ______ ____
ROOT
ATOM      1  C   UNL     1      14.802  39.118  45.281  0.00  0.00    +0.000 C 
ENDROOT
BRANCH   1   6
ATOM      2  C   UNL     1      12.969  42.419  44.911  0.00  0.00    +0.000 C 
ATOM      3  C   UNL     1      13.602  43.216  45.792  0.00  0.00    +0.000 C 
ATOM      4  C   UNL     1      14.740  42.664  46.613  0.00  0.00    +0.000 C 
ATOM      5  C   UNL     1      15.309  41.366  46.015  0.00  0.00    +0.000 C 
ATOM      6  N   UNL     1      14.235  40.410  45.702  0.00  0.00    +0.000 NA
ATOM      7  C   UNL     1      13.326  40.974  44.690  0.00  0.00    +0.000 C 
BRANCH   3   8
ATOM      8  C   UNL     1      13.206  44.626  45.990  0.00  0.00    +0.000 A 
ATOM      9  C   UNL     1      12.019  44.948  46.660  0.00  0.00    +0.000 A 
ATOM     10  C   UNL     1      11.648  46.282  46.859  0.00  0.00    +0.000 A 
ATOM     11  C   UNL     1      12.465  47.310  46.396  0.00  0.00    +0.000 A 
ATOM     12  C   UNL     1      13.653  47.007  45.738  0.00  0.00    +0.000 A 
ATOM     13  C   UNL     1      14.021  45.674  45.537  0.00  0.00    +0.000 A 
ENDBRANCH   3   8
ENDBRANCH   1   6
BRANCH   1  14
ATOM     14  C   UNL     1      16.198  39.245  44.657  0.00  0.00    +0.000 C 
BRANCH  14  15
ATOM     15  C   UNL     1      16.177  39.254  43.122  0.00  0.00    +0.000 C 
BRANCH  15  16
ATOM     16  C   UNL     1      17.031  40.336  42.451  0.00  0.00    +0.000 C 
BRANCH  16  17
ATOM     17  C   UNL     1      16.509  41.726  42.636  0.00  0.00    +0.000 A 
ATOM     18  C   UNL     1      17.079  42.710  43.420  0.00  0.00    +0.000 A 
ATOM     19  N   UNL     1      16.317  43.842  43.317  0.00  0.00    +0.000 N 
ATOM     20  C   UNL     1      15.262  43.627  42.462  0.00  0.00    +0.000 A 
ATOM     21  C   UNL     1      14.245  44.498  42.052  0.00  0.00    +0.000 A 
ATOM     22  C   UNL     1      13.293  44.007  41.154  0.00  0.00    +0.000 A 
ATOM     23  C   UNL     1      13.353  42.695  40.693  0.00  0.00    +0.000 A 
ATOM     24  C   UNL     1      14.375  41.837  41.119  0.00  0.00    +0.000 A 
ATOM     25  C   UNL     1      15.354  42.307  42.020  0.00  0.00    +0.000 A 
ATOM     26  H   UNL     1      16.501  44.715  43.789  0.00  0.00    +0.000 HD
ENDBRANCH  16  17
ENDBRANCH  15  16
ENDBRANCH  14  15
ENDBRANCH   1  14
TORSDOF 6
ENDMDL
MODEL 2
REMARK VINA RESULT:    -5.386      1.168      2.274
REMARK INTER + INTRA:          -9.965
REMARK INTER:                  -7.809
REMARK INTRA:                  -2.156
REMARK UNBOUND:                -2.690
REMARK  Name = 
REMARK  6 active torsions:
REMARK  status: ('A' for Active; 'I' for Inactive)
REMARK    1  A    between atoms: C_2  and  C_3
REMARK    2  A    between atoms: N_11  and  C_12
REMARK    3  A    between atoms: C_12  and  C_13
REMARK    4  A    between atoms: C_13  and  C_14
REMARK    5  A    between atoms: C_14  and  C_15
REMARK    6  A    between atoms: C_15  and  C_16
REMARK                            x       y       z     vdW  Elec       q    Type
REMARK                         _______ _______ _______ _____ _____    ______ ____
ROOT
ATOM      1  C   UNL     1      14.392  39.046  45.455  0.00  0.00    +0.000 C 
ENDROOT
BRANCH   1   6
ATOM      2  C   UNL     1      14.544  42.663  46.593  0.00  0.00    +0.000 C 
ATOM      3  C   UNL     1      13.543  43.239  45.902  0.00  0.00    +0.000 C 
ATOM      4  C   UNL     1      12.714  42.406  44.957  0.00  0.00    +0.000 C 
ATOM      5  C   UNL     1      12.853  40.900  45.236  0.00  0.00    +0.000 C 
ATOM      6  N   UNL     1      14.268  40.510  45.346  0.00  0.00    +0.000 NA
ATOM      7  C   UNL     1      14.906  41.207  46.476  0.00  0.00    +0.000 C 
BRANCH   3   8
ATOM      8  C   UNL     1      13.233  44.677  46.033  0.00  0.00    +0.000 A 
ATOM      9  C   UNL     1      14.105  45.647  45.519  0.00  0.00    +0.000 A 
ATOM     10  C   UNL     1      13.808  47.009  45.632  0.00  0.00    +0.000 A 
ATOM     11  C   UNL     1      12.632  47.418  46.255  0.00  0.00    +0.000 A 
ATOM     12  C   UNL     1      11.751  46.468  46.762  0.00  0.00    +0.000 A 
ATOM     13  C   UNL     1      12.049  45.107  46.651  0.00  0.00    +0.000 A 
ENDBRANCH   3   8
ENDBRANCH   1   6
BRANCH   1  14
ATOM     14  C   UNL     1      15.136  38.413  44.272  0.00  0.00    +0.000 C 
BRANCH  14  15
ATOM     15  C   UNL     1      16.629  38.771  44.234  0.00  0.00    +0.000 C 
BRANCH  15  16
ATOM     16  C   UNL     1      17.181  39.179  42.864  0.00  0.00    +0.000 C 
BRANCH  16  17
ATOM     17  C   UNL     1      16.277  40.084  42.088  0.00  0.00    +0.000 A 
ATOM     18  C   UNL     1      15.499  39.723  41.005  0.00  0.00    +0.000 A 
ATOM     19  N   UNL     1      14.806  40.824  40.583  0.00  0.00    +0.000 N 
ATOM     20  C   UNL     1      15.099  41.905  41.381  0.00  0.00    +0.000 A 
ATOM     21  C   UNL     1      14.617  43.218  41.329  0.00  0.00    +0.000 A 
ATOM     22  C   UNL     1      15.088  44.121  42.287  0.00  0.00    +0.000 A 
ATOM     23  C   UNL     1      16.011  43.724  43.252  0.00  0.00    +0.000 A 
ATOM     24  C   UNL     1      16.484  42.407  43.285  0.00  0.00    +0.000 A 
ATOM     25  C   UNL     1      16.022  41.472  42.334  0.00  0.00    +0.000 A 
ATOM     26  H   UNL     1      14.163  40.846  39.805  0.00  0.00    +0.000 HD
ENDBRANCH  16  17
ENDBRANCH  15  16
ENDBRANCH  14  15
ENDBRANCH   1  14
TORSDOF 6
ENDMDL
MODEL 3
REMARK VINA RESULT:    -4.898      1.222      1.860
REMARK INTER + INTRA:          -9.306
REMARK INTER:                  -6.616
REMARK INTRA:                  -2.690
REMARK UNBOUND:                -2.690
REMARK  Name = 
REMARK  6 active torsions:
REMARK  status: ('A' for Active; 'I' for Inactive)
REMARK    1  A    between atoms: C_2  and  C_3
REMARK    2  A    between atoms: N_11  and  C_12
REMARK    3  A    between atoms: C_12  and  C_13
REMARK    4  A    between atoms: C_13  and  C_14
REMARK    5  A    between atoms: C_14  and  C_15
REMARK    6  A    between atoms: C_15  and  C_16
REMARK                            x       y       z     vdW  Elec       q    Type
REMARK                         _______ _______ _______ _____ _____    ______ ____
ROOT
ATOM      1  C   UNL     1      14.374  39.240  46.459  0.00  0.00    +0.000 C 
ENDROOT
BRANCH   1   6
ATOM      2  C   UNL     1      14.849  42.988  46.111  0.00  0.00    +0.000 C 
ATOM      3  C   UNL     1      13.595  43.463  46.231  0.00  0.00    +0.000 C 
ATOM      4  C   UNL     1      12.451  42.504  46.442  0.00  0.00    +0.000 C 
ATOM      5  C   UNL     1      12.933  41.125  46.926  0.00  0.00    +0.000 C 
ATOM      6  N   UNL     1      14.031  40.622  46.085  0.00  0.00    +0.000 NA
ATOM      7  C   UNL     1      15.193  41.524  46.166  0.00  0.00    +0.000 C 
BRANCH   3   8
ATOM      8  C   UNL     1      13.300  44.908  46.152  0.00  0.00    +0.000 A 
ATOM      9  C   UNL     1      12.109  45.425  46.681  0.00  0.00    +0.000 A 
ATOM     10  C   UNL     1      11.832  46.795  46.617  0.00  0.00    +0.000 A 
ATOM     11  C   UNL     1      12.746  47.665  46.028  0.00  0.00    +0.000 A 
ATOM     12  C   UNL     1      13.937  47.170  45.507  0.00  0.00    +0.000 A 
ATOM     13  C   UNL     1      14.212  45.801  45.569  0.00  0.00    +0.000 A 
ENDBRANCH   3   8
ENDBRANCH   1   6
BRANCH   1  14
ATOM     14  C   UNL     1      14.161  38.235  45.319  0.00  0.00    +0.000 C 
BRANCH  14  15
ATOM     15  C   UNL     1      13.354  38.811  44.146  0.00  0.00    +0.000 C 
BRANCH  15  16
ATOM     16  C   UNL     1      14.110  38.944  42.820  0.00  0.00    +0.000 C 
BRANCH  16  17
ATOM     17  C   UNL     1      14.965  40.168  42.726  0.00  0.00    +0.000 A 
ATOM     18  C   UNL     1      16.346  40.196  42.688  0.00  0.00    +0.000 A 
ATOM     19  N   UNL     1      16.750  41.499  42.585  0.00  0.00    +0.000 N 
ATOM     20  C   UNL     1      15.658  42.333  42.535  0.00  0.00    +0.000 A 
ATOM     21  C   UNL     1      15.596  43.727  42.419  0.00  0.00    +0.000 A 
ATOM     22  C   UNL     1      14.330  44.319  42.383  0.00  0.00    +0.000 A 
ATOM     23  C   UNL     1      13.176  43.546  42.471  0.00  0.00    +0.000 A 
ATOM     24  C   UNL     1      13.259  42.154  42.592  0.00  0.00    +0.000 A 
ATOM     25  C   UNL     1      14.523  41.528  42.624  0.00  0.00    +0.000 A 
ATOM     26  H   UNL     1      17.710  41.810  42.542  0.00  0.00    +0.000 HD
ENDBRANCH  16  17
ENDBRANCH  15  16
ENDBRANCH  14  15
ENDBRANCH   1  14
TORSDOF 6
ENDMDL
