MODEL 1
REMARK VINA RESULT:    -7.108      0.000      0.000
REMARK INTER + INTRA:         -10.975
REMARK INTER:                  -9.645
REMARK INTRA:                  -1.330
REMARK UNBOUND:                -1.374
REMARK  Name = 
REMARK  6 active torsions:
REMARK  status: ('A' for Active; 'I' for Inactive)
REMARK    1  A    between atoms: C_4  and  C_5
REMARK    2  A    between atoms: N_17  and  C_18
REMARK    3  A    between atoms: C_18  and  C_19
REMARK    4  A    between atoms: C_19  and  C_20
REMARK    5  A    between atoms: C_20  and  N_21
REMARK    6  A    between atoms: N_24  and  C_25
REMARK                            x       y       z     vdW  Elec       q    Type
REMARK                         _______ _______ _______ _____ _____    ______ ____
ROOT
ATOM      1  O   UNL     1      14.673  40.748  50.260  0.00  0.00    +0.000 OA
ATOM      2  C   UNL     1      15.556  39.929  50.426  0.00  0.00    +0.000 C 
ATOM      3  C   UNL     1      16.550  39.850  51.561  0.00  0.00    +0.000 C 
ATOM      4  C   UNL     1      16.650  40.653  52.631  0.00  0.00    +0.000 C 
ATOM      5  C   UNL     1      17.443  38.720  51.274  0.00  0.00    +0.000 A 
ATOM      6  C   UNL     1      18.536  38.196  51.945  0.00  0.00    +0.000 A 
ATOM      7  C   UNL     1      19.189  37.093  51.385  0.00  0.00    +0.000 A 
ATOM      8  C   UNL     1      18.748  36.536  50.175  0.00  0.00    +0.000 A 
ATOM      9  C   UNL     1      17.645  37.069  49.503  0.00  0.00    +0.000 A 
ATOM     10  C   UNL     1      17.005  38.158  50.069  0.00  0.00    +0.000 A 
ATOM     11  N   UNL     1      15.885  38.859  49.589  0.00  0.00    +0.000 N 
ENDROOT
BRANCH   4  12
ATOM     12  C   UNL     1      15.790  41.792  52.969  0.00  0.00    +0.000 A 
ATOM     13  C   UNL     1      14.537  41.616  53.565  0.00  0.00    +0.000 A 
ATOM     14  C   UNL     1      13.761  42.723  53.919  0.00  0.00    +0.000 A 
ATOM     15  C   UNL     1      14.237  44.012  53.690  0.00  0.00    +0.000 A 
ATOM     16  C   UNL     1      15.490  44.198  53.107  0.00  0.00    +0.000 A 
ATOM     17  C   UNL     1      16.265  43.092  52.752  0.00  0.00    +0.000 A 
ENDBRANCH   4  12
BRANCH  11  18
ATOM     18  C   UNL     1      15.223  38.602  48.328  0.00  0.00    +0.000 C 
BRANCH  18  19
ATOM     19  C   UNL     1      15.846  39.412  47.191  0.00  0.00    +0.000 C 
BRANCH  19  20
ATOM     20  C   UNL     1      15.297  39.009  45.818  0.00  0.00    +0.000 C 
BRANCH  20  21
ATOM     21  N   UNL     1      15.035  40.148  44.925  0.00  0.00    +0.000 NA
ATOM     22  C   UNL     1      15.875  41.321  45.274  0.00  0.00    +0.000 C 
ATOM     23  C   UNL     1      15.263  42.692  44.898  0.00  0.00    +0.000 C 
ATOM     24  N   UNL     1      13.977  42.888  45.587  0.00  0.00    +0.000 N 
ATOM     25  C   UNL     1      13.197  41.671  45.871  0.00  0.00    +0.000 C 
ATOM     26  C   UNL     1      13.600  40.515  44.923  0.00  0.00    +0.000 C 
BRANCH  24  27
ATOM     27  C   UNL     1      13.478  44.150  45.869  0.00  0.00    +0.000 A 
ATOM     28  C   UNL     1      12.260  44.325  46.550  0.00  0.00    +0.000 A 
ATOM     29  C   UNL     1      11.747  45.594  46.849  0.00  0.00    +0.000 A 
ATOM     30  C   UNL     1      12.447  46.732  46.469  0.00  0.00    +0.000 A 
ATOM     31  C   UNL     1      13.654  46.591  45.795  0.00  0.00    +0.000 A 
ATOM     32 CL   UNL     1      14.531  47.992  45.314  0.00  0.00    +0.000 Cl
ATOM     33  C   UNL     1      14.161  45.320  45.500  0.00  0.00    +0.000 A 
ENDBRANCH  24  27
ENDBRANCH  20  21
ENDBRANCH  19  20
ENDBRANCH  18  19
ENDBRANCH  11  18
TORSDOF 6
ENDMDL
MODEL 2
REMARK VINA RESULT:    -6.712      3.970      7.868
REMARK INTER + INTRA:         -10.441
REMARK INTER:                  -8.317
REMARK INTRA:                  -2.124
REMARK UNBOUND:                -1.374
REMARK  Name = 
REMARK  6 active torsions:
REMARK  status: ('A' for Active; 'I' for Inactive)
REMARK    1  A    between atoms: C_4  and  C_5
REMARK    2  A    between atoms: N_17  and  C_18
REMARK    3  A    between atoms: C_18  and  C_19
REMARK    4  A    between atoms: C_19  and  C_20
REMARK    5  A    between atoms: C_20  and  N_21
REMARK    6  A    between atoms: N_24  and  C_25
REMARK                            x       y       z     vdW  Elec       q    Type
REMARK                         _______ _______ _______ _____ _____    ______ ____
ROOT
ATOM      1  O   UNL     1      13.107  45.508  43.146  0.00  0.00    +0.000 OA
ATOM      2  C   UNL     1      12.759  44.604  43.882  0.00  0.00    +0.000 C 
ATOM      3  C   UNL     1      12.707  44.602  45.391  0.00  0.00    +0.000 C 
ATOM      4  C   UNL     1      13.011  45.603  46.232  0.00  0.00    +0.000 C 
ATOM      5  C   UNL     1      12.277  43.261  45.806  0.00  0.00    +0.000 A 
ATOM      6  C   UNL     1      12.077  42.684  47.050  0.00  0.00    +0.000 A 
ATOM      7  C   UNL     1      11.666  41.348  47.100  0.00  0.00    +0.000 A 
ATOM      8  C   UNL     1      11.466  40.613  45.921  0.00  0.00    +0.000 A 
ATOM      9  C   UNL     1      11.671  41.201  44.670  0.00  0.00    +0.000 A 
ATOM     10  C   UNL     1      12.073  42.525  44.633  0.00  0.00    +0.000 A 
ATOM     11  N   UNL     1      12.337  43.326  43.509  0.00  0.00    +0.000 N 
ENDROOT
BRANCH   4  12
ATOM     12  C   UNL     1      13.444  46.959  45.877  0.00  0.00    +0.000 A 
ATOM     13  C   UNL     1      14.760  47.233  45.491  0.00  0.00    +0.000 A 
ATOM     14  C   UNL     1      15.131  48.526  45.112  0.00  0.00    +0.000 A 
ATOM     15  C   UNL     1      14.186  49.550  45.104  0.00  0.00    +0.000 A 
ATOM     16  C   UNL     1      12.869  49.283  45.474  0.00  0.00    +0.000 A 
ATOM     17  C   UNL     1      12.498  47.992  45.855  0.00  0.00    +0.000 A 
ENDBRANCH   4  12
BRANCH  11  18
ATOM     18  C   UNL     1      12.305  42.866  42.137  0.00  0.00    +0.000 C 
BRANCH  18  19
ATOM     19  C   UNL     1      13.462  41.911  41.837  0.00  0.00    +0.000 C 
BRANCH  19  20
ATOM     20  C   UNL     1      14.793  42.648  41.652  0.00  0.00    +0.000 C 
BRANCH  20  21
ATOM     21  N   UNL     1      15.923  42.018  42.353  0.00  0.00    +0.000 NA
ATOM     22  C   UNL     1      15.700  40.565  42.556  0.00  0.00    +0.000 C 
ATOM     23  C   UNL     1      16.424  39.963  43.784  0.00  0.00    +0.000 C 
ATOM     24  N   UNL     1      15.975  40.623  45.020  0.00  0.00    +0.000 N 
ATOM     25  C   UNL     1      15.569  42.034  44.895  0.00  0.00    +0.000 C 
ATOM     26  C   UNL     1      16.201  42.689  43.643  0.00  0.00    +0.000 C 
BRANCH  24  27
ATOM     27  C   UNL     1      16.024  39.991  46.252  0.00  0.00    +0.000 A 
ATOM     28  C   UNL     1      16.997  39.017  46.542  0.00  0.00    +0.000 A 
ATOM     29  C   UNL     1      17.064  38.375  47.786  0.00  0.00    +0.000 A 
ATOM     30  C   UNL     1      16.149  38.693  48.781  0.00  0.00    +0.000 A 
ATOM     31  C   UNL     1      15.177  39.651  48.524  0.00  0.00    +0.000 A 
ATOM     32 CL   UNL     1      14.032  40.054  49.746  0.00  0.00    +0.000 Cl
ATOM     33  C   UNL     1      15.115  40.289  47.280  0.00  0.00    +0.000 A 
ENDBRANCH  24  27
ENDBRANCH  20  21
ENDBRANCH  19  20
ENDBRANCH  18  19
ENDBRANCH  11  18
TORSDOF 6
ENDMDL
MODEL 3
REMARK VINA RESULT:    -6.699      1.889      3.254
REMARK INTER + INTRA:         -10.422
REMARK INTER:                  -9.048
REMARK INTRA:                  -1.374
REMARK UNBOUND:                -1.374
REMARK  Name = 
REMARK  6 active torsions:
REMARK  status: ('A' for Active; 'I' for Inactive)
REMARK    1  A    between atoms: C_4  and  C_5
REMARK    2  A    between atoms: N_17  and  C_18
REMARK    3  A    between atoms: C_18  and  C_19
REMARK    4  A    between atoms: C_19  and  C_20
REMARK    5  A    between atoms: C_20  and  N_21
REMARK    6  A    between atoms: N_24  and  C_25
REMARK                            x       y       z     vdW  Elec       q    Type
REMARK                         _______ _______ _______ _____ _____    ______ ____
ROOT
ATOM      1  O   UNL     1      16.032  37.836  50.705  0.00  0.00    +0.000 OA
ATOM      2  C   UNL     1      17.116  37.287  50.642  0.00  0.00    +0.000 C 
ATOM      3  C   UNL     1      18.384  37.647  51.378  0.00  0.00    +0.000 C 
ATOM      4  C   UNL     1      18.573  38.631  52.270  0.00  0.00    +0.000 C 
ATOM      5  C   UNL     1      19.427  36.721  50.918  0.00  0.00    +0.000 A 
ATOM      6  C   UNL     1      20.772  36.595  51.229  0.00  0.00    +0.000 A 
ATOM      7  C   UNL     1      21.506  35.591  50.590  0.00  0.00    +0.000 A 
ATOM      8  C   UNL     1      20.896  34.737  49.658  0.00  0.00    +0.000 A 
ATOM      9  C   UNL     1      19.540  34.870  49.349  0.00  0.00    +0.000 A 
ATOM     10  C   UNL     1      18.822  35.865  49.990  0.00  0.00    +0.000 A 
ATOM     11  N   UNL     1      17.462  36.189  49.850  0.00  0.00    +0.000 N 
ENDROOT
BRANCH   4  12
ATOM     12  C   UNL     1      17.573  39.582  52.766  0.00  0.00    +0.000 A 
ATOM     13  C   UNL     1      17.268  40.758  52.073  0.00  0.00    +0.000 A 
ATOM     14  C   UNL     1      16.277  41.621  52.545  0.00  0.00    +0.000 A 
ATOM     15  C   UNL     1      15.574  41.308  53.707  0.00  0.00    +0.000 A 
ATOM     16  C   UNL     1      15.861  40.132  54.398  0.00  0.00    +0.000 A 
ATOM     17  C   UNL     1      16.853  39.270  53.927  0.00  0.00    +0.000 A 
ENDBRANCH   4  12
BRANCH  11  18
ATOM     18  C   UNL     1      16.552  35.561  48.916  0.00  0.00    +0.000 C 
BRANCH  18  19
ATOM     19  C   UNL     1      16.703  36.141  47.509  0.00  0.00    +0.000 C 
BRANCH  19  20
ATOM     20  C   UNL     1      15.581  37.126  47.160  0.00  0.00    +0.000 C 
BRANCH  20  21
ATOM     21  N   UNL     1      15.851  38.508  47.586  0.00  0.00    +0.000 NA
ATOM     22  C   UNL     1      14.606  39.312  47.656  0.00  0.00    +0.000 C 
ATOM     23  C   UNL     1      14.801  40.831  47.434  0.00  0.00    +0.000 C 
ATOM     24  N   UNL     1      15.379  41.087  46.105  0.00  0.00    +0.000 N 
ATOM     25  C   UNL     1      16.266  40.040  45.568  0.00  0.00    +0.000 C 
ATOM     26  C   UNL     1      16.845  39.161  46.704  0.00  0.00    +0.000 C 
BRANCH  24  27
ATOM     27  C   UNL     1      15.184  42.284  45.436  0.00  0.00    +0.000 A 
ATOM     28  C   UNL     1      15.776  42.533  44.184  0.00  0.00    +0.000 A 
ATOM     29  C   UNL     1      15.580  43.735  43.491  0.00  0.00    +0.000 A 
ATOM     30  C   UNL     1      14.779  44.729  44.039  0.00  0.00    +0.000 A 
ATOM     31  C   UNL     1      14.180  44.511  45.273  0.00  0.00    +0.000 A 
ATOM     32 CL   UNL     1      13.187  45.735  45.967  0.00  0.00    +0.000 Cl
ATOM     33  C   UNL     1      14.379  43.308  45.960  0.00  0.00    +0.000 A 
ENDBRANCH  24  27
ENDBRANCH  20  21
ENDBRANCH  19  20
ENDBRANCH  18  19
ENDBRANCH  11  18
TORSDOF 6
ENDMDL
