MODEL 1
REMARK VINA RESULT:    -6.575      0.000      0.000
REMARK INTER + INTRA:          -8.919
REMARK INTER:                  -8.107
REMARK INTRA:                  -0.812
REMARK UNBOUND:                -0.806
REMARK  Name = 
REMARK  4 active torsions:
REMARK  status: ('A' for Active; 'I' for Inactive)
REMARK    1  A    between atoms: C_2  and  C_17
REMARK    2  A    between atoms: N_3  and  C_4
REMARK    3  A    between atoms: N_7  and  C_8
REMARK    4  A    between atoms: C_8  and  C_9
REMARK                            x       y       z     vdW  Elec       q    Type
REMARK                         _______ _______ _______ _____ _____    ______ ____
ROOT
ATOM      1  O   UNL     1      13.309  46.150  43.525  0.00  0.00    +0.000 OA
ATOM      2  C   UNL     1      13.891  45.861  44.571  0.00  0.00    +0.000 C 
ATOM      3  N   UNL     1      14.665  44.723  44.711  0.00  0.00    +0.000 N 
ATOM      4  H   UNL     1      15.252  44.662  45.535  0.00  0.00    +0.000 HD
ENDROOT
BRANCH   2   5
ATOM      5  C   UNL     1      13.823  46.767  45.811  0.00  0.00    +0.000 C 
ATOM      6  C   UNL     1      14.300  48.168  45.505  0.00  0.00    +0.000 A 
ATOM      7  C   UNL     1      15.638  48.410  45.155  0.00  0.00    +0.000 A 
ATOM      8  C   UNL     1      16.064  49.702  44.847  0.00  0.00    +0.000 A 
ATOM      9  C   UNL     1      15.161  50.763  44.884  0.00  0.00    +0.000 A 
ATOM     10  C   UNL     1      13.831  50.530  45.233  0.00  0.00    +0.000 A 
ATOM     11  C   UNL     1      13.404  49.238  45.547  0.00  0.00    +0.000 A 
ATOM     12  O   UNL     1      12.077  49.104  45.880  0.00  0.00    +0.000 OA
ATOM     13  C   UNL     1      11.649  47.904  46.394  0.00  0.00    +0.000 A 
ATOM     14  C   UNL     1      10.351  47.883  46.907  0.00  0.00    +0.000 A 
ATOM     15  C   UNL     1       9.832  46.709  47.451  0.00  0.00    +0.000 A 
ATOM     16  C   UNL     1      10.611  45.553  47.479  0.00  0.00    +0.000 A 
ATOM     17  C   UNL     1      11.906  45.571  46.962  0.00  0.00    +0.000 A 
ATOM     18  C   UNL     1      12.435  46.749  46.410  0.00  0.00    +0.000 A 
ENDBRANCH   2   5
BRANCH   3  19
ATOM     19  C   UNL     1      14.957  43.842  43.588  0.00  0.00    +0.000 C 
ATOM     20  C   UNL     1      16.175  42.968  43.876  0.00  0.00    +0.000 C 
ATOM     21  C   UNL     1      16.493  42.072  42.674  0.00  0.00    +0.000 C 
ATOM     22  N   UNL     1      15.312  41.589  41.940  0.00  0.00    +0.000 NA
ATOM     23  C   UNL     1      14.124  41.559  42.797  0.00  0.00    +0.000 C 
ATOM     24  C   UNL     1      13.740  42.973  43.246  0.00  0.00    +0.000 C 
BRANCH  22  25
ATOM     25  C   UNL     1      15.526  40.286  41.282  0.00  0.00    +0.000 C 
BRANCH  25  26
ATOM     26  C   UNL     1      16.587  39.374  41.948  0.00  0.00    +0.000 C 
ATOM     27  C   UNL     1      16.009  38.411  43.004  0.00  0.00    +0.000 C 
ATOM     28  C   UNL     1      16.799  37.108  43.166  0.00  0.00    +0.000 C 
ATOM     29  C   UNL     1      18.279  37.306  42.879  0.00  0.00    +0.000 C 
ATOM     30  C   UNL     1      18.512  37.780  41.446  0.00  0.00    +0.000 C 
ATOM     31  C   UNL     1      17.341  38.577  40.868  0.00  0.00    +0.000 C 
ENDBRANCH  25  26
ENDBRANCH  22  25
ENDBRANCH   3  19
TORSDOF 4
ENDMDL
MODEL 2
REMARK VINA RESULT:    -6.271      5.572      7.304
REMARK INTER + INTRA:          -8.544
REMARK INTER:                  -7.737
REMARK INTRA:                  -0.806
REMARK UNBOUND:                -0.806
REMARK  Name = 
REMARK  4 active torsions:
REMARK  status: ('A' for Active; 'I' for Inactive)
REMARK    1  A    between atoms: C_2  and  C_17
REMARK    2  A    between atoms: N_3  and  C_4
REMARK    3  A    between atoms: N_7  and  C_8
REMARK    4  A    between atoms: C_8  and  C_9
REMARK                            x       y       z     vdW  Elec       q    Type
REMARK                         _______ _______ _______ _____ _____    ______ ____
ROOT
ATOM      1  O   UNL     1      15.574  42.679  45.504  0.00  0.00    +0.000 OA
ATOM      2  C   UNL     1      14.372  42.434  45.598  0.00  0.00    +0.000 C 
ATOM      3  N   UNL     1      13.852  41.562  46.538  0.00  0.00    +0.000 N 
ATOM      4  H   UNL     1      12.846  41.564  46.666  0.00  0.00    +0.000 HD
ENDROOT
BRANCH   2   5
ATOM      5  C   UNL     1      13.336  43.106  44.682  0.00  0.00    +0.000 C 
ATOM      6  C   UNL     1      13.018  44.512  45.137  0.00  0.00    +0.000 A 
ATOM      7  C   UNL     1      12.377  44.741  46.365  0.00  0.00    +0.000 A 
ATOM      8  C   UNL     1      12.112  46.043  46.790  0.00  0.00    +0.000 A 
ATOM      9  C   UNL     1      12.485  47.126  45.996  0.00  0.00    +0.000 A 
ATOM     10  C   UNL     1      13.121  46.906  44.775  0.00  0.00    +0.000 A 
ATOM     11  C   UNL     1      13.382  45.603  44.345  0.00  0.00    +0.000 A 
ATOM     12  O   UNL     1      14.010  45.483  43.129  0.00  0.00    +0.000 OA
ATOM     13  C   UNL     1      14.107  44.234  42.563  0.00  0.00    +0.000 A 
ATOM     14  C   UNL     1      14.563  44.191  41.245  0.00  0.00    +0.000 A 
ATOM     15  C   UNL     1      14.693  42.968  40.588  0.00  0.00    +0.000 A 
ATOM     16  C   UNL     1      14.367  41.786  41.251  0.00  0.00    +0.000 A 
ATOM     17  C   UNL     1      13.915  41.827  42.571  0.00  0.00    +0.000 A 
ATOM     18  C   UNL     1      13.786  43.055  43.239  0.00  0.00    +0.000 A 
ENDBRANCH   2   5
BRANCH   3  19
ATOM     19  C   UNL     1      14.678  40.963  47.578  0.00  0.00    +0.000 C 
ATOM     20  C   UNL     1      13.918  40.869  48.898  0.00  0.00    +0.000 C 
ATOM     21  C   UNL     1      14.809  40.270  49.993  0.00  0.00    +0.000 C 
ATOM     22  N   UNL     1      15.740  39.230  49.525  0.00  0.00    +0.000 NA
ATOM     23  C   UNL     1      15.250  38.581  48.307  0.00  0.00    +0.000 C 
ATOM     24  C   UNL     1      15.180  39.579  47.147  0.00  0.00    +0.000 C 
BRANCH  22  25
ATOM     25  C   UNL     1      16.073  38.235  50.561  0.00  0.00    +0.000 C 
BRANCH  25  26
ATOM     26  C   UNL     1      16.422  38.819  51.953  0.00  0.00    +0.000 C 
ATOM     27  C   UNL     1      16.296  37.803  53.106  0.00  0.00    +0.000 C 
ATOM     28  C   UNL     1      17.228  38.078  54.291  0.00  0.00    +0.000 C 
ATOM     29  C   UNL     1      17.503  39.563  54.461  0.00  0.00    +0.000 C 
ATOM     30  C   UNL     1      18.185  40.150  53.226  0.00  0.00    +0.000 C 
ATOM     31  C   UNL     1      17.842  39.412  51.930  0.00  0.00    +0.000 C 
ENDBRANCH  25  26
ENDBRANCH  22  25
ENDBRANCH   3  19
TORSDOF 4
ENDMDL
MODEL 3
REMARK VINA RESULT:    -6.269      4.769      6.623
REMARK INTER + INTRA:          -8.541
REMARK INTER:                  -7.709
REMARK INTRA:                  -0.832
REMARK UNBOUND:                -0.806
REMARK  Name = 
REMARK  4 active torsions:
REMARK  status: ('A' for Active; 'I' for Inactive)
REMARK    1  A    between atoms: C_2  and  C_17
REMARK    2  A    between atoms: N_3  and  C_4
REMARK    3  A    between atoms: N_7  and  C_8
REMARK    4  A    between atoms: C_8  and  C_9
REMARK                            x       y       z     vdW  Elec       q    Type
REMARK                         _______ _______ _______ _____ _____    ______ ____
ROOT
ATOM      1  O   UNL     1      15.538  42.878  45.765  0.00  0.00    +0.000 OA
ATOM      2  C   UNL     1      14.392  42.431  45.715  0.00  0.00    +0.000 C 
ATOM      3  N   UNL     1      13.967  41.363  46.486  0.00  0.00    +0.000 N 
ATOM      4  H   UNL     1      12.970  41.185  46.519  0.00  0.00    +0.000 HD
ENDROOT
BRANCH   2   5
ATOM      5  C   UNL     1      13.322  43.048  44.800  0.00  0.00    +0.000 C 
ATOM      6  C   UNL     1      12.906  44.421  45.276  0.00  0.00    +0.000 A 
ATOM      7  C   UNL     1      12.239  44.585  46.500  0.00  0.00    +0.000 A 
ATOM      8  C   UNL     1      11.883  45.858  46.944  0.00  0.00    +0.000 A 
ATOM      9  C   UNL     1      12.190  46.978  46.173  0.00  0.00    +0.000 A 
ATOM     10  C   UNL     1      12.851  46.822  44.955  0.00  0.00    +0.000 A 
ATOM     11  C   UNL     1      13.203  45.548  44.506  0.00  0.00    +0.000 A 
ATOM     12  O   UNL     1      13.850  45.492  43.295  0.00  0.00    +0.000 OA
ATOM     13  C   UNL     1      14.036  44.263  42.709  0.00  0.00    +0.000 A 
ATOM     14  C   UNL     1      14.506  44.274  41.395  0.00  0.00    +0.000 A 
ATOM     15  C   UNL     1      14.724  43.074  40.719  0.00  0.00    +0.000 A 
ATOM     16  C   UNL     1      14.472  41.861  41.359  0.00  0.00    +0.000 A 
ATOM     17  C   UNL     1      14.006  41.848  42.674  0.00  0.00    +0.000 A 
ATOM     18  C   UNL     1      13.789  43.053  43.361  0.00  0.00    +0.000 A 
ENDBRANCH   2   5
BRANCH   3  19
ATOM     19  C   UNL     1      14.810  40.766  47.513  0.00  0.00    +0.000 C 
ATOM     20  C   UNL     1      14.015  40.497  48.789  0.00  0.00    +0.000 C 
ATOM     21  C   UNL     1      14.920  39.902  49.873  0.00  0.00    +0.000 C 
ATOM     22  N   UNL     1      15.966  38.996  49.370  0.00  0.00    +0.000 NA
ATOM     23  C   UNL     1      15.586  38.400  48.088  0.00  0.00    +0.000 C 
ATOM     24  C   UNL     1      15.461  39.475  47.003  0.00  0.00    +0.000 C 
BRANCH  22  25
ATOM     25  C   UNL     1      16.357  37.959  50.343  0.00  0.00    +0.000 C 
BRANCH  25  26
ATOM     26  C   UNL     1      17.835  37.500  50.264  0.00  0.00    +0.000 C 
ATOM     27  C   UNL     1      18.571  37.525  51.619  0.00  0.00    +0.000 C 
ATOM     28  C   UNL     1      19.703  36.500  51.740  0.00  0.00    +0.000 C 
ATOM     29  C   UNL     1      20.355  36.219  50.396  0.00  0.00    +0.000 C 
ATOM     30  C   UNL     1      19.353  35.644  49.397  0.00  0.00    +0.000 C 
ATOM     31  C   UNL     1      17.911  36.089  49.653  0.00  0.00    +0.000 C 
ENDBRANCH  25  26
ENDBRANCH  22  25
ENDBRANCH   3  19
TORSDOF 4
ENDMDL
