MODEL 1
REMARK VINA RESULT:    -6.912      0.000      0.000
REMARK INTER + INTRA:          -9.235
REMARK INTER:                  -8.361
REMARK INTRA:                  -0.874
REMARK UNBOUND:                -1.111
REMARK  Name = 
REMARK  4 active torsions:
REMARK  status: ('A' for Active; 'I' for Inactive)
REMARK    1  A    between atoms: C_1  and  C_2
REMARK    2  A    between atoms: C_5  and  C_6
REMARK    3  A    between atoms: C_6  and  N_7
REMARK    4  A    between atoms: C_17  and  C_18
REMARK                            x       y       z     vdW  Elec       q    Type
REMARK                         _______ _______ _______ _____ _____    ______ ____
ROOT
ATOM      1  N   UNL     1      15.870  38.465  48.044  0.00  0.00    +0.000 N 
ATOM      2  C   UNL     1      16.681  37.459  47.388  0.00  0.00    +0.000 C 
ATOM      3  C   UNL     1      17.663  37.091  48.462  0.00  0.00    +0.000 A 
ATOM      4  N   UNL     1      18.666  36.210  48.313  0.00  0.00    +0.000 NA
ATOM      5  C   UNL     1      19.437  35.997  49.393  0.00  0.00    +0.000 A 
ATOM      6  C   UNL     1      20.480  35.090  49.268  0.00  0.00    +0.000 A 
ATOM      7  C   UNL     1      21.338  34.798  50.330  0.00  0.00    +0.000 A 
ATOM      8  C   UNL     1      21.155  35.424  51.553  0.00  0.00    +0.000 A 
ATOM      9  C   UNL     1      20.115  36.339  51.710  0.00  0.00    +0.000 A 
ATOM     10  C   UNL     1      19.236  36.649  50.645  0.00  0.00    +0.000 A 
ATOM     11  C   UNL     1      18.160  37.580  50.762  0.00  0.00    +0.000 A 
ATOM     12  C   UNL     1      17.384  37.779  49.630  0.00  0.00    +0.000 A 
ATOM     13  C   UNL     1      16.218  38.641  49.371  0.00  0.00    +0.000 C 
ATOM     14  O   UNL     1      15.668  39.363  50.179  0.00  0.00    +0.000 OA
ENDROOT
BRANCH  11  15
ATOM     15  C   UNL     1      17.880  38.297  52.014  0.00  0.00    +0.000 A 
ATOM     16  C   UNL     1      18.374  39.594  52.222  0.00  0.00    +0.000 A 
ATOM     17  C   UNL     1      18.126  40.267  53.421  0.00  0.00    +0.000 A 
ATOM     18  C   UNL     1      17.379  39.652  54.423  0.00  0.00    +0.000 A 
ATOM     19  C   UNL     1      16.879  38.366  54.230  0.00  0.00    +0.000 A 
ATOM     20  C   UNL     1      17.128  37.692  53.033  0.00  0.00    +0.000 A 
ENDBRANCH  11  15
BRANCH   1  21
ATOM     21  C   UNL     1      14.703  39.052  47.420  0.00  0.00    +0.000 C 
BRANCH  21  26
ATOM     22  C   UNL     1      16.077  43.337  43.718  0.00  0.00    +0.000 C 
ATOM     23  C   UNL     1      15.703  42.231  44.660  0.00  0.00    +0.000 A 
ATOM     24  C   UNL     1      15.942  40.895  44.317  0.00  0.00    +0.000 A 
ATOM     25  C   UNL     1      15.622  39.866  45.207  0.00  0.00    +0.000 A 
ATOM     26  C   UNL     1      15.068  40.156  46.460  0.00  0.00    +0.000 A 
ATOM     27  C   UNL     1      14.842  41.496  46.806  0.00  0.00    +0.000 A 
ATOM     28  C   UNL     1      15.162  42.524  45.916  0.00  0.00    +0.000 A 
ENDBRANCH  21  26
ENDBRANCH   1  21
TORSDOF 3
ENDMDL
MODEL 2
REMARK VINA RESULT:    -6.626      5.851      8.409
REMARK INTER + INTRA:          -8.899
REMARK INTER:                  -7.957
REMARK INTRA:                  -0.942
REMARK UNBOUND:                -1.111
REMARK  Name = 
REMARK  4 active torsions:
REMARK  status: ('A' for Active; 'I' for Inactive)
REMARK    1  A    between atoms: C_1  and  C_2
REMARK    2  A    between atoms: C_5  and  C_6
REMARK    3  A    between atoms: C_6  and  N_7
REMARK    4  A    between atoms: C_17  and  C_18
REMARK                            x       y       z     vdW  Elec       q    Type
REMARK                         _______ _______ _______ _____ _____    ______ ____
ROOT
ATOM      1  N   UNL     1      24.313  33.137  50.032  0.00  0.00    +0.000 N 
ATOM      2  C   UNL     1      25.095  32.769  51.195  0.00  0.00    +0.000 C 
ATOM      3  C   UNL     1      24.222  33.233  52.325  0.00  0.00    +0.000 A 
ATOM      4  N   UNL     1      24.546  33.147  53.626  0.00  0.00    +0.000 NA
ATOM      5  C   UNL     1      23.629  33.601  54.499  0.00  0.00    +0.000 A 
ATOM      6  C   UNL     1      23.936  33.524  55.850  0.00  0.00    +0.000 A 
ATOM      7  C   UNL     1      23.053  33.968  56.835  0.00  0.00    +0.000 A 
ATOM      8  C   UNL     1      21.828  34.504  56.469  0.00  0.00    +0.000 A 
ATOM      9  C   UNL     1      21.491  34.594  55.120  0.00  0.00    +0.000 A 
ATOM     10  C   UNL     1      22.373  34.150  54.106  0.00  0.00    +0.000 A 
ATOM     11  C   UNL     1      22.068  34.224  52.713  0.00  0.00    +0.000 A 
ATOM     12  C   UNL     1      23.034  33.749  51.839  0.00  0.00    +0.000 A 
ATOM     13  C   UNL     1      23.080  33.665  50.369  0.00  0.00    +0.000 C 
ATOM     14  O   UNL     1      22.194  33.993  49.605  0.00  0.00    +0.000 OA
ENDROOT
BRANCH  11  15
ATOM     15  C   UNL     1      20.798  34.774  52.220  0.00  0.00    +0.000 A 
ATOM     16  C   UNL     1      19.656  33.965  52.127  0.00  0.00    +0.000 A 
ATOM     17  C   UNL     1      18.454  34.483  51.639  0.00  0.00    +0.000 A 
ATOM     18  C   UNL     1      18.380  35.816  51.239  0.00  0.00    +0.000 A 
ATOM     19  C   UNL     1      19.506  36.633  51.328  0.00  0.00    +0.000 A 
ATOM     20  C   UNL     1      20.708  36.116  51.815  0.00  0.00    +0.000 A 
ENDBRANCH  11  15
BRANCH   1  21
ATOM     21  C   UNL     1      24.712  32.790  48.684  0.00  0.00    +0.000 C 
BRANCH  21  26
ATOM     22  C   UNL     1      24.619  37.370  45.083  0.00  0.00    +0.000 C 
ATOM     23  C   UNL     1      24.663  36.183  45.999  0.00  0.00    +0.000 A 
ATOM     24  C   UNL     1      25.426  36.219  47.172  0.00  0.00    +0.000 A 
ATOM     25  C   UNL     1      25.444  35.126  48.041  0.00  0.00    +0.000 A 
ATOM     26  C   UNL     1      24.687  33.982  47.760  0.00  0.00    +0.000 A 
ATOM     27  C   UNL     1      23.913  33.953  46.592  0.00  0.00    +0.000 A 
ATOM     28  C   UNL     1      23.896  35.046  45.723  0.00  0.00    +0.000 A 
ENDBRANCH  21  26
ENDBRANCH   1  21
TORSDOF 3
ENDMDL
MODEL 3
REMARK VINA RESULT:    -6.316      2.067      2.994
REMARK INTER + INTRA:          -8.535
REMARK INTER:                  -7.424
REMARK INTRA:                  -1.111
REMARK UNBOUND:                -1.111
REMARK  Name = 
REMARK  4 active torsions:
REMARK  status: ('A' for Active; 'I' for Inactive)
REMARK    1  A    between atoms: C_1  and  C_2
REMARK    2  A    between atoms: C_5  and  C_6
REMARK    3  A    between atoms: C_6  and  N_7
REMARK    4  A    between atoms: C_17  and  C_18
REMARK                            x       y       z     vdW  Elec       q    Type
REMARK                         _______ _______ _______ _____ _____    ______ ____
ROOT
ATOM      1  N   UNL     1      14.050  39.958  47.782  0.00  0.00    +0.000 N 
ATOM      2  C   UNL     1      14.837  38.871  47.236  0.00  0.00    +0.000 C 
ATOM      3  C   UNL     1      15.794  38.578  48.355  0.00  0.00    +0.000 A 
ATOM      4  N   UNL     1      16.771  37.657  48.304  0.00  0.00    +0.000 NA
ATOM      5  C   UNL     1      17.522  37.524  49.411  0.00  0.00    +0.000 A 
ATOM      6  C   UNL     1      18.538  36.579  49.388  0.00  0.00    +0.000 A 
ATOM      7  C   UNL     1      19.373  36.364  50.485  0.00  0.00    +0.000 A 
ATOM      8  C   UNL     1      19.195  37.108  51.641  0.00  0.00    +0.000 A 
ATOM      9  C   UNL     1      18.183  38.064  51.695  0.00  0.00    +0.000 A 
ATOM     10  C   UNL     1      17.326  38.298  50.593  0.00  0.00    +0.000 A 
ATOM     11  C   UNL     1      16.278  39.267  50.605  0.00  0.00    +0.000 A 
ATOM     12  C   UNL     1      15.522  39.381  49.448  0.00  0.00    +0.000 A 
ATOM     13  C   UNL     1      14.386  40.249  49.092  0.00  0.00    +0.000 C 
ATOM     14  O   UNL     1      13.850  41.060  49.820  0.00  0.00    +0.000 OA
ENDROOT
BRANCH  11  15
ATOM     15  C   UNL     1      16.006  40.107  51.780  0.00  0.00    +0.000 A 
ATOM     16  C   UNL     1      15.120  39.676  52.779  0.00  0.00    +0.000 A 
ATOM     17  C   UNL     1      14.845  40.484  53.885  0.00  0.00    +0.000 A 
ATOM     18  C   UNL     1      15.454  41.731  54.005  0.00  0.00    +0.000 A 
ATOM     19  C   UNL     1      16.338  42.173  53.022  0.00  0.00    +0.000 A 
ATOM     20  C   UNL     1      16.612  41.366  51.916  0.00  0.00    +0.000 A 
ENDBRANCH  11  15
BRANCH   1  21
ATOM     21  C   UNL     1      12.909  40.518  47.089  0.00  0.00    +0.000 C 
BRANCH  21  26
ATOM     22  C   UNL     1      13.820  46.070  45.573  0.00  0.00    +0.000 C 
ATOM     23  C   UNL     1      13.593  44.646  45.985  0.00  0.00    +0.000 A 
ATOM     24  C   UNL     1      12.395  44.268  46.602  0.00  0.00    +0.000 A 
ATOM     25  C   UNL     1      12.170  42.936  46.959  0.00  0.00    +0.000 A 
ATOM     26  C   UNL     1      13.135  41.956  46.693  0.00  0.00    +0.000 A 
ATOM     27  C   UNL     1      14.329  42.335  46.062  0.00  0.00    +0.000 A 
ATOM     28  C   UNL     1      14.553  43.667  45.707  0.00  0.00    +0.000 A 
ENDBRANCH  21  26
ENDBRANCH   1  21
TORSDOF 3
ENDMDL
