MODEL 1
REMARK VINA RESULT:    -6.668      0.000      0.000
REMARK INTER + INTRA:         -11.246
REMARK INTER:                  -8.846
REMARK INTRA:                  -2.401
REMARK UNBOUND:                -2.434
REMARK  Name = 
REMARK  6 active torsions:
REMARK  status: ('A' for Active; 'I' for Inactive)
REMARK    1  A    between atoms: C_2  and  C_21
REMARK    2  A    between atoms: N_3  and  C_4
REMARK    3  A    between atoms: C_9  and  O_10
REMARK    4  A    between atoms: C_14  and  C_15
REMARK    5  A    between atoms: C_21  and  C_22
REMARK    6  A    between atoms: C_21  and  C_28
REMARK                            x       y       z     vdW  Elec       q    Type
REMARK                         _______ _______ _______ _____ _____    ______ ____
ROOT
ATOM      1  C   UNL     1      16.655  37.862  47.386  0.00  0.00    +0.000 C 
ATOM      2  C   UNL     1      15.890  39.184  47.369  0.00  0.00    +0.000 A 
ATOM      3  C   UNL     1      15.121  39.555  48.491  0.00  0.00    +0.000 A 
ATOM      4  C   UNL     1      14.394  40.744  48.507  0.00  0.00    +0.000 A 
ATOM      5  C   UNL     1      14.410  41.582  47.397  0.00  0.00    +0.000 A 
ATOM      6  C   UNL     1      15.141  41.212  46.270  0.00  0.00    +0.000 A 
ATOM      7  C   UNL     1      15.867  40.012  46.227  0.00  0.00    +0.000 A 
ATOM      8  C   UNL     1      16.630  39.650  44.975  0.00  0.00    +0.000 C 
ATOM      9  C   UNL     1      17.032  38.181  44.912  0.00  0.00    +0.000 C 
ATOM     10  C   UNL     1      17.691  37.757  46.228  0.00  0.00    +0.000 C 
ENDROOT
BRANCH  10  11
ATOM     11  C   UNL     1      18.359  36.398  46.058  0.00  0.00    +0.000 A 
ATOM     12  C   UNL     1      19.714  36.342  45.686  0.00  0.00    +0.000 A 
ATOM     13  C   UNL     1      20.357  35.117  45.503  0.00  0.00    +0.000 A 
ATOM     14  C   UNL     1      19.657  33.928  45.686  0.00  0.00    +0.000 A 
ATOM     15  C   UNL     1      18.312  33.966  46.042  0.00  0.00    +0.000 A 
ATOM     16  C   UNL     1      17.665  35.191  46.221  0.00  0.00    +0.000 A 
ENDBRANCH  10  11
BRANCH   1  19
ATOM     17  O   UNL     1      15.862  36.148  49.490  0.00  0.00    +0.000 OA
ATOM     18  C   UNL     1      16.911  36.777  49.620  0.00  0.00    +0.000 C 
ATOM     19  N   UNL     1      17.332  37.692  48.670  0.00  0.00    +0.000 N 
ATOM     20  H   UNL     1      18.235  38.136  48.782  0.00  0.00    +0.000 HD
BRANCH  18  21
ATOM     21  C   UNL     1      17.818  36.706  50.872  0.00  0.00    +0.000 C 
BRANCH  21  22
ATOM     22  C   UNL     1      19.264  36.295  50.599  0.00  0.00    +0.000 A 
ATOM     23  C   UNL     1      20.308  36.618  51.481  0.00  0.00    +0.000 A 
ATOM     24  C   UNL     1      21.617  36.200  51.223  0.00  0.00    +0.000 A 
ATOM     25  C   UNL     1      21.900  35.450  50.084  0.00  0.00    +0.000 A 
ATOM     26  C   UNL     1      20.875  35.112  49.202  0.00  0.00    +0.000 A 
ATOM     27  C   UNL     1      19.567  35.528  49.459  0.00  0.00    +0.000 A 
ENDBRANCH  21  22
BRANCH  21  28
ATOM     28  C   UNL     1      17.742  37.965  51.739  0.00  0.00    +0.000 A 
ATOM     29  C   UNL     1      17.883  39.235  51.150  0.00  0.00    +0.000 A 
ATOM     30  C   UNL     1      17.824  40.392  51.931  0.00  0.00    +0.000 A 
ATOM     31  C   UNL     1      17.616  40.297  53.306  0.00  0.00    +0.000 A 
ATOM     32  C   UNL     1      17.461  39.047  53.901  0.00  0.00    +0.000 A 
ATOM     33  C   UNL     1      17.520  37.888  53.123  0.00  0.00    +0.000 A 
ENDBRANCH  21  28
ENDBRANCH  18  21
ENDBRANCH   1  19
BRANCH   6  34
ATOM     34  O   UNL     1      15.156  42.027  45.172  0.00  0.00    +0.000 OA
ATOM     35  H   UNL     1      16.067  42.079  44.836  0.00  0.00    +0.000 HD
ENDBRANCH   6  34
TORSDOF 6
ENDMDL
MODEL 2
REMARK VINA RESULT:    -6.645      4.009      6.044
REMARK INTER + INTRA:         -11.215
REMARK INTER:                  -8.769
REMARK INTRA:                  -2.446
REMARK UNBOUND:                -2.434
REMARK  Name = 
REMARK  6 active torsions:
REMARK  status: ('A' for Active; 'I' for Inactive)
REMARK    1  A    between atoms: C_2  and  C_21
REMARK    2  A    between atoms: N_3  and  C_4
REMARK    3  A    between atoms: C_9  and  O_10
REMARK    4  A    between atoms: C_14  and  C_15
REMARK    5  A    between atoms: C_21  and  C_22
REMARK    6  A    between atoms: C_21  and  C_28
REMARK                            x       y       z     vdW  Elec       q    Type
REMARK                         _______ _______ _______ _____ _____    ______ ____
ROOT
ATOM      1  C   UNL     1      17.312  37.791  53.174  0.00  0.00    +0.000 C 
ATOM      2  C   UNL     1      16.706  39.089  53.704  0.00  0.00    +0.000 A 
ATOM      3  C   UNL     1      15.850  39.049  54.823  0.00  0.00    +0.000 A 
ATOM      4  C   UNL     1      15.263  40.210  55.325  0.00  0.00    +0.000 A 
ATOM      5  C   UNL     1      15.509  41.434  54.711  0.00  0.00    +0.000 A 
ATOM      6  C   UNL     1      16.328  41.482  53.585  0.00  0.00    +0.000 A 
ATOM      7  C   UNL     1      16.916  40.324  53.055  0.00  0.00    +0.000 A 
ATOM      8  C   UNL     1      17.784  40.430  51.823  0.00  0.00    +0.000 C 
ATOM      9  C   UNL     1      18.026  39.092  51.133  0.00  0.00    +0.000 C 
ATOM     10  C   UNL     1      18.466  38.042  52.159  0.00  0.00    +0.000 C 
ENDROOT
BRANCH  10  11
ATOM     11  C   UNL     1      18.995  36.807  51.439  0.00  0.00    +0.000 A 
ATOM     12  C   UNL     1      20.380  36.671  51.240  0.00  0.00    +0.000 A 
ATOM     13  C   UNL     1      20.902  35.563  50.570  0.00  0.00    +0.000 A 
ATOM     14  C   UNL     1      20.050  34.575  50.086  0.00  0.00    +0.000 A 
ATOM     15  C   UNL     1      18.675  34.700  50.265  0.00  0.00    +0.000 A 
ATOM     16  C   UNL     1      18.149  35.810  50.931  0.00  0.00    +0.000 A 
ENDBRANCH  10  11
BRANCH   1  19
ATOM     17  O   UNL     1      16.409  35.210  53.893  0.00  0.00    +0.000 OA
ATOM     18  C   UNL     1      17.347  35.691  54.525  0.00  0.00    +0.000 C 
ATOM     19  N   UNL     1      17.802  36.978  54.285  0.00  0.00    +0.000 N 
ATOM     20  H   UNL     1      18.621  37.309  54.779  0.00  0.00    +0.000 HD
BRANCH  18  21
ATOM     21  C   UNL     1      18.057  34.983  55.704  0.00  0.00    +0.000 C 
BRANCH  21  22
ATOM     22  C   UNL     1      19.568  34.816  55.542  0.00  0.00    +0.000 A 
ATOM     23  C   UNL     1      20.432  34.757  56.648  0.00  0.00    +0.000 A 
ATOM     24  C   UNL     1      21.805  34.571  56.472  0.00  0.00    +0.000 A 
ATOM     25  C   UNL     1      22.335  34.435  55.190  0.00  0.00    +0.000 A 
ATOM     26  C   UNL     1      21.492  34.481  54.082  0.00  0.00    +0.000 A 
ATOM     27  C   UNL     1      20.118  34.667  54.256  0.00  0.00    +0.000 A 
ENDBRANCH  21  22
BRANCH  21  28
ATOM     28  C   UNL     1      17.696  35.580  57.066  0.00  0.00    +0.000 A 
ATOM     29  C   UNL     1      17.073  34.781  58.041  0.00  0.00    +0.000 A 
ATOM     30  C   UNL     1      16.730  35.316  59.286  0.00  0.00    +0.000 A 
ATOM     31  C   UNL     1      17.012  36.649  59.575  0.00  0.00    +0.000 A 
ATOM     32  C   UNL     1      17.641  37.449  58.623  0.00  0.00    +0.000 A 
ATOM     33  C   UNL     1      17.985  36.918  57.378  0.00  0.00    +0.000 A 
ENDBRANCH  21  28
ENDBRANCH  18  21
ENDBRANCH   1  19
BRANCH   6  34
ATOM     34  O   UNL     1      16.570  42.681  52.972  0.00  0.00    +0.000 OA
ATOM     35  H   UNL     1      16.728  42.520  52.027  0.00  0.00    +0.000 HD
ENDBRANCH   6  34
TORSDOF 6
ENDMDL
MODEL 3
REMARK VINA RESULT:    -6.623      4.461      8.604
REMARK INTER + INTRA:         -11.186
REMARK INTER:                  -8.752
REMARK INTRA:                  -2.434
REMARK UNBOUND:                -2.434
REMARK  Name = 
REMARK  6 active torsions:
REMARK  status: ('A' for Active; 'I' for Inactive)
REMARK    1  A    between atoms: C_2  and  C_21
REMARK    2  A    between atoms: N_3  and  C_4
REMARK    3  A    between atoms: C_9  and  O_10
REMARK    4  A    between atoms: C_14  and  C_15
REMARK    5  A    between atoms: C_21  and  C_22
REMARK    6  A    between atoms: C_21  and  C_28
REMARK                            x       y       z     vdW  Elec       q    Type
REMARK                         _______ _______ _______ _____ _____    ______ ____
ROOT
ATOM      1  C   UNL     1      17.057  37.615  55.929  0.00  0.00    +0.000 C 
ATOM      2  C   UNL     1      17.053  37.634  57.456  0.00  0.00    +0.000 A 
ATOM      3  C   UNL     1      17.030  36.416  58.165  0.00  0.00    +0.000 A 
ATOM      4  C   UNL     1      17.007  36.391  59.559  0.00  0.00    +0.000 A 
ATOM      5  C   UNL     1      16.995  37.584  60.274  0.00  0.00    +0.000 A 
ATOM      6  C   UNL     1      16.985  38.795  59.585  0.00  0.00    +0.000 A 
ATOM      7  C   UNL     1      16.992  38.842  58.182  0.00  0.00    +0.000 A 
ATOM      8  C   UNL     1      16.966  40.181  57.485  0.00  0.00    +0.000 C 
ATOM      9  C   UNL     1      16.580  40.092  56.012  0.00  0.00    +0.000 C 
ATOM     10  C   UNL     1      17.405  39.004  55.317  0.00  0.00    +0.000 C 
ENDROOT
BRANCH  10  11
ATOM     11  C   UNL     1      17.243  39.121  53.805  0.00  0.00    +0.000 A 
ATOM     12  C   UNL     1      18.147  39.916  53.079  0.00  0.00    +0.000 A 
ATOM     13  C   UNL     1      18.022  40.062  51.696  0.00  0.00    +0.000 A 
ATOM     14  C   UNL     1      16.991  39.419  51.018  0.00  0.00    +0.000 A 
ATOM     15  C   UNL     1      16.080  38.638  51.724  0.00  0.00    +0.000 A 
ATOM     16  C   UNL     1      16.200  38.494  53.108  0.00  0.00    +0.000 A 
ENDBRANCH  10  11
BRANCH   1  19
ATOM     17  O   UNL     1      16.419  35.254  54.512  0.00  0.00    +0.000 OA
ATOM     18  C   UNL     1      17.606  35.515  54.696  0.00  0.00    +0.000 C 
ATOM     19  N   UNL     1      18.002  36.612  55.443  0.00  0.00    +0.000 N 
ATOM     20  H   UNL     1      18.988  36.830  55.512  0.00  0.00    +0.000 HD
BRANCH  18  21
ATOM     21  C   UNL     1      18.778  34.624  54.219  0.00  0.00    +0.000 C 
BRANCH  21  22
ATOM     22  C   UNL     1      19.554  35.165  53.018  0.00  0.00    +0.000 A 
ATOM     23  C   UNL     1      20.720  34.543  52.545  0.00  0.00    +0.000 A 
ATOM     24  C   UNL     1      21.392  35.041  51.425  0.00  0.00    +0.000 A 
ATOM     25  C   UNL     1      20.905  36.163  50.759  0.00  0.00    +0.000 A 
ATOM     26  C   UNL     1      19.744  36.789  51.209  0.00  0.00    +0.000 A 
ATOM     27  C   UNL     1      19.071  36.292  52.328  0.00  0.00    +0.000 A 
ENDBRANCH  21  22
BRANCH  21  28
ATOM     28  C   UNL     1      19.713  34.204  55.355  0.00  0.00    +0.000 A 
ATOM     29  C   UNL     1      19.299  33.233  56.284  0.00  0.00    +0.000 A 
ATOM     30  C   UNL     1      20.140  32.846  57.331  0.00  0.00    +0.000 A 
ATOM     31  C   UNL     1      21.404  33.417  57.459  0.00  0.00    +0.000 A 
ATOM     32  C   UNL     1      21.833  34.371  56.538  0.00  0.00    +0.000 A 
ATOM     33  C   UNL     1      20.995  34.760  55.491  0.00  0.00    +0.000 A 
ENDBRANCH  21  28
ENDBRANCH  18  21
ENDBRANCH   1  19
BRANCH   6  34
ATOM     34  O   UNL     1      16.966  39.972  60.281  0.00  0.00    +0.000 OA
ATOM     35  H   UNL     1      17.138  39.782  61.219  0.00  0.00    +0.000 HD
ENDBRANCH   6  34
TORSDOF 6
ENDMDL
