MODEL 1
REMARK VINA RESULT:    -6.035      0.000      0.000
REMARK INTER + INTRA:          -8.769
REMARK INTER:                  -7.914
REMARK INTRA:                  -0.855
REMARK UNBOUND:                -0.793
REMARK  Name = 
REMARK  6 active torsions:
REMARK  status: ('A' for Active; 'I' for Inactive)
REMARK    1  A    between atoms: C_2  and  O_3
REMARK    2  A    between atoms: C_2  and  C_4
REMARK    3  A    between atoms: C_7  and  C_8
REMARK    4  A    between atoms: C_8  and  C_9
REMARK    5  A    between atoms: C_12  and  O_13
REMARK    6  A    between atoms: O_13  and  C_14
REMARK                            x       y       z     vdW  Elec       q    Type
REMARK                         _______ _______ _______ _____ _____    ______ ____
ROOT
ATOM      1  C   UNL     1      13.678  46.713  45.676  0.00  0.00    +0.000 A 
ATOM      2  C   UNL     1      14.522  47.697  45.140  0.00  0.00    +0.000 A 
ATOM      3  C   UNL     1      14.171  49.047  45.210  0.00  0.00    +0.000 A 
ATOM      4  C   UNL     1      12.980  49.424  45.831  0.00  0.00    +0.000 A 
ATOM      5  C   UNL     1      12.120  48.453  46.346  0.00  0.00    +0.000 A 
ATOM      6  C   UNL     1      12.473  47.104  46.276  0.00  0.00    +0.000 A 
ENDROOT
BRANCH   1   7
ATOM      7  C   UNL     1      14.056  45.251  45.595  0.00  0.00    +0.000 C 
BRANCH   7  11
ATOM      8  C   UNL     1      14.468  43.772  41.550  0.00  0.00    +0.000 A 
ATOM      9  C   UNL     1      15.416  43.437  42.523  0.00  0.00    +0.000 A 
ATOM     10  C   UNL     1      15.281  43.914  43.829  0.00  0.00    +0.000 A 
ATOM     11  C   UNL     1      14.198  44.732  44.181  0.00  0.00    +0.000 A 
ATOM     12  C   UNL     1      13.252  45.065  43.202  0.00  0.00    +0.000 A 
ATOM     13  C   UNL     1      13.384  44.589  41.894  0.00  0.00    +0.000 A 
BRANCH   8  15
ATOM     14  O   UNL     1      14.708  43.906  39.158  0.00  0.00    +0.000 OA
ATOM     15  C   UNL     1      14.651  43.244  40.177  0.00  0.00    +0.000 C 
BRANCH  15  16
ATOM     16  O   UNL     1      14.758  41.903  40.142  0.00  0.00    +0.000 OA
ATOM     17  H   UNL     1      14.899  41.658  41.081  0.00  0.00    +0.000 HD
ENDBRANCH  15  16
ENDBRANCH   8  15
ENDBRANCH   7  11
ENDBRANCH   1   7
BRANCH   4  18
ATOM     18  O   UNL     1      12.557  50.732  45.902  0.00  0.00    +0.000 OA
BRANCH  18  19
ATOM     19  C   UNL     1      13.106  51.521  46.887  0.00  0.00    +0.000 A 
ATOM     20  C   UNL     1      14.357  52.130  46.755  0.00  0.00    +0.000 A 
ATOM     21  C   UNL     1      14.873  52.886  47.809  0.00  0.00    +0.000 A 
ATOM     22  C   UNL     1      14.148  53.021  48.993  0.00  0.00    +0.000 A 
ATOM     23  C   UNL     1      12.909  52.393  49.131  0.00  0.00    +0.000 A 
ATOM     24  C   UNL     1      12.391  51.635  48.080  0.00  0.00    +0.000 A 
ENDBRANCH  18  19
ENDBRANCH   4  18
TORSDOF 6
ENDMDL
MODEL 2
REMARK VINA RESULT:    -5.915     12.770     16.006
REMARK INTER + INTRA:          -8.610
REMARK INTER:                  -7.669
REMARK INTRA:                  -0.940
REMARK UNBOUND:                -0.793
REMARK  Name = 
REMARK  6 active torsions:
REMARK  status: ('A' for Active; 'I' for Inactive)
REMARK    1  A    between atoms: C_2  and  O_3
REMARK    2  A    between atoms: C_2  and  C_4
REMARK    3  A    between atoms: C_7  and  C_8
REMARK    4  A    between atoms: C_8  and  C_9
REMARK    5  A    between atoms: C_12  and  O_13
REMARK    6  A    between atoms: O_13  and  C_14
REMARK                            x       y       z     vdW  Elec       q    Type
REMARK                         _______ _______ _______ _____ _____    ______ ____
ROOT
ATOM      1  C   UNL     1      18.677  36.427  50.873  0.00  0.00    +0.000 A 
ATOM      2  C   UNL     1      20.078  36.423  50.957  0.00  0.00    +0.000 A 
ATOM      3  C   UNL     1      20.743  35.421  51.665  0.00  0.00    +0.000 A 
ATOM      4  C   UNL     1      20.013  34.404  52.283  0.00  0.00    +0.000 A 
ATOM      5  C   UNL     1      18.619  34.410  52.228  0.00  0.00    +0.000 A 
ATOM      6  C   UNL     1      17.955  35.412  51.519  0.00  0.00    +0.000 A 
ENDROOT
BRANCH   1   7
ATOM      7  C   UNL     1      17.957  37.516  50.110  0.00  0.00    +0.000 C 
BRANCH   7  11
ATOM      8  C   UNL     1      16.665  40.821  52.585  0.00  0.00    +0.000 A 
ATOM      9  C   UNL     1      17.852  40.141  52.880  0.00  0.00    +0.000 A 
ATOM     10  C   UNL     1      18.269  39.075  52.079  0.00  0.00    +0.000 A 
ATOM     11  C   UNL     1      17.506  38.673  50.974  0.00  0.00    +0.000 A 
ATOM     12  C   UNL     1      16.317  39.358  50.683  0.00  0.00    +0.000 A 
ATOM     13  C   UNL     1      15.898  40.426  51.483  0.00  0.00    +0.000 A 
BRANCH   8  15
ATOM     14  O   UNL     1      15.637  41.852  54.502  0.00  0.00    +0.000 OA
ATOM     15  C   UNL     1      16.261  41.946  53.462  0.00  0.00    +0.000 C 
BRANCH  15  16
ATOM     16  O   UNL     1      16.662  43.143  52.996  0.00  0.00    +0.000 OA
ATOM     17  H   UNL     1      16.685  43.707  53.797  0.00  0.00    +0.000 HD
ENDBRANCH  15  16
ENDBRANCH   8  15
ENDBRANCH   7  11
ENDBRANCH   1   7
BRANCH   4  18
ATOM     18  O   UNL     1      20.603  33.407  53.027  0.00  0.00    +0.000 OA
BRANCH  18  19
ATOM     19  C   UNL     1      21.356  33.792  54.112  0.00  0.00    +0.000 A 
ATOM     20  C   UNL     1      22.746  33.648  54.155  0.00  0.00    +0.000 A 
ATOM     21  C   UNL     1      23.446  34.024  55.303  0.00  0.00    +0.000 A 
ATOM     22  C   UNL     1      22.758  34.526  56.408  0.00  0.00    +0.000 A 
ATOM     23  C   UNL     1      21.368  34.647  56.371  0.00  0.00    +0.000 A 
ATOM     24  C   UNL     1      20.665  34.272  55.225  0.00  0.00    +0.000 A 
ENDBRANCH  18  19
ENDBRANCH   4  18
TORSDOF 6
ENDMDL
MODEL 3
REMARK VINA RESULT:    -5.862     13.454     15.131
REMARK INTER + INTRA:          -8.540
REMARK INTER:                  -7.747
REMARK INTRA:                  -0.793
REMARK UNBOUND:                -0.793
REMARK  Name = 
REMARK  6 active torsions:
REMARK  status: ('A' for Active; 'I' for Inactive)
REMARK    1  A    between atoms: C_2  and  O_3
REMARK    2  A    between atoms: C_2  and  C_4
REMARK    3  A    between atoms: C_7  and  C_8
REMARK    4  A    between atoms: C_8  and  C_9
REMARK    5  A    between atoms: C_12  and  O_13
REMARK    6  A    between atoms: O_13  and  C_14
REMARK                            x       y       z     vdW  Elec       q    Type
REMARK                         _______ _______ _______ _____ _____    ______ ____
ROOT
ATOM      1  C   UNL     1      17.651  37.081  54.401  0.00  0.00    +0.000 A 
ATOM      2  C   UNL     1      17.417  38.038  55.400  0.00  0.00    +0.000 A 
ATOM      3  C   UNL     1      17.312  39.392  55.076  0.00  0.00    +0.000 A 
ATOM      4  C   UNL     1      17.425  39.798  53.745  0.00  0.00    +0.000 A 
ATOM      5  C   UNL     1      17.681  38.860  52.745  0.00  0.00    +0.000 A 
ATOM      6  C   UNL     1      17.785  37.507  53.071  0.00  0.00    +0.000 A 
ENDROOT
BRANCH   1   7
ATOM      7  C   UNL     1      17.769  35.616  54.754  0.00  0.00    +0.000 C 
BRANCH   7  11
ATOM      8  C   UNL     1      21.805  34.343  55.652  0.00  0.00    +0.000 A 
ATOM      9  C   UNL     1      21.370  34.423  54.325  0.00  0.00    +0.000 A 
ATOM     10  C   UNL     1      20.067  34.835  54.035  0.00  0.00    +0.000 A 
ATOM     11  C   UNL     1      19.181  35.173  55.068  0.00  0.00    +0.000 A 
ATOM     12  C   UNL     1      19.622  35.091  56.397  0.00  0.00    +0.000 A 
ATOM     13  C   UNL     1      20.926  34.679  56.688  0.00  0.00    +0.000 A 
BRANCH   8  15
ATOM     14  O   UNL     1      23.787  33.988  56.971  0.00  0.00    +0.000 OA
ATOM     15  C   UNL     1      23.196  33.900  55.911  0.00  0.00    +0.000 C 
BRANCH  15  16
ATOM     16  O   UNL     1      23.785  33.363  54.828  0.00  0.00    +0.000 OA
ATOM     17  H   UNL     1      24.702  33.188  55.126  0.00  0.00    +0.000 HD
ENDBRANCH  15  16
ENDBRANCH   8  15
ENDBRANCH   7  11
ENDBRANCH   1   7
BRANCH   4  18
ATOM     18  O   UNL     1      17.369  41.119  53.361  0.00  0.00    +0.000 OA
BRANCH  18  19
ATOM     19  C   UNL     1      16.141  41.739  53.411  0.00  0.00    +0.000 A 
ATOM     20  C   UNL     1      14.937  41.029  53.408  0.00  0.00    +0.000 A 
ATOM     21  C   UNL     1      13.725  41.722  53.422  0.00  0.00    +0.000 A 
ATOM     22  C   UNL     1      13.718  43.117  53.422  0.00  0.00    +0.000 A 
ATOM     23  C   UNL     1      14.921  43.824  53.401  0.00  0.00    +0.000 A 
ATOM     24  C   UNL     1      16.134  43.134  53.387  0.00  0.00    +0.000 A 
ENDBRANCH  18  19
ENDBRANCH   4  18
TORSDOF 6
ENDMDL
