MODEL 1
REMARK VINA RESULT:    -6.501      0.000      0.000
REMARK INTER + INTRA:          -9.096
REMARK INTER:                  -8.198
REMARK INTRA:                  -0.898
REMARK UNBOUND:                -1.075
REMARK  Name = 
REMARK  5 active torsions:
REMARK  status: ('A' for Active; 'I' for Inactive)
REMARK    1  A    between atoms: C_1  and  C_2
REMARK    2  A    between atoms: C_6  and  C_7
REMARK    3  A    between atoms: C_15  and  N_16
REMARK    4  A    between atoms: C_21  and  C_22
REMARK    5  A    between atoms: C_22  and  C_23
REMARK                            x       y       z     vdW  Elec       q    Type
REMARK                         _______ _______ _______ _____ _____    ______ ____
ROOT
ATOM      1  C   UNL     1      13.516  40.637  49.579  0.00  0.00    +0.000 C 
ATOM      2  C   UNL     1      14.665  39.921  50.257  0.00  0.00    +0.000 A 
ATOM      3  N   UNL     1      15.472  39.274  49.469  0.00  0.00    +0.000 NA
ATOM      4  C   UNL     1      16.503  38.607  50.050  0.00  0.00    +0.000 A 
ATOM      5  N   UNL     1      17.446  37.892  49.481  0.00  0.00    +0.000 NA
ATOM      6  C   UNL     1      18.207  37.442  50.528  0.00  0.00    +0.000 A 
ATOM      7  N   UNL     1      17.783  37.843  51.733  0.00  0.00    +0.000 NA
ATOM      8  N   UNL     1      16.688  38.594  51.431  0.00  0.00    +0.000 N 
ATOM      9  C   UNL     1      15.819  39.301  52.301  0.00  0.00    +0.000 A 
ATOM     10  C   UNL     1      14.797  40.009  51.763  0.00  0.00    +0.000 A 
ENDROOT
BRANCH   6  11
ATOM     11  C   UNL     1      19.380  36.595  50.323  0.00  0.00    +0.000 A 
ATOM     12  C   UNL     1      20.442  36.595  51.240  0.00  0.00    +0.000 A 
ATOM     13  C   UNL     1      21.559  35.779  51.037  0.00  0.00    +0.000 A 
ATOM     14  C   UNL     1      21.628  34.958  49.913  0.00  0.00    +0.000 A 
ATOM     15  C   UNL     1      20.581  34.948  48.993  0.00  0.00    +0.000 A 
ATOM     16  C   UNL     1      19.463  35.762  49.197  0.00  0.00    +0.000 A 
ENDBRANCH   6  11
BRANCH   9  17
ATOM     17  N   UNL     1      16.051  39.252  53.692  0.00  0.00    +0.000 N 
ATOM     18  C   UNL     1      15.835  37.986  54.431  0.00  0.00    +0.000 C 
ATOM     19  C   UNL     1      17.054  37.821  55.329  0.00  0.00    +0.000 C 
ATOM     20  C   UNL     1      17.466  39.253  55.601  0.00  0.00    +0.000 C 
ATOM     21  C   UNL     1      17.254  39.911  54.246  0.00  0.00    +0.000 C 
ENDBRANCH   9  17
BRANCH  10  22
ATOM     22  C   UNL     1      13.812  40.810  52.576  0.00  0.00    +0.000 C 
BRANCH  22  23
ATOM     23  C   UNL     1      14.238  42.232  52.882  0.00  0.00    +0.000 A 
ATOM     24  C   UNL     1      15.557  42.664  52.674  0.00  0.00    +0.000 A 
ATOM     25  C   UNL     1      15.933  43.973  52.980  0.00  0.00    +0.000 A 
ATOM     26  C   UNL     1      15.001  44.862  53.511  0.00  0.00    +0.000 A 
ATOM     27  C   UNL     1      13.694  44.441  53.743  0.00  0.00    +0.000 A 
ATOM     28  C   UNL     1      13.316  43.132  53.437  0.00  0.00    +0.000 A 
ENDBRANCH  22  23
ENDBRANCH  10  22
TORSDOF 4
ENDMDL
MODEL 2
REMARK VINA RESULT:    -5.923      7.052     11.072
REMARK INTER + INTRA:          -8.383
REMARK INTER:                  -7.308
REMARK INTRA:                  -1.075
REMARK UNBOUND:                -1.075
REMARK  Name = 
REMARK  5 active torsions:
REMARK  status: ('A' for Active; 'I' for Inactive)
REMARK    1  A    between atoms: C_1  and  C_2
REMARK    2  A    between atoms: C_6  and  C_7
REMARK    3  A    between atoms: C_15  and  N_16
REMARK    4  A    between atoms: C_21  and  C_22
REMARK    5  A    between atoms: C_22  and  C_23
REMARK                            x       y       z     vdW  Elec       q    Type
REMARK                         _______ _______ _______ _____ _____    ______ ____
ROOT
ATOM      1  C   UNL     1      10.548  43.390  47.772  0.00  0.00    +0.000 C 
ATOM      2  C   UNL     1      11.620  44.041  46.923  0.00  0.00    +0.000 A 
ATOM      3  N   UNL     1      11.713  45.334  47.024  0.00  0.00    +0.000 NA
ATOM      4  C   UNL     1      12.653  45.949  46.260  0.00  0.00    +0.000 A 
ATOM      5  N   UNL     1      12.946  47.227  46.185  0.00  0.00    +0.000 NA
ATOM      6  C   UNL     1      13.954  47.289  45.259  0.00  0.00    +0.000 A 
ATOM      7  N   UNL     1      14.309  46.103  44.747  0.00  0.00    +0.000 NA
ATOM      8  N   UNL     1      13.477  45.238  45.390  0.00  0.00    +0.000 N 
ATOM      9  C   UNL     1      13.389  43.827  45.275  0.00  0.00    +0.000 A 
ATOM     10  C   UNL     1      12.490  43.168  46.043  0.00  0.00    +0.000 A 
ENDROOT
BRANCH   6  11
ATOM     11  C   UNL     1      14.576  48.555  44.876  0.00  0.00    +0.000 A 
ATOM     12  C   UNL     1      15.915  48.829  45.194  0.00  0.00    +0.000 A 
ATOM     13  C   UNL     1      16.502  50.042  44.822  0.00  0.00    +0.000 A 
ATOM     14  C   UNL     1      15.756  50.995  44.130  0.00  0.00    +0.000 A 
ATOM     15  C   UNL     1      14.424  50.736  43.809  0.00  0.00    +0.000 A 
ATOM     16  C   UNL     1      13.838  49.523  44.180  0.00  0.00    +0.000 A 
ENDBRANCH   6  11
BRANCH   9  17
ATOM     17  N   UNL     1      14.246  43.157  44.375  0.00  0.00    +0.000 N 
ATOM     18  C   UNL     1      14.154  43.436  42.923  0.00  0.00    +0.000 C 
ATOM     19  C   UNL     1      15.589  43.613  42.446  0.00  0.00    +0.000 C 
ATOM     20  C   UNL     1      16.369  42.730  43.397  0.00  0.00    +0.000 C 
ATOM     21  C   UNL     1      15.674  42.995  44.725  0.00  0.00    +0.000 C 
ENDBRANCH   9  17
BRANCH  10  22
ATOM     22  C   UNL     1      12.306  41.672  46.023  0.00  0.00    +0.000 C 
BRANCH  22  23
ATOM     23  C   UNL     1      13.319  40.890  46.836  0.00  0.00    +0.000 A 
ATOM     24  C   UNL     1      13.468  41.095  48.217  0.00  0.00    +0.000 A 
ATOM     25  C   UNL     1      14.419  40.378  48.944  0.00  0.00    +0.000 A 
ATOM     26  C   UNL     1      15.243  39.458  48.299  0.00  0.00    +0.000 A 
ATOM     27  C   UNL     1      15.122  39.259  46.926  0.00  0.00    +0.000 A 
ATOM     28  C   UNL     1      14.169  39.974  46.198  0.00  0.00    +0.000 A 
ENDBRANCH  22  23
ENDBRANCH  10  22
TORSDOF 4
ENDMDL
MODEL 3
REMARK VINA RESULT:    -5.922      2.551      7.654
REMARK INTER + INTRA:          -8.382
REMARK INTER:                  -7.442
REMARK INTRA:                  -0.940
REMARK UNBOUND:                -1.075
REMARK  Name = 
REMARK  5 active torsions:
REMARK  status: ('A' for Active; 'I' for Inactive)
REMARK    1  A    between atoms: C_1  and  C_2
REMARK    2  A    between atoms: C_6  and  C_7
REMARK    3  A    between atoms: C_15  and  N_16
REMARK    4  A    between atoms: C_21  and  C_22
REMARK    5  A    between atoms: C_22  and  C_23
REMARK                            x       y       z     vdW  Elec       q    Type
REMARK                         _______ _______ _______ _____ _____    ______ ____
ROOT
ATOM      1  C   UNL     1      19.470  35.985  51.110  0.00  0.00    +0.000 C 
ATOM      2  C   UNL     1      18.587  36.832  52.002  0.00  0.00    +0.000 A 
ATOM      3  N   UNL     1      18.285  38.011  51.542  0.00  0.00    +0.000 NA
ATOM      4  C   UNL     1      17.510  38.802  52.328  0.00  0.00    +0.000 A 
ATOM      5  N   UNL     1      17.068  40.016  52.093  0.00  0.00    +0.000 NA
ATOM      6  C   UNL     1      16.351  40.339  53.216  0.00  0.00    +0.000 A 
ATOM      7  N   UNL     1      16.324  39.378  54.150  0.00  0.00    +0.000 NA
ATOM      8  N   UNL     1      17.066  38.387  53.582  0.00  0.00    +0.000 N 
ATOM      9  C   UNL     1      17.383  37.103  54.092  0.00  0.00    +0.000 A 
ATOM     10  C   UNL     1      18.125  36.266  53.328  0.00  0.00    +0.000 A 
ENDROOT
BRANCH   6  11
ATOM     11  C   UNL     1      15.682  41.629  53.362  0.00  0.00    +0.000 A 
ATOM     12  C   UNL     1      14.381  41.715  53.882  0.00  0.00    +0.000 A 
ATOM     13  C   UNL     1      13.749  42.954  54.020  0.00  0.00    +0.000 A 
ATOM     14  C   UNL     1      14.410  44.121  53.637  0.00  0.00    +0.000 A 
ATOM     15  C   UNL     1      15.702  44.050  53.119  0.00  0.00    +0.000 A 
ATOM     16  C   UNL     1      16.334  42.811  52.982  0.00  0.00    +0.000 A 
ENDBRANCH   6  11
BRANCH   9  17
ATOM     17  N   UNL     1      16.909  36.734  55.370  0.00  0.00    +0.000 N 
ATOM     18  C   UNL     1      17.395  37.451  56.571  0.00  0.00    +0.000 C 
ATOM     19  C   UNL     1      16.155  37.750  57.403  0.00  0.00    +0.000 C 
ATOM     20  C   UNL     1      15.229  36.606  57.046  0.00  0.00    +0.000 C 
ATOM     21  C   UNL     1      15.468  36.455  55.551  0.00  0.00    +0.000 C 
ENDBRANCH   9  17
BRANCH  10  22
ATOM     22  C   UNL     1      18.520  34.873  53.749  0.00  0.00    +0.000 C 
BRANCH  22  23
ATOM     23  C   UNL     1      19.775  34.791  54.595  0.00  0.00    +0.000 A 
ATOM     24  C   UNL     1      21.048  34.699  54.013  0.00  0.00    +0.000 A 
ATOM     25  C   UNL     1      22.190  34.605  54.810  0.00  0.00    +0.000 A 
ATOM     26  C   UNL     1      22.073  34.588  56.198  0.00  0.00    +0.000 A 
ATOM     27  C   UNL     1      20.815  34.657  56.790  0.00  0.00    +0.000 A 
ATOM     28  C   UNL     1      19.672  34.752  55.994  0.00  0.00    +0.000 A 
ENDBRANCH  22  23
ENDBRANCH  10  22
TORSDOF 4
ENDMDL
