MODEL 1
REMARK VINA RESULT:    -6.417      0.000      0.000
REMARK INTER + INTRA:          -9.494
REMARK INTER:                  -8.766
REMARK INTRA:                  -0.728
REMARK UNBOUND:                -1.014
REMARK  Name = 
REMARK  8 active torsions:
REMARK  status: ('A' for Active; 'I' for Inactive)
REMARK    1  A    between atoms: C_1  and  C_2
REMARK    2  A    between atoms: C_3  and  C_4
REMARK    3  A    between atoms: C_4  and  N_5
REMARK    4  A    between atoms: N_5  and  C_6
REMARK    5  A    between atoms: C_6  and  C_7
REMARK    6  A    between atoms: C_14  and  O_15
REMARK    7  A    between atoms: N_23  and  C_24
REMARK    8  A    between atoms: N_32  and  C_33
REMARK                            x       y       z     vdW  Elec       q    Type
REMARK                         _______ _______ _______ _____ _____    ______ ____
ROOT
ATOM      1  C   UNL     1      11.084  47.434  47.100  0.00  0.00    +0.000 C 
ATOM      2  C   UNL     1      12.141  46.535  46.506  0.00  0.00    +0.000 A 
ATOM      3  C   UNL     1      13.232  47.068  45.797  0.00  0.00    +0.000 A 
ATOM      4  N   UNL     1      14.222  46.290  45.294  0.00  0.00    +0.000 NA
ATOM      5  C   UNL     1      14.117  44.965  45.466  0.00  0.00    +0.000 A 
ATOM      6  C   UNL     1      13.073  44.295  46.115  0.00  0.00    +0.000 A 
ATOM      7  C   UNL     1      12.069  45.121  46.691  0.00  0.00    +0.000 A 
ATOM      8  C   UNL     1      11.042  44.515  47.445  0.00  0.00    +0.000 A 
ATOM      9  C   UNL     1      10.977  43.135  47.656  0.00  0.00    +0.000 A 
ATOM     10  C   UNL     1      11.940  42.314  47.069  0.00  0.00    +0.000 A 
ATOM     11  N   UNL     1      12.054  40.955  47.166  0.00  0.00    +0.000 NA
ATOM     12  C   UNL     1      13.117  40.644  46.467  0.00  0.00    +0.000 A 
ATOM     13  N   UNL     1      13.619  39.392  46.341  0.00  0.00    +0.000 N 
ATOM     14  N   UNL     1      13.603  41.749  45.796  0.00  0.00    +0.000 N 
ATOM     15  C   UNL     1      14.481  41.684  44.653  0.00  0.00    +0.000 C 
ATOM     16  C   UNL     1      12.948  42.871  46.281  0.00  0.00    +0.000 A 
ATOM     17  H   UNL     1      13.075  38.719  46.881  0.00  0.00    +0.000 HD
ENDROOT
BRANCH  13  18
ATOM     18  C   UNL     1      14.999  39.041  46.417  0.00  0.00    +0.000 A 
ATOM     19  C   UNL     1      15.787  39.150  47.583  0.00  0.00    +0.000 A 
ATOM     20 CL   UNL     1      15.176  39.748  49.088  0.00  0.00    +0.000 Cl
ATOM     21  C   UNL     1      17.125  38.729  47.591  0.00  0.00    +0.000 A 
ATOM     22  C   UNL     1      17.697  38.159  46.457  0.00  0.00    +0.000 A 
ATOM     23  C   UNL     1      16.927  37.990  45.313  0.00  0.00    +0.000 A 
ATOM     24  C   UNL     1      15.592  38.411  45.298  0.00  0.00    +0.000 A 
ATOM     25 CL   UNL     1      14.696  38.152  43.837  0.00  0.00    +0.000 Cl
ENDBRANCH  13  18
BRANCH   5  26
ATOM     26  O   UNL     1      15.216  44.341  44.981  0.00  0.00    +0.000 OA
ATOM     27  H   UNL     1      15.880  45.023  45.191  0.00  0.00    +0.000 HD
ENDBRANCH   5  26
BRANCH   3  28
ATOM     28  C   UNL     1      13.431  48.559  45.577  0.00  0.00    +0.000 C 
BRANCH  28  29
ATOM     29  N   UNL     1      14.763  48.854  45.037  0.00  0.00    +0.000 NA
ATOM     30  H   UNL     1      15.032  48.081  44.429  0.00  0.00    +0.000 HD
BRANCH  29  31
ATOM     31  C   UNL     1      14.795  50.101  44.275  0.00  0.00    +0.000 C 
BRANCH  31  32
ATOM     32  C   UNL     1      15.943  51.011  44.642  0.00  0.00    +0.000 A 
ATOM     33  C   UNL     1      17.209  50.830  44.062  0.00  0.00    +0.000 A 
ATOM     34  C   UNL     1      18.267  51.676  44.393  0.00  0.00    +0.000 A 
ATOM     35  C   UNL     1      18.073  52.713  45.303  0.00  0.00    +0.000 A 
ATOM     36  C   UNL     1      16.822  52.905  45.885  0.00  0.00    +0.000 A 
ATOM     37  C   UNL     1      15.761  52.059  45.556  0.00  0.00    +0.000 A 
ENDBRANCH  31  32
ENDBRANCH  29  31
ENDBRANCH  28  29
ENDBRANCH   3  28
TORSDOF 6
ENDMDL
MODEL 2
REMARK VINA RESULT:    -6.346      5.075     10.255
REMARK INTER + INTRA:          -9.400
REMARK INTER:                  -8.750
REMARK INTRA:                  -0.650
REMARK UNBOUND:                -1.014
REMARK  Name = 
REMARK  8 active torsions:
REMARK  status: ('A' for Active; 'I' for Inactive)
REMARK    1  A    between atoms: C_1  and  C_2
REMARK    2  A    between atoms: C_3  and  C_4
REMARK    3  A    between atoms: C_4  and  N_5
REMARK    4  A    between atoms: N_5  and  C_6
REMARK    5  A    between atoms: C_6  and  C_7
REMARK    6  A    between atoms: C_14  and  O_15
REMARK    7  A    between atoms: N_23  and  C_24
REMARK    8  A    between atoms: N_32  and  C_33
REMARK                            x       y       z     vdW  Elec       q    Type
REMARK                         _______ _______ _______ _____ _____    ______ ____
ROOT
ATOM      1  C   UNL     1      17.699  36.917  43.855  0.00  0.00    +0.000 C 
ATOM      2  C   UNL     1      17.287  38.258  43.299  0.00  0.00    +0.000 A 
ATOM      3  C   UNL     1      17.410  38.544  41.927  0.00  0.00    +0.000 A 
ATOM      4  N   UNL     1      17.004  39.721  41.390  0.00  0.00    +0.000 NA
ATOM      5  C   UNL     1      16.499  40.641  42.223  0.00  0.00    +0.000 A 
ATOM      6  C   UNL     1      16.352  40.509  43.609  0.00  0.00    +0.000 A 
ATOM      7  C   UNL     1      16.725  39.251  44.157  0.00  0.00    +0.000 A 
ATOM      8  C   UNL     1      16.509  39.018  45.532  0.00  0.00    +0.000 A 
ATOM      9  C   UNL     1      15.935  39.972  46.376  0.00  0.00    +0.000 A 
ATOM     10  C   UNL     1      15.593  41.220  45.854  0.00  0.00    +0.000 A 
ATOM     11  N   UNL     1      15.016  42.272  46.509  0.00  0.00    +0.000 NA
ATOM     12  C   UNL     1      14.873  43.208  45.605  0.00  0.00    +0.000 A 
ATOM     13  N   UNL     1      14.289  44.411  45.825  0.00  0.00    +0.000 N 
ATOM     14  N   UNL     1      15.483  42.844  44.421  0.00  0.00    +0.000 N 
ATOM     15  C   UNL     1      15.863  43.773  43.384  0.00  0.00    +0.000 C 
ATOM     16  C   UNL     1      15.831  41.505  44.509  0.00  0.00    +0.000 A 
ATOM     17  H   UNL     1      13.952  44.489  46.784  0.00  0.00    +0.000 HD
ENDROOT
BRANCH  13  18
ATOM     18  C   UNL     1      13.362  45.054  44.953  0.00  0.00    +0.000 A 
ATOM     19  C   UNL     1      12.215  44.435  44.412  0.00  0.00    +0.000 A 
ATOM     20 CL   UNL     1      11.789  42.786  44.727  0.00  0.00    +0.000 Cl
ATOM     21  C   UNL     1      11.318  45.154  43.608  0.00  0.00    +0.000 A 
ATOM     22  C   UNL     1      11.521  46.508  43.353  0.00  0.00    +0.000 A 
ATOM     23  C   UNL     1      12.613  47.154  43.919  0.00  0.00    +0.000 A 
ATOM     24  C   UNL     1      13.512  46.440  44.721  0.00  0.00    +0.000 A 
ATOM     25 CL   UNL     1      14.840  47.324  45.400  0.00  0.00    +0.000 Cl
ENDBRANCH  13  18
BRANCH   5  26
ATOM     26  O   UNL     1      16.070  41.719  41.527  0.00  0.00    +0.000 OA
ATOM     27  H   UNL     1      15.294  41.948  42.071  0.00  0.00    +0.000 HD
ENDBRANCH   5  26
BRANCH   3  28
ATOM     28  C   UNL     1      17.955  37.547  40.916  0.00  0.00    +0.000 C 
BRANCH  28  29
ATOM     29  N   UNL     1      19.406  37.689  40.743  0.00  0.00    +0.000 NA
ATOM     30  H   UNL     1      19.789  36.763  40.550  0.00  0.00    +0.000 HD
BRANCH  29  31
ATOM     31  C   UNL     1      19.753  38.593  39.650  0.00  0.00    +0.000 C 
BRANCH  31  32
ATOM     32  C   UNL     1      20.830  38.060  38.735  0.00  0.00    +0.000 A 
ATOM     33  C   UNL     1      20.772  38.296  37.353  0.00  0.00    +0.000 A 
ATOM     34  C   UNL     1      21.773  37.813  36.508  0.00  0.00    +0.000 A 
ATOM     35  C   UNL     1      22.841  37.091  37.035  0.00  0.00    +0.000 A 
ATOM     36  C   UNL     1      22.911  36.850  38.406  0.00  0.00    +0.000 A 
ATOM     37  C   UNL     1      21.912  37.333  39.253  0.00  0.00    +0.000 A 
ENDBRANCH  31  32
ENDBRANCH  29  31
ENDBRANCH  28  29
ENDBRANCH   3  28
TORSDOF 6
ENDMDL
MODEL 3
REMARK VINA RESULT:    -6.199     10.653     14.757
REMARK INTER + INTRA:          -9.206
REMARK INTER:                  -8.192
REMARK INTRA:                  -1.014
REMARK UNBOUND:                -1.014
REMARK  Name = 
REMARK  8 active torsions:
REMARK  status: ('A' for Active; 'I' for Inactive)
REMARK    1  A    between atoms: C_1  and  C_2
REMARK    2  A    between atoms: C_3  and  C_4
REMARK    3  A    between atoms: C_4  and  N_5
REMARK    4  A    between atoms: N_5  and  C_6
REMARK    5  A    between atoms: C_6  and  C_7
REMARK    6  A    between atoms: C_14  and  O_15
REMARK    7  A    between atoms: N_23  and  C_24
REMARK    8  A    between atoms: N_32  and  C_33
REMARK                            x       y       z     vdW  Elec       q    Type
REMARK                         _______ _______ _______ _____ _____    ______ ____
ROOT
ATOM      1  C   UNL     1      19.771  36.643  51.034  0.00  0.00    +0.000 C 
ATOM      2  C   UNL     1      18.793  36.533  52.178  0.00  0.00    +0.000 A 
ATOM      3  C   UNL     1      18.457  35.283  52.730  0.00  0.00    +0.000 A 
ATOM      4  N   UNL     1      17.621  35.157  53.789  0.00  0.00    +0.000 NA
ATOM      5  C   UNL     1      17.082  36.277  54.291  0.00  0.00    +0.000 A 
ATOM      6  C   UNL     1      17.295  37.579  53.822  0.00  0.00    +0.000 A 
ATOM      7  C   UNL     1      18.219  37.709  52.749  0.00  0.00    +0.000 A 
ATOM      8  C   UNL     1      18.554  39.003  52.295  0.00  0.00    +0.000 A 
ATOM      9  C   UNL     1      18.020  40.162  52.864  0.00  0.00    +0.000 A 
ATOM     10  C   UNL     1      17.089  40.043  53.897  0.00  0.00    +0.000 A 
ATOM     11  N   UNL     1      16.468  41.049  54.584  0.00  0.00    +0.000 NA
ATOM     12  C   UNL     1      15.705  40.448  55.462  0.00  0.00    +0.000 A 
ATOM     13  N   UNL     1      14.947  41.084  56.388  0.00  0.00    +0.000 N 
ATOM     14  N   UNL     1      15.701  39.082  55.258  0.00  0.00    +0.000 N 
ATOM     15  C   UNL     1      14.685  38.189  55.761  0.00  0.00    +0.000 C 
ATOM     16  C   UNL     1      16.700  38.781  54.345  0.00  0.00    +0.000 A 
ATOM     17  H   UNL     1      15.062  42.096  56.330  0.00  0.00    +0.000 HD
ENDROOT
BRANCH  13  18
ATOM     18  C   UNL     1      14.824  40.709  57.759  0.00  0.00    +0.000 A 
ATOM     19  C   UNL     1      15.903  40.634  58.665  0.00  0.00    +0.000 A 
ATOM     20 CL   UNL     1      17.541  40.977  58.219  0.00  0.00    +0.000 Cl
ATOM     21  C   UNL     1      15.692  40.314  60.014  0.00  0.00    +0.000 A 
ATOM     22  C   UNL     1      14.405  40.096  60.499  0.00  0.00    +0.000 A 
ATOM     23  C   UNL     1      13.320  40.217  59.640  0.00  0.00    +0.000 A 
ATOM     24  C   UNL     1      13.526  40.535  58.291  0.00  0.00    +0.000 A 
ATOM     25 CL   UNL     1      12.119  40.682  57.289  0.00  0.00    +0.000 Cl
ENDBRANCH  13  18
BRANCH   5  26
ATOM     26  O   UNL     1      16.339  35.991  55.385  0.00  0.00    +0.000 OA
ATOM     27  H   UNL     1      16.652  36.707  55.969  0.00  0.00    +0.000 HD
ENDBRANCH   5  26
BRANCH   3  28
ATOM     28  C   UNL     1      19.041  33.972  52.229  0.00  0.00    +0.000 C 
BRANCH  28  29
ATOM     29  N   UNL     1      20.000  33.406  53.185  0.00  0.00    +0.000 NA
ATOM     30  H   UNL     1      20.042  32.399  53.027  0.00  0.00    +0.000 HD
BRANCH  29  31
ATOM     31  C   UNL     1      21.338  33.974  53.038  0.00  0.00    +0.000 C 
BRANCH  31  32
ATOM     32  C   UNL     1      22.139  33.989  54.318  0.00  0.00    +0.000 A 
ATOM     33  C   UNL     1      21.537  34.361  55.530  0.00  0.00    +0.000 A 
ATOM     34  C   UNL     1      22.274  34.366  56.715  0.00  0.00    +0.000 A 
ATOM     35  C   UNL     1      23.617  33.997  56.703  0.00  0.00    +0.000 A 
ATOM     36  C   UNL     1      24.227  33.624  55.507  0.00  0.00    +0.000 A 
ATOM     37  C   UNL     1      23.492  33.619  54.320  0.00  0.00    +0.000 A 
ENDBRANCH  31  32
ENDBRANCH  29  31
ENDBRANCH  28  29
ENDBRANCH   3  28
TORSDOF 6
ENDMDL
