MODEL 1
REMARK VINA RESULT:    -6.460      0.000      0.000
REMARK INTER + INTRA:         -10.051
REMARK INTER:                  -8.507
REMARK INTRA:                  -1.544
REMARK UNBOUND:                -1.513
REMARK  Name = 
REMARK  8 active torsions:
REMARK  status: ('A' for Active; 'I' for Inactive)
REMARK    1  A    between atoms: C_1  and  O_2
REMARK    2  A    between atoms: O_2  and  C_3
REMARK    3  A    between atoms: C_5  and  C_6
REMARK    4  A    between atoms: C_13  and  N_14
REMARK    5  A    between atoms: N_14  and  C_15
REMARK    6  A    between atoms: C_35  and  O_36
REMARK    7  A    between atoms: O_36  and  C_37
REMARK    8  A    between atoms: C_38  and  O_39
REMARK                            x       y       z     vdW  Elec       q    Type
REMARK                         _______ _______ _______ _____ _____    ______ ____
ROOT
ATOM      1  C   UNL     1      16.324  40.033  44.831  0.00  0.00    +0.000 C 
ATOM      2  C   UNL     1      15.639  40.262  46.186  0.00  0.00    +0.000 A 
ATOM      3  C   UNL     1      16.008  39.433  47.265  0.00  0.00    +0.000 A 
ATOM      4  C   UNL     1      15.398  39.632  48.486  0.00  0.00    +0.000 A 
ATOM      5  C   UNL     1      14.445  40.601  48.669  0.00  0.00    +0.000 A 
ATOM      6  C   UNL     1      14.044  41.429  47.643  0.00  0.00    +0.000 A 
ATOM      7  C   UNL     1      14.638  41.269  46.374  0.00  0.00    +0.000 A 
ATOM      8  C   UNL     1      14.209  42.225  45.255  0.00  0.00    +0.000 C 
ATOM      9  C   UNL     1      14.694  41.710  43.906  0.00  0.00    +0.000 C 
ATOM     10  C   UNL     1      14.708  42.634  42.718  0.00  0.00    +0.000 C 
ATOM     11  O   UNL     1      15.605  41.980  41.801  0.00  0.00    +0.000 OA
ATOM     12  C   UNL     1      16.506  41.229  42.515  0.00  0.00    +0.000 C 
ATOM     13  O   UNL     1      17.487  40.686  42.034  0.00  0.00    +0.000 OA
ATOM     14  C   UNL     1      16.147  41.283  43.968  0.00  0.00    +0.000 C 
ATOM     15  O   UNL     1      13.973  40.633  49.944  0.00  0.00    +0.000 OA
ATOM     16  C   UNL     1      14.752  39.580  50.549  0.00  0.00    +0.000 C 
ATOM     17  O   UNL     1      15.646  38.926  49.622  0.00  0.00    +0.000 OA
ENDROOT
BRANCH   1  20
ATOM     18  C   UNL     1      16.556  36.602  43.140  0.00  0.00    +0.000 A 
ATOM     19  C   UNL     1      16.901  37.800  43.769  0.00  0.00    +0.000 A 
ATOM     20  C   UNL     1      15.910  38.720  44.160  0.00  0.00    +0.000 A 
ATOM     21  C   UNL     1      14.567  38.394  43.906  0.00  0.00    +0.000 A 
ATOM     22  C   UNL     1      14.208  37.218  43.239  0.00  0.00    +0.000 A 
ATOM     23  C   UNL     1      15.207  36.320  42.867  0.00  0.00    +0.000 A 
BRANCH  18  25
ATOM     24  C   UNL     1      18.648  36.035  42.134  0.00  0.00    +0.000 C 
ATOM     25  O   UNL     1      17.439  35.618  42.760  0.00  0.00    +0.000 OA
ENDBRANCH  18  25
BRANCH  22  26
ATOM     26  O   UNL     1      12.858  37.070  43.067  0.00  0.00    +0.000 OA
ATOM     27  C   UNL     1      12.165  36.433  44.132  0.00  0.00    +0.000 C 
ENDBRANCH  22  26
BRANCH  23  28
ATOM     28  O   UNL     1      14.908  35.128  42.260  0.00  0.00    +0.000 OA
ATOM     29  H   UNL     1      14.460  34.606  42.954  0.00  0.00    +0.000 HD
ENDBRANCH  23  28
ENDBRANCH   1  20
BRANCH   8  30
ATOM     30  N   UNL     1      14.791  43.531  45.538  0.00  0.00    +0.000 N 
ATOM     31  H   UNL     1      15.628  43.491  46.119  0.00  0.00    +0.000 HD
BRANCH  30  32
ATOM     32  C   UNL     1      14.052  44.695  45.720  0.00  0.00    +0.000 A 
ATOM     33  C   UNL     1      12.838  44.646  46.413  0.00  0.00    +0.000 A 
ATOM     34  N   UNL     1      12.051  45.706  46.719  0.00  0.00    +0.000 NA
ATOM     35  C   UNL     1      12.476  46.921  46.342  0.00  0.00    +0.000 A 
ATOM     36  C   UNL     1      11.699  48.038  46.632  0.00  0.00    +0.000 A 
ATOM     37  C   UNL     1      12.098  49.326  46.262  0.00  0.00    +0.000 A 
ATOM     38  C   UNL     1      13.300  49.510  45.588  0.00  0.00    +0.000 A 
ATOM     39  C   UNL     1      14.103  48.407  45.290  0.00  0.00    +0.000 A 
ATOM     40  C   UNL     1      13.698  47.110  45.663  0.00  0.00    +0.000 A 
ATOM     41  C   UNL     1      14.482  45.975  45.376  0.00  0.00    +0.000 A 
ENDBRANCH  30  32
ENDBRANCH   8  30
TORSDOF 6
ENDMDL
MODEL 2
REMARK VINA RESULT:    -6.445      0.223      2.071
REMARK INTER + INTRA:         -10.030
REMARK INTER:                  -8.517
REMARK INTRA:                  -1.513
REMARK UNBOUND:                -1.513
REMARK  Name = 
REMARK  8 active torsions:
REMARK  status: ('A' for Active; 'I' for Inactive)
REMARK    1  A    between atoms: C_1  and  O_2
REMARK    2  A    between atoms: O_2  and  C_3
REMARK    3  A    between atoms: C_5  and  C_6
REMARK    4  A    between atoms: C_13  and  N_14
REMARK    5  A    between atoms: N_14  and  C_15
REMARK    6  A    between atoms: C_35  and  O_36
REMARK    7  A    between atoms: O_36  and  C_37
REMARK    8  A    between atoms: C_38  and  O_39
REMARK                            x       y       z     vdW  Elec       q    Type
REMARK                         _______ _______ _______ _____ _____    ______ ____
ROOT
ATOM      1  C   UNL     1      16.297  40.046  44.814  0.00  0.00    +0.000 C 
ATOM      2  C   UNL     1      15.621  40.271  46.174  0.00  0.00    +0.000 A 
ATOM      3  C   UNL     1      15.999  39.441  47.250  0.00  0.00    +0.000 A 
ATOM      4  C   UNL     1      15.397  39.637  48.475  0.00  0.00    +0.000 A 
ATOM      5  C   UNL     1      14.444  40.605  48.667  0.00  0.00    +0.000 A 
ATOM      6  C   UNL     1      14.035  41.434  47.646  0.00  0.00    +0.000 A 
ATOM      7  C   UNL     1      14.621  41.277  46.372  0.00  0.00    +0.000 A 
ATOM      8  C   UNL     1      14.183  42.236  45.257  0.00  0.00    +0.000 C 
ATOM      9  C   UNL     1      14.659  41.723  43.904  0.00  0.00    +0.000 C 
ATOM     10  C   UNL     1      14.664  42.650  42.718  0.00  0.00    +0.000 C 
ATOM     11  O   UNL     1      15.555  41.998  41.793  0.00  0.00    +0.000 OA
ATOM     12  C   UNL     1      16.462  41.246  42.499  0.00  0.00    +0.000 C 
ATOM     13  O   UNL     1      17.440  40.705  42.011  0.00  0.00    +0.000 OA
ATOM     14  C   UNL     1      16.113  41.297  43.955  0.00  0.00    +0.000 C 
ATOM     15  O   UNL     1      13.982  40.634  49.945  0.00  0.00    +0.000 OA
ATOM     16  C   UNL     1      14.766  39.580  50.542  0.00  0.00    +0.000 C 
ATOM     17  O   UNL     1      15.653  38.929  49.608  0.00  0.00    +0.000 OA
ENDROOT
BRANCH   1  20
ATOM     18  C   UNL     1      14.097  37.255  43.380  0.00  0.00    +0.000 A 
ATOM     19  C   UNL     1      14.511  38.450  43.972  0.00  0.00    +0.000 A 
ATOM     20  C   UNL     1      15.879  38.734  44.144  0.00  0.00    +0.000 A 
ATOM     21  C   UNL     1      16.813  37.785  43.697  0.00  0.00    +0.000 A 
ATOM     22  C   UNL     1      16.414  36.564  43.141  0.00  0.00    +0.000 A 
ATOM     23  C   UNL     1      15.054  36.309  42.976  0.00  0.00    +0.000 A 
BRANCH  18  25
ATOM     24  C   UNL     1      11.802  37.364  44.037  0.00  0.00    +0.000 C 
ATOM     25  O   UNL     1      12.793  36.901  43.124  0.00  0.00    +0.000 OA
ENDBRANCH  18  25
BRANCH  22  26
ATOM     26  O   UNL     1      17.457  35.758  42.774  0.00  0.00    +0.000 OA
ATOM     27  C   UNL     1      18.751  36.341  42.862  0.00  0.00    +0.000 C 
ENDBRANCH  22  26
BRANCH  23  28
ATOM     28  O   UNL     1      14.610  35.154  42.387  0.00  0.00    +0.000 OA
ATOM     29  H   UNL     1      14.817  35.267  41.438  0.00  0.00    +0.000 HD
ENDBRANCH  23  28
ENDBRANCH   1  20
BRANCH   8  30
ATOM     30  N   UNL     1      14.767  43.542  45.539  0.00  0.00    +0.000 N 
ATOM     31  H   UNL     1      15.602  43.502  46.122  0.00  0.00    +0.000 HD
BRANCH  30  32
ATOM     32  C   UNL     1      14.028  44.706  45.718  0.00  0.00    +0.000 A 
ATOM     33  C   UNL     1      12.813  44.661  46.409  0.00  0.00    +0.000 A 
ATOM     34  N   UNL     1      12.027  45.722  46.711  0.00  0.00    +0.000 NA
ATOM     35  C   UNL     1      12.454  46.936  46.332  0.00  0.00    +0.000 A 
ATOM     36  C   UNL     1      11.678  48.054  46.619  0.00  0.00    +0.000 A 
ATOM     37  C   UNL     1      12.078  49.341  46.247  0.00  0.00    +0.000 A 
ATOM     38  C   UNL     1      13.281  49.522  45.574  0.00  0.00    +0.000 A 
ATOM     39  C   UNL     1      14.083  48.418  45.280  0.00  0.00    +0.000 A 
ATOM     40  C   UNL     1      13.677  47.122  45.655  0.00  0.00    +0.000 A 
ATOM     41  C   UNL     1      14.460  45.985  45.371  0.00  0.00    +0.000 A 
ENDBRANCH  30  32
ENDBRANCH   8  30
TORSDOF 6
ENDMDL
MODEL 3
REMARK VINA RESULT:    -6.435      8.424     12.617
REMARK INTER + INTRA:         -10.017
REMARK INTER:                  -8.392
REMARK INTRA:                  -1.625
REMARK UNBOUND:                -1.513
REMARK  Name = 
REMARK  8 active torsions:
REMARK  status: ('A' for Active; 'I' for Inactive)
REMARK    1  A    between atoms: C_1  and  O_2
REMARK    2  A    between atoms: O_2  and  C_3
REMARK    3  A    between atoms: C_5  and  C_6
REMARK    4  A    between atoms: C_13  and  N_14
REMARK    5  A    between atoms: N_14  and  C_15
REMARK    6  A    between atoms: C_35  and  O_36
REMARK    7  A    between atoms: O_36  and  C_37
REMARK    8  A    between atoms: C_38  and  O_39
REMARK                            x       y       z     vdW  Elec       q    Type
REMARK                         _______ _______ _______ _____ _____    ______ ____
ROOT
ATOM      1  C   UNL     1      21.551  33.742  47.007  0.00  0.00    +0.000 C 
ATOM      2  C   UNL     1      20.846  34.620  48.051  0.00  0.00    +0.000 A 
ATOM      3  C   UNL     1      19.598  35.181  47.713  0.00  0.00    +0.000 A 
ATOM      4  C   UNL     1      18.958  35.971  48.645  0.00  0.00    +0.000 A 
ATOM      5  C   UNL     1      19.506  36.227  49.876  0.00  0.00    +0.000 A 
ATOM      6  C   UNL     1      20.727  35.709  50.249  0.00  0.00    +0.000 A 
ATOM      7  C   UNL     1      21.423  34.893  49.333  0.00  0.00    +0.000 A 
ATOM      8  C   UNL     1      22.762  34.293  49.780  0.00  0.00    +0.000 C 
ATOM      9  C   UNL     1      23.512  33.725  48.582  0.00  0.00    +0.000 C 
ATOM     10  C   UNL     1      24.665  32.783  48.804  0.00  0.00    +0.000 C 
ATOM     11  O   UNL     1      24.812  32.135  47.526  0.00  0.00    +0.000 OA
ATOM     12  C   UNL     1      23.596  32.120  46.888  0.00  0.00    +0.000 C 
ATOM     13  O   UNL     1      23.362  31.503  45.862  0.00  0.00    +0.000 OA
ATOM     14  C   UNL     1      22.603  32.882  47.710  0.00  0.00    +0.000 C 
ATOM     15  O   UNL     1      18.714  37.022  50.644  0.00  0.00    +0.000 OA
ATOM     16  C   UNL     1      17.594  37.227  49.758  0.00  0.00    +0.000 C 
ATOM     17  O   UNL     1      17.751  36.577  48.478  0.00  0.00    +0.000 OA
ENDROOT
BRANCH   1  20
ATOM     18  C   UNL     1      22.074  34.892  43.389  0.00  0.00    +0.000 A 
ATOM     19  C   UNL     1      21.611  34.201  44.510  0.00  0.00    +0.000 A 
ATOM     20  C   UNL     1      22.064  34.534  45.801  0.00  0.00    +0.000 A 
ATOM     21  C   UNL     1      22.986  35.586  45.927  0.00  0.00    +0.000 A 
ATOM     22  C   UNL     1      23.492  36.261  44.810  0.00  0.00    +0.000 A 
ATOM     23  C   UNL     1      23.023  35.916  43.544  0.00  0.00    +0.000 A 
BRANCH  18  25
ATOM     24  C   UNL     1      20.333  35.064  41.761  0.00  0.00    +0.000 C 
ATOM     25  O   UNL     1      21.662  34.678  42.094  0.00  0.00    +0.000 OA
ENDBRANCH  18  25
BRANCH  22  26
ATOM     26  O   UNL     1      24.389  37.247  45.120  0.00  0.00    +0.000 OA
ATOM     27  C   UNL     1      25.325  36.934  46.144  0.00  0.00    +0.000 C 
ENDBRANCH  22  26
BRANCH  23  28
ATOM     28  O   UNL     1      23.442  36.582  42.421  0.00  0.00    +0.000 OA
ATOM     29  H   UNL     1      24.171  37.154  42.733  0.00  0.00    +0.000 HD
ENDBRANCH  23  28
ENDBRANCH   1  20
BRANCH   8  30
ATOM     30  N   UNL     1      22.477  33.238  50.746  0.00  0.00    +0.000 N 
ATOM     31  H   UNL     1      21.609  32.737  50.562  0.00  0.00    +0.000 HD
BRANCH  30  32
ATOM     32  C   UNL     1      22.794  33.309  52.097  0.00  0.00    +0.000 A 
ATOM     33  C   UNL     1      24.082  32.973  52.528  0.00  0.00    +0.000 A 
ATOM     34  N   UNL     1      24.546  33.058  53.799  0.00  0.00    +0.000 NA
ATOM     35  C   UNL     1      23.705  33.522  54.734  0.00  0.00    +0.000 A 
ATOM     36  C   UNL     1      24.137  33.624  56.052  0.00  0.00    +0.000 A 
ATOM     37  C   UNL     1      23.300  34.103  57.065  0.00  0.00    +0.000 A 
ATOM     38  C   UNL     1      22.001  34.493  56.760  0.00  0.00    +0.000 A 
ATOM     39  C   UNL     1      21.543  34.408  55.444  0.00  0.00    +0.000 A 
ATOM     40  C   UNL     1      22.388  33.924  54.425  0.00  0.00    +0.000 A 
ATOM     41  C   UNL     1      21.959  33.822  53.087  0.00  0.00    +0.000 A 
ENDBRANCH  30  32
ENDBRANCH   8  30
TORSDOF 6
ENDMDL
