MODEL 1
REMARK VINA RESULT:    -6.287      0.000      0.000
REMARK INTER + INTRA:          -8.620
REMARK INTER:                  -8.137
REMARK INTRA:                  -0.482
REMARK UNBOUND:                -0.862
REMARK  Name = 
REMARK  4 active torsions:
REMARK  status: ('A' for Active; 'I' for Inactive)
REMARK    1  A    between atoms: C_4  and  C_5
REMARK    2  A    between atoms: C_5  and  N_6
REMARK    3  A    between atoms: C_11  and  N_12
REMARK    4  A    between atoms: N_12  and  C_13
REMARK                            x       y       z     vdW  Elec       q    Type
REMARK                         _______ _______ _______ _____ _____    ______ ____
ROOT
ATOM      1  N   UNL     1      16.803  40.087  53.184  0.00  0.00    +0.000 N 
ATOM      2  C   UNL     1      16.389  40.104  54.489  0.00  0.00    +0.000 A 
ATOM      3  N   UNL     1      16.673  38.979  55.104  0.00  0.00    +0.000 NA
ATOM      4  C   UNL     1      17.298  38.200  54.159  0.00  0.00    +0.000 A 
ATOM      5  C   UNL     1      17.811  36.897  54.274  0.00  0.00    +0.000 A 
ATOM      6  C   UNL     1      18.434  36.289  53.173  0.00  0.00    +0.000 A 
ATOM      7  C   UNL     1      18.476  36.985  51.953  0.00  0.00    +0.000 A 
ATOM      8  C   UNL     1      17.973  38.288  51.811  0.00  0.00    +0.000 A 
ATOM      9  C   UNL     1      17.392  38.868  52.941  0.00  0.00    +0.000 A 
ENDROOT
BRANCH   6  10
ATOM     10  N   UNL     1      18.905  34.954  53.209  0.00  0.00    +0.000 N 
ATOM     11  H   UNL     1      18.308  34.333  52.676  0.00  0.00    +0.000 HD
BRANCH  10  12
ATOM     12  C   UNL     1      20.246  34.490  53.101  0.00  0.00    +0.000 A 
ATOM     13  N   UNL     1      20.725  34.135  51.896  0.00  0.00    +0.000 NA
ATOM     14  C   UNL     1      21.977  33.673  51.855  0.00  0.00    +0.000 A 
ATOM     15  N   UNL     1      22.798  33.520  52.899  0.00  0.00    +0.000 NA
ATOM     16  C   UNL     1      22.321  33.884  54.091  0.00  0.00    +0.000 A 
ATOM     17  C   UNL     1      23.145  33.751  55.204  0.00  0.00    +0.000 A 
ATOM     18  C   UNL     1      22.725  34.118  56.485  0.00  0.00    +0.000 A 
ATOM     19  C   UNL     1      21.452  34.637  56.670  0.00  0.00    +0.000 A 
ATOM     20  C   UNL     1      20.605  34.778  55.571  0.00  0.00    +0.000 A 
ATOM     21  C   UNL     1      21.027  34.394  54.270  0.00  0.00    +0.000 A 
ENDBRANCH  10  12
ENDBRANCH   6  10
BRANCH   1  22
ATOM     22  C   UNL     1      16.681  41.200  52.260  0.00  0.00    +0.000 C 
BRANCH  22  26
ATOM     23  C   UNL     1      13.860  44.165  53.630  0.00  0.00    +0.000 A 
ATOM     24  C   UNL     1      13.416  42.893  53.281  0.00  0.00    +0.000 A 
ATOM     25  C   UNL     1      14.326  41.931  52.839  0.00  0.00    +0.000 A 
ATOM     26  C   UNL     1      15.693  42.233  52.744  0.00  0.00    +0.000 A 
ATOM     27  C   UNL     1      16.127  43.520  53.097  0.00  0.00    +0.000 A 
ATOM     28  C   UNL     1      15.214  44.479  53.538  0.00  0.00    +0.000 A 
ENDBRANCH  22  26
ENDBRANCH   1  22
TORSDOF 4
ENDMDL
MODEL 2
REMARK VINA RESULT:    -6.186     10.777     13.369
REMARK INTER + INTRA:          -8.494
REMARK INTER:                  -7.691
REMARK INTRA:                  -0.803
REMARK UNBOUND:                -0.862
REMARK  Name = 
REMARK  4 active torsions:
REMARK  status: ('A' for Active; 'I' for Inactive)
REMARK    1  A    between atoms: C_4  and  C_5
REMARK    2  A    between atoms: C_5  and  N_6
REMARK    3  A    between atoms: C_11  and  N_12
REMARK    4  A    between atoms: N_12  and  C_13
REMARK                            x       y       z     vdW  Elec       q    Type
REMARK                         _______ _______ _______ _____ _____    ______ ____
ROOT
ATOM      1  N   UNL     1      11.640  49.471  46.481  0.00  0.00    +0.000 N 
ATOM      2  C   UNL     1      10.661  48.814  47.176  0.00  0.00    +0.000 A 
ATOM      3  N   UNL     1      10.899  47.526  47.252  0.00  0.00    +0.000 NA
ATOM      4  C   UNL     1      12.082  47.337  46.578  0.00  0.00    +0.000 A 
ATOM      5  C   UNL     1      12.799  46.151  46.347  0.00  0.00    +0.000 A 
ATOM      6  C   UNL     1      14.011  46.191  45.640  0.00  0.00    +0.000 A 
ATOM      7  C   UNL     1      14.450  47.422  45.123  0.00  0.00    +0.000 A 
ATOM      8  C   UNL     1      13.755  48.622  45.341  0.00  0.00    +0.000 A 
ATOM      9  C   UNL     1      12.571  48.542  46.079  0.00  0.00    +0.000 A 
ENDROOT
BRANCH   6  10
ATOM     10  N   UNL     1      14.740  45.020  45.317  0.00  0.00    +0.000 N 
ATOM     11  H   UNL     1      14.852  44.416  46.123  0.00  0.00    +0.000 HD
BRANCH  10  12
ATOM     12  C   UNL     1      14.625  44.205  44.156  0.00  0.00    +0.000 A 
ATOM     13  N   UNL     1      14.167  44.745  43.014  0.00  0.00    +0.000 NA
ATOM     14  C   UNL     1      14.045  43.928  41.964  0.00  0.00    +0.000 A 
ATOM     15  N   UNL     1      14.324  42.621  41.944  0.00  0.00    +0.000 NA
ATOM     16  C   UNL     1      14.788  42.091  43.077  0.00  0.00    +0.000 A 
ATOM     17  C   UNL     1      15.102  40.737  43.098  0.00  0.00    +0.000 A 
ATOM     18  C   UNL     1      15.601  40.108  44.241  0.00  0.00    +0.000 A 
ATOM     19  C   UNL     1      15.801  40.845  45.400  0.00  0.00    +0.000 A 
ATOM     20  C   UNL     1      15.492  42.205  45.407  0.00  0.00    +0.000 A 
ATOM     21  C   UNL     1      14.973  42.841  44.248  0.00  0.00    +0.000 A 
ENDBRANCH  10  12
ENDBRANCH   6  10
BRANCH   1  22
ATOM     22  C   UNL     1      11.689  50.907  46.271  0.00  0.00    +0.000 C 
BRANCH  22  26
ATOM     23  C   UNL     1      14.333  52.877  49.056  0.00  0.00    +0.000 A 
ATOM     24  C   UNL     1      13.059  52.489  49.463  0.00  0.00    +0.000 A 
ATOM     25  C   UNL     1      12.202  51.850  48.565  0.00  0.00    +0.000 A 
ATOM     26  C   UNL     1      12.613  51.590  47.248  0.00  0.00    +0.000 A 
ATOM     27  C   UNL     1      13.898  51.989  46.851  0.00  0.00    +0.000 A 
ATOM     28  C   UNL     1      14.752  52.628  47.751  0.00  0.00    +0.000 A 
ENDBRANCH  22  26
ENDBRANCH   1  22
TORSDOF 4
ENDMDL
MODEL 3
REMARK VINA RESULT:    -6.179     11.288     14.855
REMARK INTER + INTRA:          -8.486
REMARK INTER:                  -7.624
REMARK INTRA:                  -0.862
REMARK UNBOUND:                -0.862
REMARK  Name = 
REMARK  4 active torsions:
REMARK  status: ('A' for Active; 'I' for Inactive)
REMARK    1  A    between atoms: C_4  and  C_5
REMARK    2  A    between atoms: C_5  and  N_6
REMARK    3  A    between atoms: C_11  and  N_12
REMARK    4  A    between atoms: N_12  and  C_13
REMARK                            x       y       z     vdW  Elec       q    Type
REMARK                         _______ _______ _______ _____ _____    ______ ____
ROOT
ATOM      1  N   UNL     1      15.447  39.655  41.133  0.00  0.00    +0.000 N 
ATOM      2  C   UNL     1      14.561  40.121  40.199  0.00  0.00    +0.000 A 
ATOM      3  N   UNL     1      14.103  41.310  40.514  0.00  0.00    +0.000 NA
ATOM      4  C   UNL     1      14.717  41.630  41.702  0.00  0.00    +0.000 A 
ATOM      5  C   UNL     1      14.589  42.787  42.490  0.00  0.00    +0.000 A 
ATOM      6  C   UNL     1      15.333  42.915  43.673  0.00  0.00    +0.000 A 
ATOM      7  C   UNL     1      16.151  41.845  44.074  0.00  0.00    +0.000 A 
ATOM      8  C   UNL     1      16.298  40.679  43.306  0.00  0.00    +0.000 A 
ATOM      9  C   UNL     1      15.565  40.608  42.118  0.00  0.00    +0.000 A 
ENDROOT
BRANCH   6  10
ATOM     10  N   UNL     1      15.192  44.025  44.541  0.00  0.00    +0.000 N 
ATOM     11  H   UNL     1      15.552  44.875  44.123  0.00  0.00    +0.000 HD
BRANCH  10  12
ATOM     12  C   UNL     1      14.080  44.365  45.361  0.00  0.00    +0.000 A 
ATOM     13  N   UNL     1      13.359  43.385  45.932  0.00  0.00    +0.000 NA
ATOM     14  C   UNL     1      12.304  43.756  46.663  0.00  0.00    +0.000 A 
ATOM     15  N   UNL     1      11.891  45.010  46.872  0.00  0.00    +0.000 NA
ATOM     16  C   UNL     1      12.616  45.980  46.312  0.00  0.00    +0.000 A 
ATOM     17  C   UNL     1      12.228  47.300  46.513  0.00  0.00    +0.000 A 
ATOM     18  C   UNL     1      12.938  48.373  45.969  0.00  0.00    +0.000 A 
ATOM     19  C   UNL     1      14.072  48.132  45.206  0.00  0.00    +0.000 A 
ATOM     20  C   UNL     1      14.481  46.817  44.988  0.00  0.00    +0.000 A 
ATOM     21  C   UNL     1      13.752  45.726  45.530  0.00  0.00    +0.000 A 
ENDBRANCH  10  12
ENDBRANCH   6  10
BRANCH   1  22
ATOM     22  C   UNL     1      16.165  38.396  41.042  0.00  0.00    +0.000 C 
BRANCH  22  26
ATOM     23  C   UNL     1      19.647  38.680  38.510  0.00  0.00    +0.000 A 
ATOM     24  C   UNL     1      18.471  38.123  38.014  0.00  0.00    +0.000 A 
ATOM     25  C   UNL     1      17.342  38.030  38.831  0.00  0.00    +0.000 A 
ATOM     26  C   UNL     1      17.378  38.499  40.153  0.00  0.00    +0.000 A 
ATOM     27  C   UNL     1      18.570  39.057  40.640  0.00  0.00    +0.000 A 
ATOM     28  C   UNL     1      19.697  39.147  39.821  0.00  0.00    +0.000 A 
ENDBRANCH  22  26
ENDBRANCH   1  22
TORSDOF 4
ENDMDL
