MODEL 1
REMARK VINA RESULT:    -7.376      0.000      0.000
REMARK INTER + INTRA:          -8.126
REMARK INTER:                  -7.805
REMARK INTRA:                  -0.322
REMARK UNBOUND:                -0.319
REMARK  Name = 
REMARK  3 active torsions:
REMARK  status: ('A' for Active; 'I' for Inactive)
REMARK    1  A    between atoms: C_1  and  N_2
REMARK    2  A    between atoms: C_16  and  C_17
REMARK    3  A    between atoms: N_26  and  C_27
REMARK                            x       y       z     vdW  Elec       q    Type
REMARK                         _______ _______ _______ _____ _____    ______ ____
ROOT
ATOM      1  C   UNL     1      11.907  38.076  48.641  0.00  0.00    +0.000 C 
ATOM      2  N   UNL     1      12.497  38.964  47.669  0.00  0.00    +0.000 N 
ATOM      3  N   UNL     1      13.092  38.446  46.580  0.00  0.00    +0.000 NA
ATOM      4  C   UNL     1      13.539  39.523  45.917  0.00  0.00    +0.000 A 
ATOM      5  C   UNL     1      13.222  40.731  46.569  0.00  0.00    +0.000 A 
ATOM      6  C   UNL     1      12.507  40.326  47.676  0.00  0.00    +0.000 A 
ATOM      7  C   UNL     1      11.869  41.226  48.656  0.00  0.00    +0.000 C 
ATOM      8  C   UNL     1      11.432  42.504  47.920  0.00  0.00    +0.000 C 
ATOM      9  C   UNL     1      12.472  43.067  46.950  0.00  0.00    +0.000 A 
ATOM     10  C   UNL     1      13.385  42.157  46.302  0.00  0.00    +0.000 A 
ATOM     11  C   UNL     1      14.370  42.680  45.477  0.00  0.00    +0.000 A 
ATOM     12  C   UNL     1      14.474  44.057  45.220  0.00  0.00    +0.000 A 
ATOM     13  C   UNL     1      13.565  44.962  45.784  0.00  0.00    +0.000 A 
ATOM     14  C   UNL     1      13.436  46.384  45.724  0.00  0.00    +0.000 A 
ATOM     15  C   UNL     1      14.173  47.411  45.094  0.00  0.00    +0.000 A 
ATOM     16  C   UNL     1      13.799  48.766  45.217  0.00  0.00    +0.000 A 
ATOM     17  C   UNL     1      12.682  49.070  45.999  0.00  0.00    +0.000 A 
ATOM     18  C   UNL     1      11.930  48.072  46.634  0.00  0.00    +0.000 A 
ATOM     19  C   UNL     1      12.323  46.733  46.479  0.00  0.00    +0.000 A 
ATOM     20  N   UNL     1      11.768  45.556  46.950  0.00  0.00    +0.000 N 
ATOM     21  C   UNL     1      10.492  45.508  47.634  0.00  0.00    +0.000 C 
ATOM     22  C   UNL     1      12.556  44.459  46.619  0.00  0.00    +0.000 A 
ATOM     23  C   UNL     1      15.634  44.335  44.312  0.00  0.00    +0.000 C 
ATOM     24  N   UNL     1      16.168  43.029  44.076  0.00  0.00    +0.000 N 
ATOM     25  C   UNL     1      15.501  42.041  44.763  0.00  0.00    +0.000 C 
ATOM     26  O   UNL     1      15.841  40.876  44.771  0.00  0.00    +0.000 OA
ATOM     27  H   UNL     1      17.015  42.821  43.564  0.00  0.00    +0.000 HD
ENDROOT
BRANCH  16  28
ATOM     28  C   UNL     1      14.661  49.823  44.539  0.00  0.00    +0.000 C 
ATOM     29  C   UNL     1      16.176  49.702  44.770  0.00  0.00    +0.000 C 
ATOM     30  C   UNL     1      16.928  50.851  44.104  0.00  0.00    +0.000 C 
ATOM     31  C   UNL     1      16.327  52.193  44.501  0.00  0.00    +0.000 C 
ATOM     32  C   UNL     1      14.823  52.187  44.282  0.00  0.00    +0.000 C 
ATOM     33  O   UNL     1      14.217  51.112  44.994  0.00  0.00    +0.000 OA
ENDBRANCH  16  28
TORSDOF 1
ENDMDL
MODEL 2
REMARK VINA RESULT:    -7.227      1.148      1.425
REMARK INTER + INTRA:          -7.969
REMARK INTER:                  -7.648
REMARK INTRA:                  -0.321
REMARK UNBOUND:                -0.319
REMARK  Name = 
REMARK  3 active torsions:
REMARK  status: ('A' for Active; 'I' for Inactive)
REMARK    1  A    between atoms: C_1  and  N_2
REMARK    2  A    between atoms: C_16  and  C_17
REMARK    3  A    between atoms: N_26  and  C_27
REMARK                            x       y       z     vdW  Elec       q    Type
REMARK                         _______ _______ _______ _____ _____    ______ ____
ROOT
ATOM      1  C   UNL     1      10.136  39.750  49.050  0.00  0.00    +0.000 C 
ATOM      2  N   UNL     1      10.943  40.430  48.067  0.00  0.00    +0.000 N 
ATOM      3  N   UNL     1      11.500  39.722  47.069  0.00  0.00    +0.000 NA
ATOM      4  C   UNL     1      12.182  40.640  46.368  0.00  0.00    +0.000 A 
ATOM      5  C   UNL     1      12.057  41.936  46.905  0.00  0.00    +0.000 A 
ATOM      6  C   UNL     1      11.208  41.763  47.978  0.00  0.00    +0.000 A 
ATOM      7  C   UNL     1      10.688  42.845  48.837  0.00  0.00    +0.000 C 
ATOM      8  C   UNL     1      10.547  44.113  47.980  0.00  0.00    +0.000 C 
ATOM      9  C   UNL     1      11.735  44.393  47.057  0.00  0.00    +0.000 A 
ATOM     10  C   UNL     1      12.501  43.280  46.551  0.00  0.00    +0.000 A 
ATOM     11  C   UNL     1      13.618  43.543  45.771  0.00  0.00    +0.000 A 
ATOM     12  C   UNL     1      13.995  44.852  45.425  0.00  0.00    +0.000 A 
ATOM     13  C   UNL     1      13.237  45.952  45.849  0.00  0.00    +0.000 A 
ATOM     14  C   UNL     1      13.381  47.363  45.677  0.00  0.00    +0.000 A 
ATOM     15  C   UNL     1      14.337  48.182  45.036  0.00  0.00    +0.000 A 
ATOM     16  C   UNL     1      14.217  49.587  45.032  0.00  0.00    +0.000 A 
ATOM     17  C   UNL     1      13.128  50.155  45.699  0.00  0.00    +0.000 A 
ATOM     18  C   UNL     1      12.163  49.368  46.342  0.00  0.00    +0.000 A 
ATOM     19  C   UNL     1      12.307  47.972  46.315  0.00  0.00    +0.000 A 
ATOM     20  N   UNL     1      11.512  46.960  46.824  0.00  0.00    +0.000 N 
ATOM     21  C   UNL     1      10.208  47.203  47.406  0.00  0.00    +0.000 C 
ATOM     22  C   UNL     1      12.100  45.713  46.635  0.00  0.00    +0.000 A 
ATOM     23  C   UNL     1      15.242  44.837  44.595  0.00  0.00    +0.000 C 
ATOM     24  N   UNL     1      15.536  43.440  44.496  0.00  0.00    +0.000 N 
ATOM     25  C   UNL     1      14.653  42.651  45.196  0.00  0.00    +0.000 C 
ATOM     26  O   UNL     1      14.767  41.449  45.314  0.00  0.00    +0.000 OA
ATOM     27  H   UNL     1      16.361  43.038  44.069  0.00  0.00    +0.000 HD
ENDROOT
BRANCH  16  28
ATOM     28  C   UNL     1      15.304  50.409  44.350  0.00  0.00    +0.000 C 
ATOM     29  C   UNL     1      16.750  50.050  44.727  0.00  0.00    +0.000 C 
ATOM     30  C   UNL     1      17.745  50.981  44.039  0.00  0.00    +0.000 C 
ATOM     31  C   UNL     1      17.369  52.439  44.270  0.00  0.00    +0.000 C 
ATOM     32  C   UNL     1      15.909  52.673  43.917  0.00  0.00    +0.000 C 
ATOM     33  O   UNL     1      15.068  51.793  44.657  0.00  0.00    +0.000 OA
ENDBRANCH  16  28
TORSDOF 1
ENDMDL
MODEL 3
REMARK VINA RESULT:    -7.126      3.137      5.656
REMARK INTER + INTRA:          -7.862
REMARK INTER:                  -7.543
REMARK INTRA:                  -0.319
REMARK UNBOUND:                -0.319
REMARK  Name = 
REMARK  3 active torsions:
REMARK  status: ('A' for Active; 'I' for Inactive)
REMARK    1  A    between atoms: C_1  and  N_2
REMARK    2  A    between atoms: C_16  and  C_17
REMARK    3  A    between atoms: N_26  and  C_27
REMARK                            x       y       z     vdW  Elec       q    Type
REMARK                         _______ _______ _______ _____ _____    ______ ____
ROOT
ATOM      1  C   UNL     1      18.526  36.568  42.268  0.00  0.00    +0.000 C 
ATOM      2  N   UNL     1      18.044  37.347  43.383  0.00  0.00    +0.000 N 
ATOM      3  N   UNL     1      18.382  36.985  44.634  0.00  0.00    +0.000 NA
ATOM      4  C   UNL     1      17.763  37.890  45.406  0.00  0.00    +0.000 A 
ATOM      5  C   UNL     1      17.039  38.838  44.657  0.00  0.00    +0.000 A 
ATOM      6  C   UNL     1      17.286  38.478  43.349  0.00  0.00    +0.000 A 
ATOM      7  C   UNL     1      16.817  39.212  42.159  0.00  0.00    +0.000 C 
ATOM      8  C   UNL     1      16.748  40.707  42.513  0.00  0.00    +0.000 C 
ATOM      9  C   UNL     1      16.123  41.009  43.876  0.00  0.00    +0.000 A 
ATOM     10  C   UNL     1      16.257  40.039  44.935  0.00  0.00    +0.000 A 
ATOM     11  C   UNL     1      15.630  40.288  46.148  0.00  0.00    +0.000 A 
ATOM     12  C   UNL     1      14.912  41.472  46.387  0.00  0.00    +0.000 A 
ATOM     13  C   UNL     1      14.815  42.462  45.400  0.00  0.00    +0.000 A 
ATOM     14  C   UNL     1      14.152  43.728  45.348  0.00  0.00    +0.000 A 
ATOM     15  C   UNL     1      13.340  44.449  46.250  0.00  0.00    +0.000 A 
ATOM     16  C   UNL     1      12.808  45.711  45.912  0.00  0.00    +0.000 A 
ATOM     17  C   UNL     1      13.093  46.227  44.645  0.00  0.00    +0.000 A 
ATOM     18  C   UNL     1      13.899  45.534  43.730  0.00  0.00    +0.000 A 
ATOM     19  C   UNL     1      14.422  44.287  44.104  0.00  0.00    +0.000 A 
ATOM     20  N   UNL     1      15.257  43.408  43.438  0.00  0.00    +0.000 N 
ATOM     21  C   UNL     1      15.892  43.731  42.176  0.00  0.00    +0.000 C 
ATOM     22  C   UNL     1      15.444  42.238  44.167  0.00  0.00    +0.000 A 
ATOM     23  C   UNL     1      14.331  41.463  47.768  0.00  0.00    +0.000 C 
ATOM     24  N   UNL     1      14.772  40.204  48.286  0.00  0.00    +0.000 N 
ATOM     25  C   UNL     1      15.488  39.466  47.372  0.00  0.00    +0.000 C 
ATOM     26  O   UNL     1      15.883  38.337  47.577  0.00  0.00    +0.000 OA
ATOM     27  H   UNL     1      14.507  39.807  49.178  0.00  0.00    +0.000 HD
ENDROOT
BRANCH  16  28
ATOM     28  C   UNL     1      11.911  46.417  46.922  0.00  0.00    +0.000 C 
ATOM     29  C   UNL     1      10.718  45.599  47.443  0.00  0.00    +0.000 C 
ATOM     30  C   UNL     1       9.855  46.429  48.390  0.00  0.00    +0.000 C 
ATOM     31  C   UNL     1       9.484  47.763  47.755  0.00  0.00    +0.000 C 
ATOM     32  C   UNL     1      10.726  48.462  47.227  0.00  0.00    +0.000 C 
ATOM     33  O   UNL     1      11.423  47.623  46.310  0.00  0.00    +0.000 OA
ENDBRANCH  16  28
TORSDOF 1
ENDMDL
