MODEL 1
REMARK VINA RESULT:    -6.074      0.000      0.000
REMARK INTER + INTRA:          -8.207
REMARK INTER:                  -7.256
REMARK INTRA:                  -0.950
REMARK UNBOUND:                -0.713
REMARK  Name = 
REMARK  4 active torsions:
REMARK  status: ('A' for Active; 'I' for Inactive)
REMARK    1  A    between atoms: N_12  and  C_13
REMARK    2  A    between atoms: C_13  and  C_14
REMARK    3  A    between atoms: C_16  and  C_17
REMARK    4  A    between atoms: C_17  and  N_18
REMARK                            x       y       z     vdW  Elec       q    Type
REMARK                         _______ _______ _______ _____ _____    ______ ____
ROOT
ATOM      1  C   UNL     1      19.335  36.280  52.083  0.00  0.00    +0.000 C 
ATOM      2  C   UNL     1      19.557  36.585  50.622  0.00  0.00    +0.000 C 
ATOM      3  C   UNL     1      18.252  36.974  51.278  0.00  0.00    +0.000 C 
ENDROOT
BRANCH   1   4
ATOM      4  C   UNL     1      19.146  34.875  52.559  0.00  0.00    +0.000 C 
BRANCH   4  16
ATOM      5  O   UNL     1      22.082  34.381  52.173  0.00  0.00    +0.000 OA
ATOM      6  C   UNL     1      21.543  34.320  53.263  0.00  0.00    +0.000 C 
ATOM      7  C   UNL     1      22.236  34.021  54.531  0.00  0.00    +0.000 A 
ATOM      8  C   UNL     1      23.596  33.817  54.694  0.00  0.00    +0.000 A 
ATOM      9  C   UNL     1      24.077  33.581  55.986  0.00  0.00    +0.000 A 
ATOM     10  C   UNL     1      23.199  33.553  57.088  0.00  0.00    +0.000 A 
ATOM     11  C   UNL     1      21.828  33.756  56.915  0.00  0.00    +0.000 A 
ATOM     12  C   UNL     1      21.381  33.980  55.626  0.00  0.00    +0.000 A 
ATOM     13  S   UNL     1      19.741  34.282  55.131  0.00  0.00    +0.000 S 
ATOM     14  O   UNL     1      18.995  33.051  55.241  0.00  0.00    +0.000 OA
ATOM     15  O   UNL     1      19.306  35.529  55.715  0.00  0.00    +0.000 OA
ATOM     16  N   UNL     1      20.173  34.525  53.527  0.00  0.00    +0.000 N 
ENDBRANCH   4  16
ENDBRANCH   1   4
BRANCH   3  17
ATOM     17  C   UNL     1      17.924  38.418  51.541  0.00  0.00    +0.000 C 
BRANCH  17  18
ATOM     18  N   UNL     1      16.515  38.566  51.918  0.00  0.00    +0.000 NA
ATOM     19  C   UNL     1      16.262  39.893  52.529  0.00  0.00    +0.000 C 
ATOM     20  C   UNL     1      16.843  40.092  53.948  0.00  0.00    +0.000 C 
ATOM     21  N   UNL     1      16.437  38.999  54.840  0.00  0.00    +0.000 N 
ATOM     22  C   UNL     1      16.861  39.164  56.158  0.00  0.00    +0.000 A 
ATOM     23  N   UNL     1      17.056  40.411  56.626  0.00  0.00    +0.000 NA
ATOM     24  C   UNL     1      17.413  40.553  57.916  0.00  0.00    +0.000 A 
ATOM     25  C   UNL     1      17.603  39.500  58.767  0.00  0.00    +0.000 A 
ATOM     26  C   UNL     1      17.394  38.268  58.210  0.00  0.00    +0.000 A 
ATOM     27  N   UNL     1      17.026  38.079  56.929  0.00  0.00    +0.000 NA
ATOM     28  C   UNL     1      16.625  37.647  54.304  0.00  0.00    +0.000 C 
ATOM     29  C   UNL     1      16.053  37.534  52.873  0.00  0.00    +0.000 C 
ENDBRANCH  17  18
ENDBRANCH   3  17
TORSDOF 4
ENDMDL
MODEL 2
REMARK VINA RESULT:    -5.874      1.372      2.280
REMARK INTER + INTRA:          -7.960
REMARK INTER:                  -7.171
REMARK INTRA:                  -0.789
REMARK UNBOUND:                -0.713
REMARK  Name = 
REMARK  4 active torsions:
REMARK  status: ('A' for Active; 'I' for Inactive)
REMARK    1  A    between atoms: N_12  and  C_13
REMARK    2  A    between atoms: C_13  and  C_14
REMARK    3  A    between atoms: C_16  and  C_17
REMARK    4  A    between atoms: C_17  and  N_18
REMARK                            x       y       z     vdW  Elec       q    Type
REMARK                         _______ _______ _______ _____ _____    ______ ____
ROOT
ATOM      1  C   UNL     1      19.813  35.757  50.603  0.00  0.00    +0.000 C 
ATOM      2  C   UNL     1      18.925  36.128  49.441  0.00  0.00    +0.000 C 
ATOM      3  C   UNL     1      18.515  36.504  50.847  0.00  0.00    +0.000 C 
ENDROOT
BRANCH   1   4
ATOM      4  C   UNL     1      19.966  34.334  51.036  0.00  0.00    +0.000 C 
BRANCH   4  16
ATOM      5  O   UNL     1      19.614  35.177  53.895  0.00  0.00    +0.000 OA
ATOM      6  C   UNL     1      20.634  34.653  53.485  0.00  0.00    +0.000 C 
ATOM      7  C   UNL     1      21.814  34.344  54.314  0.00  0.00    +0.000 A 
ATOM      8  C   UNL     1      21.933  34.544  55.679  0.00  0.00    +0.000 A 
ATOM      9  C   UNL     1      23.123  34.151  56.301  0.00  0.00    +0.000 A 
ATOM     10  C   UNL     1      24.167  33.567  55.557  0.00  0.00    +0.000 A 
ATOM     11  C   UNL     1      24.040  33.371  54.180  0.00  0.00    +0.000 A 
ATOM     12  C   UNL     1      22.857  33.776  53.591  0.00  0.00    +0.000 A 
ATOM     13  S   UNL     1      22.427  33.630  51.912  0.00  0.00    +0.000 S 
ATOM     14  O   UNL     1      23.201  34.587  51.157  0.00  0.00    +0.000 OA
ATOM     15  O   UNL     1      22.352  32.228  51.576  0.00  0.00    +0.000 OA
ATOM     16  N   UNL     1      20.883  34.241  52.160  0.00  0.00    +0.000 N 
ENDBRANCH   4  16
ENDBRANCH   1   4
BRANCH   3  17
ATOM     17  C   UNL     1      18.541  37.938  51.298  0.00  0.00    +0.000 C 
BRANCH  17  18
ATOM     18  N   UNL     1      17.184  38.492  51.332  0.00  0.00    +0.000 NA
ATOM     19  C   UNL     1      17.179  39.856  51.913  0.00  0.00    +0.000 C 
ATOM     20  C   UNL     1      17.436  39.930  53.436  0.00  0.00    +0.000 C 
ATOM     21  N   UNL     1      16.536  39.029  54.165  0.00  0.00    +0.000 N 
ATOM     22  C   UNL     1      16.660  39.111  55.551  0.00  0.00    +0.000 A 
ATOM     23  N   UNL     1      17.083  40.267  56.097  0.00  0.00    +0.000 NA
ATOM     24  C   UNL     1      17.145  40.347  57.439  0.00  0.00    +0.000 A 
ATOM     25  C   UNL     1      16.820  39.312  58.272  0.00  0.00    +0.000 A 
ATOM     26  C   UNL     1      16.410  38.172  57.637  0.00  0.00    +0.000 A 
ATOM     27  N   UNL     1      16.322  38.052  56.299  0.00  0.00    +0.000 NA
ATOM     28  C   UNL     1      16.455  37.662  53.641  0.00  0.00    +0.000 C 
ATOM     29  C   UNL     1      16.234  37.666  52.111  0.00  0.00    +0.000 C 
ENDBRANCH  17  18
ENDBRANCH   3  17
TORSDOF 4
ENDMDL
MODEL 3
REMARK VINA RESULT:    -5.717      5.649      9.801
REMARK INTER + INTRA:          -7.767
REMARK INTER:                  -7.054
REMARK INTRA:                  -0.713
REMARK UNBOUND:                -0.713
REMARK  Name = 
REMARK  4 active torsions:
REMARK  status: ('A' for Active; 'I' for Inactive)
REMARK    1  A    between atoms: N_12  and  C_13
REMARK    2  A    between atoms: C_13  and  C_14
REMARK    3  A    between atoms: C_16  and  C_17
REMARK    4  A    between atoms: C_17  and  N_18
REMARK                            x       y       z     vdW  Elec       q    Type
REMARK                         _______ _______ _______ _____ _____    ______ ____
ROOT
ATOM      1  C   UNL     1      17.454  38.527  51.278  0.00  0.00    +0.000 C 
ATOM      2  C   UNL     1      18.264  37.347  50.803  0.00  0.00    +0.000 C 
ATOM      3  C   UNL     1      16.995  37.725  50.075  0.00  0.00    +0.000 C 
ENDROOT
BRANCH   1   4
ATOM      4  C   UNL     1      16.692  38.474  52.564  0.00  0.00    +0.000 C 
BRANCH   4  16
ATOM      5  O   UNL     1      17.906  41.111  53.329  0.00  0.00    +0.000 OA
ATOM      6  C   UNL     1      16.707  40.959  53.177  0.00  0.00    +0.000 C 
ATOM      7  C   UNL     1      15.697  42.023  53.322  0.00  0.00    +0.000 A 
ATOM      8  C   UNL     1      15.945  43.358  53.598  0.00  0.00    +0.000 A 
ATOM      9  C   UNL     1      14.854  44.231  53.662  0.00  0.00    +0.000 A 
ATOM     10  C   UNL     1      13.542  43.763  53.451  0.00  0.00    +0.000 A 
ATOM     11  C   UNL     1      13.300  42.416  53.176  0.00  0.00    +0.000 A 
ATOM     12  C   UNL     1      14.396  41.574  53.127  0.00  0.00    +0.000 A 
ATOM     13  S   UNL     1      14.384  39.869  52.785  0.00  0.00    +0.000 S 
ATOM     14  O   UNL     1      13.830  39.178  53.925  0.00  0.00    +0.000 OA
ATOM     15  O   UNL     1      13.917  39.673  51.433  0.00  0.00    +0.000 OA
ATOM     16  N   UNL     1      16.059  39.755  52.832  0.00  0.00    +0.000 N 
ENDBRANCH   4  16
ENDBRANCH   1   4
BRANCH   3  17
ATOM     17  C   UNL     1      17.048  38.329  48.699  0.00  0.00    +0.000 C 
BRANCH  17  18
ATOM     18  N   UNL     1      15.876  37.928  47.914  0.00  0.00    +0.000 NA
ATOM     19  C   UNL     1      16.231  37.726  46.489  0.00  0.00    +0.000 C 
ATOM     20  C   UNL     1      16.541  39.015  45.693  0.00  0.00    +0.000 C 
ATOM     21  N   UNL     1      15.463  39.999  45.848  0.00  0.00    +0.000 N 
ATOM     22  C   UNL     1      15.643  41.153  45.086  0.00  0.00    +0.000 A 
ATOM     23  N   UNL     1      16.358  41.074  43.948  0.00  0.00    +0.000 NA
ATOM     24  C   UNL     1      16.476  42.185  43.198  0.00  0.00    +0.000 A 
ATOM     25  C   UNL     1      15.924  43.389  43.539  0.00  0.00    +0.000 A 
ATOM     26  C   UNL     1      15.222  43.385  44.714  0.00  0.00    +0.000 A 
ATOM     27  N   UNL     1      15.070  42.296  45.490  0.00  0.00    +0.000 NA
ATOM     28  C   UNL     1      15.026  40.242  47.226  0.00  0.00    +0.000 C 
ATOM     29  C   UNL     1      14.771  38.911  47.969  0.00  0.00    +0.000 C 
ENDBRANCH  17  18
ENDBRANCH   3  17
TORSDOF 4
ENDMDL
