MODEL 1
REMARK VINA RESULT:    -5.165      0.000      0.000
REMARK INTER + INTRA:         -11.066
REMARK INTER:                  -7.917
REMARK INTRA:                  -3.149
REMARK UNBOUND:                -3.486
REMARK  Name = 
REMARK  10 active torsions:
REMARK  status: ('A' for Active; 'I' for Inactive)
REMARK    1  A    between atoms: C_1  and  C_2
REMARK    2  A    between atoms: C_4  and  C_5
REMARK    3  A    between atoms: C_7  and  C_8
REMARK    4  A    between atoms: C_8  and  O_9
REMARK    5  A    between atoms: O_9  and  C_10
REMARK    6  A    between atoms: C_10  and  C_11
REMARK    7  A    between atoms: C_11  and  N_12
REMARK    8  A    between atoms: C_11  and  C_15
REMARK    9  A    between atoms: C_15  and  C_16
REMARK   10  A    between atoms: C_15  and  C_22
REMARK                            x       y       z     vdW  Elec       q    Type
REMARK                         _______ _______ _______ _____ _____    ______ ____
ROOT
ATOM      1  C   UNL     1      13.468  43.087  46.259  0.00  0.00    +0.000 C 
ENDROOT
BRANCH   1   2
ATOM      2  N   UNL     1      12.500  42.467  45.338  0.00  0.00    +0.000 N 
ATOM      3  C   UNL     1      11.180  42.316  45.673  0.00  0.00    +0.000 C 
ATOM      4  O   UNL     1      10.675  42.670  46.729  0.00  0.00    +0.000 OA
ATOM      5  H   UNL     1      12.815  42.139  44.433  0.00  0.00    +0.000 HD
ENDBRANCH   1   2
BRANCH   1   6
ATOM      6  C   UNL     1      14.419  41.982  46.797  0.00  0.00    +0.000 C 
BRANCH   6   7
ATOM      7  O   UNL     1      14.274  40.715  46.161  0.00  0.00    +0.000 OA
BRANCH   7   8
ATOM      8  C   UNL     1      15.496  40.171  45.664  0.00  0.00    +0.000 C 
BRANCH   8  15
ATOM      9  C   UNL     1      12.995  40.434  41.298  0.00  0.00    +0.000 C 
ATOM     10  C   UNL     1      14.273  40.206  42.048  0.00  0.00    +0.000 A 
ATOM     11  C   UNL     1      15.470  39.977  41.359  0.00  0.00    +0.000 A 
ATOM     12  C   UNL     1      16.671  39.777  42.051  0.00  0.00    +0.000 A 
ATOM     13  C   UNL     1      17.951  39.544  41.305  0.00  0.00    +0.000 C 
ATOM     14  C   UNL     1      16.674  39.850  43.449  0.00  0.00    +0.000 A 
ATOM     15  C   UNL     1      15.491  40.100  44.157  0.00  0.00    +0.000 A 
ATOM     16  C   UNL     1      14.294  40.272  43.447  0.00  0.00    +0.000 A 
ENDBRANCH   8  15
ENDBRANCH   7   8
ENDBRANCH   6   7
ENDBRANCH   1   6
BRANCH   1  17
ATOM     17  C   UNL     1      14.258  44.262  45.575  0.00  0.00    +0.000 C 
BRANCH  17  18
ATOM     18  C   UNL     1      14.548  44.058  44.081  0.00  0.00    +0.000 A 
ATOM     19  C   UNL     1      13.586  44.295  43.085  0.00  0.00    +0.000 A 
ATOM     20  C   UNL     1      13.892  44.105  41.737  0.00  0.00    +0.000 A 
ATOM     21  C   UNL     1      15.167  43.688  41.360  0.00  0.00    +0.000 A 
ATOM     22  C   UNL     1      16.138  43.464  42.332  0.00  0.00    +0.000 A 
ATOM     23  C   UNL     1      15.833  43.653  43.681  0.00  0.00    +0.000 A 
ENDBRANCH  17  18
BRANCH  17  24
ATOM     24  C   UNL     1      13.632  45.636  45.812  0.00  0.00    +0.000 A 
ATOM     25  C   UNL     1      14.292  46.792  45.365  0.00  0.00    +0.000 A 
ATOM     26  C   UNL     1      13.737  48.056  45.573  0.00  0.00    +0.000 A 
ATOM     27  C   UNL     1      12.513  48.184  46.223  0.00  0.00    +0.000 A 
ATOM     28  C   UNL     1      11.842  47.047  46.667  0.00  0.00    +0.000 A 
ATOM     29  C   UNL     1      12.395  45.782  46.462  0.00  0.00    +0.000 A 
ENDBRANCH  17  24
ENDBRANCH   1  17
TORSDOF 8
ENDMDL
MODEL 2
REMARK VINA RESULT:    -4.937     10.838     14.294
REMARK INTER + INTRA:         -10.732
REMARK INTER:                  -7.246
REMARK INTRA:                  -3.486
REMARK UNBOUND:                -3.486
REMARK  Name = 
REMARK  10 active torsions:
REMARK  status: ('A' for Active; 'I' for Inactive)
REMARK    1  A    between atoms: C_1  and  C_2
REMARK    2  A    between atoms: C_4  and  C_5
REMARK    3  A    between atoms: C_7  and  C_8
REMARK    4  A    between atoms: C_8  and  O_9
REMARK    5  A    between atoms: O_9  and  C_10
REMARK    6  A    between atoms: C_10  and  C_11
REMARK    7  A    between atoms: C_11  and  N_12
REMARK    8  A    between atoms: C_11  and  C_15
REMARK    9  A    between atoms: C_15  and  C_16
REMARK   10  A    between atoms: C_15  and  C_22
REMARK                            x       y       z     vdW  Elec       q    Type
REMARK                         _______ _______ _______ _____ _____    ______ ____
ROOT
ATOM      1  C   UNL     1      19.134  33.544  54.506  0.00  0.00    +0.000 C 
ENDROOT
BRANCH   1   2
ATOM      2  N   UNL     1      19.701  32.271  54.985  0.00  0.00    +0.000 N 
ATOM      3  C   UNL     1      19.449  31.084  54.348  0.00  0.00    +0.000 C 
ATOM      4  O   UNL     1      18.759  30.952  53.348  0.00  0.00    +0.000 OA
ATOM      5  H   UNL     1      20.290  32.269  55.809  0.00  0.00    +0.000 HD
ENDBRANCH   1   2
BRANCH   1   6
ATOM      6  C   UNL     1      18.172  34.099  55.592  0.00  0.00    +0.000 C 
BRANCH   6   7
ATOM      7  O   UNL     1      17.929  35.501  55.505  0.00  0.00    +0.000 OA
BRANCH   7   8
ATOM      8  C   UNL     1      16.751  35.841  54.773  0.00  0.00    +0.000 C 
BRANCH   8  15
ATOM      9  C   UNL     1      17.014  36.078  49.747  0.00  0.00    +0.000 C 
ATOM     10  C   UNL     1      17.235  36.711  51.088  0.00  0.00    +0.000 A 
ATOM     11  C   UNL     1      17.704  38.028  51.184  0.00  0.00    +0.000 A 
ATOM     12  C   UNL     1      17.899  38.632  52.432  0.00  0.00    +0.000 A 
ATOM     13  C   UNL     1      18.391  40.046  52.525  0.00  0.00    +0.000 C 
ATOM     14  C   UNL     1      17.581  37.919  53.594  0.00  0.00    +0.000 A 
ATOM     15  C   UNL     1      17.089  36.609  53.519  0.00  0.00    +0.000 A 
ATOM     16  C   UNL     1      16.924  36.012  52.261  0.00  0.00    +0.000 A 
ENDBRANCH   8  15
ENDBRANCH   7   8
ENDBRANCH   6   7
ENDBRANCH   1   6
BRANCH   1  17
ATOM     17  C   UNL     1      20.256  34.579  54.128  0.00  0.00    +0.000 C 
BRANCH  17  18
ATOM     18  C   UNL     1      21.641  34.271  54.716  0.00  0.00    +0.000 A 
ATOM     19  C   UNL     1      22.688  33.741  53.945  0.00  0.00    +0.000 A 
ATOM     20  C   UNL     1      23.935  33.481  54.516  0.00  0.00    +0.000 A 
ATOM     21  C   UNL     1      24.160  33.758  55.862  0.00  0.00    +0.000 A 
ATOM     22  C   UNL     1      23.139  34.300  56.638  0.00  0.00    +0.000 A 
ATOM     23  C   UNL     1      21.890  34.559  56.069  0.00  0.00    +0.000 A 
ENDBRANCH  17  18
BRANCH  17  24
ATOM     24  C   UNL     1      20.363  34.840  52.626  0.00  0.00    +0.000 A 
ATOM     25  C   UNL     1      19.967  33.848  51.714  0.00  0.00    +0.000 A 
ATOM     26  C   UNL     1      20.058  34.067  50.337  0.00  0.00    +0.000 A 
ATOM     27  C   UNL     1      20.541  35.279  49.853  0.00  0.00    +0.000 A 
ATOM     28  C   UNL     1      20.932  36.276  50.743  0.00  0.00    +0.000 A 
ATOM     29  C   UNL     1      20.843  36.060  52.120  0.00  0.00    +0.000 A 
ENDBRANCH  17  24
ENDBRANCH   1  17
TORSDOF 8
ENDMDL
MODEL 3
REMARK VINA RESULT:    -4.903      2.088      4.746
REMARK INTER + INTRA:         -10.681
REMARK INTER:                  -7.498
REMARK INTRA:                  -3.184
REMARK UNBOUND:                -3.486
REMARK  Name = 
REMARK  10 active torsions:
REMARK  status: ('A' for Active; 'I' for Inactive)
REMARK    1  A    between atoms: C_1  and  C_2
REMARK    2  A    between atoms: C_4  and  C_5
REMARK    3  A    between atoms: C_7  and  C_8
REMARK    4  A    between atoms: C_8  and  O_9
REMARK    5  A    between atoms: O_9  and  C_10
REMARK    6  A    between atoms: C_10  and  C_11
REMARK    7  A    between atoms: C_11  and  N_12
REMARK    8  A    between atoms: C_11  and  C_15
REMARK    9  A    between atoms: C_15  and  C_16
REMARK   10  A    between atoms: C_15  and  C_22
REMARK                            x       y       z     vdW  Elec       q    Type
REMARK                         _______ _______ _______ _____ _____    ______ ____
ROOT
ATOM      1  C   UNL     1      14.692  43.591  43.525  0.00  0.00    +0.000 C 
ENDROOT
BRANCH   1   2
ATOM      2  N   UNL     1      14.006  44.684  42.814  0.00  0.00    +0.000 N 
ATOM      3  C   UNL     1      13.326  44.469  41.644  0.00  0.00    +0.000 C 
ATOM      4  O   UNL     1      13.211  43.389  41.082  0.00  0.00    +0.000 OA
ATOM      5  H   UNL     1      14.038  45.622  43.196  0.00  0.00    +0.000 HD
ENDBRANCH   1   2
BRANCH   1   6
ATOM      6  C   UNL     1      16.164  43.526  43.033  0.00  0.00    +0.000 C 
BRANCH   6   7
ATOM      7  O   UNL     1      16.677  42.206  42.877  0.00  0.00    +0.000 OA
BRANCH   7   8
ATOM      8  C   UNL     1      15.724  41.267  42.379  0.00  0.00    +0.000 C 
BRANCH   8  15
ATOM      9  C   UNL     1      17.190  38.736  46.481  0.00  0.00    +0.000 C 
ATOM     10  C   UNL     1      16.276  38.874  45.301  0.00  0.00    +0.000 A 
ATOM     11  C   UNL     1      15.230  37.964  45.102  0.00  0.00    +0.000 A 
ATOM     12  C   UNL     1      14.363  38.094  44.011  0.00  0.00    +0.000 A 
ATOM     13  C   UNL     1      13.238  37.121  43.812  0.00  0.00    +0.000 C 
ATOM     14  C   UNL     1      14.524  39.173  43.134  0.00  0.00    +0.000 A 
ATOM     15  C   UNL     1      15.550  40.108  43.328  0.00  0.00    +0.000 A 
ATOM     16  C   UNL     1      16.424  39.946  44.413  0.00  0.00    +0.000 A 
ENDBRANCH   8  15
ENDBRANCH   7   8
ENDBRANCH   6   7
ENDBRANCH   1   6
BRANCH   1  17
ATOM     17  C   UNL     1      14.599  43.757  45.085  0.00  0.00    +0.000 C 
BRANCH  17  18
ATOM     18  C   UNL     1      13.817  44.992  45.556  0.00  0.00    +0.000 A 
ATOM     19  C   UNL     1      12.587  44.898  46.228  0.00  0.00    +0.000 A 
ATOM     20  C   UNL     1      11.911  46.046  46.645  0.00  0.00    +0.000 A 
ATOM     21  C   UNL     1      12.458  47.304  46.409  0.00  0.00    +0.000 A 
ATOM     22  C   UNL     1      13.684  47.417  45.759  0.00  0.00    +0.000 A 
ATOM     23  C   UNL     1      14.361  46.270  45.340  0.00  0.00    +0.000 A 
ENDBRANCH  17  18
BRANCH  17  24
ATOM     24  C   UNL     1      14.094  42.505  45.802  0.00  0.00    +0.000 A 
ATOM     25  C   UNL     1      14.740  42.057  46.966  0.00  0.00    +0.000 A 
ATOM     26  C   UNL     1      14.294  40.915  47.635  0.00  0.00    +0.000 A 
ATOM     27  C   UNL     1      13.195  40.208  47.155  0.00  0.00    +0.000 A 
ATOM     28  C   UNL     1      12.539  40.642  46.005  0.00  0.00    +0.000 A 
ATOM     29  C   UNL     1      12.983  41.783  45.334  0.00  0.00    +0.000 A 
ENDBRANCH  17  24
ENDBRANCH   1  17
TORSDOF 8
ENDMDL
