MODEL 1
REMARK VINA RESULT:    -6.627      0.000      0.000
REMARK INTER + INTRA:          -9.653
REMARK INTER:                  -9.142
REMARK INTRA:                  -0.511
REMARK UNBOUND:                -0.702
REMARK  Name = 
REMARK  6 active torsions:
REMARK  status: ('A' for Active; 'I' for Inactive)
REMARK    1  A    between atoms: C_5  and  C_6
REMARK    2  A    between atoms: C_6  and  C_7
REMARK    3  A    between atoms: C_6  and  N_14
REMARK    4  A    between atoms: N_17  and  C_18
REMARK    5  A    between atoms: C_18  and  C_19
REMARK    6  A    between atoms: C_20  and  C_21
REMARK                            x       y       z     vdW  Elec       q    Type
REMARK                         _______ _______ _______ _____ _____    ______ ____
ROOT
ATOM      1  C   UNL     1      17.197  37.437  51.026  0.00  0.00    +0.000 C 
ENDROOT
BRANCH   1   6
ATOM      2  F   UNL     1      22.060  34.917  49.456  0.00  0.00    +0.000 F 
ATOM      3  C   UNL     1      20.914  35.511  49.818  0.00  0.00    +0.000 A 
ATOM      4  C   UNL     1      20.891  36.324  50.945  0.00  0.00    +0.000 A 
ATOM      5  C   UNL     1      19.698  36.945  51.324  0.00  0.00    +0.000 A 
ATOM      6  C   UNL     1      18.519  36.781  50.568  0.00  0.00    +0.000 A 
ATOM      7  C   UNL     1      18.572  35.917  49.458  0.00  0.00    +0.000 A 
ATOM      8  C   UNL     1      19.767  35.298  49.075  0.00  0.00    +0.000 A 
ENDBRANCH   1   6
BRANCH   1   9
ATOM      9  C   UNL     1      17.282  38.156  52.384  0.00  0.00    +0.000 A 
ATOM     10  C   UNL     1      17.014  37.442  53.568  0.00  0.00    +0.000 A 
ATOM     11  C   UNL     1      17.068  38.077  54.814  0.00  0.00    +0.000 A 
ATOM     12  C   UNL     1      17.389  39.427  54.883  0.00  0.00    +0.000 A 
ATOM     13  F   UNL     1      17.426  40.038  56.078  0.00  0.00    +0.000 F 
ATOM     14  C   UNL     1      17.671  40.154  53.734  0.00  0.00    +0.000 A 
ATOM     15  C   UNL     1      17.620  39.521  52.488  0.00  0.00    +0.000 A 
ENDBRANCH   1   9
BRANCH   1  16
ATOM     16  N   UNL     1      16.535  38.235  49.976  0.00  0.00    +0.000 NA
ATOM     17  C   UNL     1      15.196  37.818  49.558  0.00  0.00    +0.000 C 
ATOM     18  C   UNL     1      14.500  38.899  48.684  0.00  0.00    +0.000 C 
ATOM     19  N   UNL     1      15.399  39.678  47.804  0.00  0.00    +0.000 NA
ATOM     20  C   UNL     1      16.625  38.922  47.524  0.00  0.00    +0.000 C 
ATOM     21  C   UNL     1      17.392  38.534  48.816  0.00  0.00    +0.000 C 
BRANCH  19  22
ATOM     22  C   UNL     1      14.746  40.123  46.569  0.00  0.00    +0.000 C 
BRANCH  22  23
ATOM     23  C   UNL     1      14.553  41.614  46.536  0.00  0.00    +0.000 C 
ATOM     24  C   UNL     1      13.379  42.213  46.270  0.00  0.00    +0.000 C 
BRANCH  24  25
ATOM     25  C   UNL     1      13.207  43.670  46.250  0.00  0.00    +0.000 A 
ATOM     26  C   UNL     1      12.044  44.227  46.796  0.00  0.00    +0.000 A 
ATOM     27  C   UNL     1      11.843  45.610  46.775  0.00  0.00    +0.000 A 
ATOM     28  C   UNL     1      12.797  46.444  46.194  0.00  0.00    +0.000 A 
ATOM     29  C   UNL     1      13.951  45.898  45.635  0.00  0.00    +0.000 A 
ATOM     30  C   UNL     1      14.154  44.516  45.661  0.00  0.00    +0.000 A 
ENDBRANCH  24  25
ENDBRANCH  22  23
ENDBRANCH  19  22
ENDBRANCH   1  16
TORSDOF 6
ENDMDL
MODEL 2
REMARK VINA RESULT:    -6.529      3.258      5.234
REMARK INTER + INTRA:          -9.520
REMARK INTER:                  -8.819
REMARK INTRA:                  -0.702
REMARK UNBOUND:                -0.702
REMARK  Name = 
REMARK  6 active torsions:
REMARK  status: ('A' for Active; 'I' for Inactive)
REMARK    1  A    between atoms: C_5  and  C_6
REMARK    2  A    between atoms: C_6  and  C_7
REMARK    3  A    between atoms: C_6  and  N_14
REMARK    4  A    between atoms: N_17  and  C_18
REMARK    5  A    between atoms: C_18  and  C_19
REMARK    6  A    between atoms: C_20  and  C_21
REMARK                            x       y       z     vdW  Elec       q    Type
REMARK                         _______ _______ _______ _____ _____    ______ ____
ROOT
ATOM      1  C   UNL     1      14.916  40.447  53.390  0.00  0.00    +0.000 C 
ENDROOT
BRANCH   1   6
ATOM      2  F   UNL     1      17.987  38.041  57.542  0.00  0.00    +0.000 F 
ATOM      3  C   UNL     1      17.270  38.603  56.560  0.00  0.00    +0.000 A 
ATOM      4  C   UNL     1      16.841  39.918  56.693  0.00  0.00    +0.000 A 
ATOM      5  C   UNL     1      16.092  40.507  55.671  0.00  0.00    +0.000 A 
ATOM      6  C   UNL     1      15.784  39.798  54.491  0.00  0.00    +0.000 A 
ATOM      7  C   UNL     1      16.200  38.455  54.413  0.00  0.00    +0.000 A 
ATOM      8  C   UNL     1      16.953  37.866  55.433  0.00  0.00    +0.000 A 
ENDBRANCH   1   6
BRANCH   1   9
ATOM      9  C   UNL     1      14.948  41.985  53.381  0.00  0.00    +0.000 A 
ATOM     10  C   UNL     1      13.797  42.707  53.751  0.00  0.00    +0.000 A 
ATOM     11  C   UNL     1      13.795  44.107  53.734  0.00  0.00    +0.000 A 
ATOM     12  C   UNL     1      14.942  44.791  53.349  0.00  0.00    +0.000 A 
ATOM     13  F   UNL     1      14.933  46.133  53.320  0.00  0.00    +0.000 F 
ATOM     14  C   UNL     1      16.096  44.106  52.992  0.00  0.00    +0.000 A 
ATOM     15  C   UNL     1      16.101  42.707  53.009  0.00  0.00    +0.000 A 
ENDBRANCH   1   9
BRANCH   1  16
ATOM     16  N   UNL     1      15.103  39.845  52.055  0.00  0.00    +0.000 NA
ATOM     17  C   UNL     1      16.433  39.943  51.454  0.00  0.00    +0.000 C 
ATOM     18  C   UNL     1      16.574  39.022  50.209  0.00  0.00    +0.000 C 
ATOM     19  N   UNL     1      15.348  38.859  49.398  0.00  0.00    +0.000 NA
ATOM     20  C   UNL     1      14.444  39.998  49.598  0.00  0.00    +0.000 C 
ATOM     21  C   UNL     1      14.048  40.188  51.086  0.00  0.00    +0.000 C 
BRANCH  19  22
ATOM     22  C   UNL     1      15.627  38.634  47.977  0.00  0.00    +0.000 C 
BRANCH  22  23
ATOM     23  C   UNL     1      15.497  39.895  47.168  0.00  0.00    +0.000 C 
ATOM     24  C   UNL     1      15.893  40.009  45.888  0.00  0.00    +0.000 C 
BRANCH  24  25
ATOM     25  C   UNL     1      15.752  41.245  45.111  0.00  0.00    +0.000 A 
ATOM     26  C   UNL     1      15.079  42.335  45.677  0.00  0.00    +0.000 A 
ATOM     27  C   UNL     1      14.912  43.519  44.955  0.00  0.00    +0.000 A 
ATOM     28  C   UNL     1      15.403  43.617  43.654  0.00  0.00    +0.000 A 
ATOM     29  C   UNL     1      16.062  42.533  43.075  0.00  0.00    +0.000 A 
ATOM     30  C   UNL     1      16.234  41.352  43.799  0.00  0.00    +0.000 A 
ENDBRANCH  24  25
ENDBRANCH  22  23
ENDBRANCH  19  22
ENDBRANCH   1  16
TORSDOF 6
ENDMDL
MODEL 3
REMARK VINA RESULT:    -6.526      1.569      2.042
REMARK INTER + INTRA:          -9.517
REMARK INTER:                  -8.644
REMARK INTRA:                  -0.873
REMARK UNBOUND:                -0.702
REMARK  Name = 
REMARK  6 active torsions:
REMARK  status: ('A' for Active; 'I' for Inactive)
REMARK    1  A    between atoms: C_5  and  C_6
REMARK    2  A    between atoms: C_6  and  C_7
REMARK    3  A    between atoms: C_6  and  N_14
REMARK    4  A    between atoms: N_17  and  C_18
REMARK    5  A    between atoms: C_18  and  C_19
REMARK    6  A    between atoms: C_20  and  C_21
REMARK                            x       y       z     vdW  Elec       q    Type
REMARK                         _______ _______ _______ _____ _____    ______ ____
ROOT
ATOM      1  C   UNL     1      17.952  36.807  51.119  0.00  0.00    +0.000 C 
ENDROOT
BRANCH   1   6
ATOM      2  F   UNL     1      22.697  33.667  51.426  0.00  0.00    +0.000 F 
ATOM      3  C   UNL     1      21.578  34.400  51.349  0.00  0.00    +0.000 A 
ATOM      4  C   UNL     1      21.670  35.772  51.152  0.00  0.00    +0.000 A 
ATOM      5  C   UNL     1      20.505  36.539  51.072  0.00  0.00    +0.000 A 
ATOM      6  C   UNL     1      19.231  35.940  51.163  0.00  0.00    +0.000 A 
ATOM      7  C   UNL     1      19.179  34.554  51.405  0.00  0.00    +0.000 A 
ATOM      8  C   UNL     1      20.345  33.785  51.480  0.00  0.00    +0.000 A 
ENDBRANCH   1   6
BRANCH   1   9
ATOM      9  C   UNL     1      17.808  37.785  52.297  0.00  0.00    +0.000 A 
ATOM     10  C   UNL     1      17.267  37.331  53.516  0.00  0.00    +0.000 A 
ATOM     11  C   UNL     1      17.108  38.206  54.597  0.00  0.00    +0.000 A 
ATOM     12  C   UNL     1      17.491  39.536  54.467  0.00  0.00    +0.000 A 
ATOM     13  F   UNL     1      17.325  40.376  55.500  0.00  0.00    +0.000 F 
ATOM     14  C   UNL     1      18.040  40.008  53.282  0.00  0.00    +0.000 A 
ATOM     15  C   UNL     1      18.200  39.136  52.200  0.00  0.00    +0.000 A 
ENDBRANCH   1   9
BRANCH   1  16
ATOM     16  N   UNL     1      17.700  37.426  49.803  0.00  0.00    +0.000 NA
ATOM     17  C   UNL     1      16.398  38.062  49.598  0.00  0.00    +0.000 C 
ATOM     18  C   UNL     1      16.374  38.926  48.305  0.00  0.00    +0.000 C 
ATOM     19  N   UNL     1      17.190  38.412  47.184  0.00  0.00    +0.000 NA
ATOM     20  C   UNL     1      17.392  36.965  47.316  0.00  0.00    +0.000 C 
ATOM     21  C   UNL     1      18.071  36.579  48.657  0.00  0.00    +0.000 C 
BRANCH  19  22
ATOM     22  C   UNL     1      16.644  38.763  45.870  0.00  0.00    +0.000 C 
BRANCH  22  23
ATOM     23  C   UNL     1      16.093  40.162  45.840  0.00  0.00    +0.000 C 
ATOM     24  C   UNL     1      15.992  40.905  44.724  0.00  0.00    +0.000 C 
BRANCH  24  25
ATOM     25  C   UNL     1      15.444  42.266  44.712  0.00  0.00    +0.000 A 
ATOM     26  C   UNL     1      14.681  42.704  45.801  0.00  0.00    +0.000 A 
ATOM     27  C   UNL     1      14.130  43.988  45.810  0.00  0.00    +0.000 A 
ATOM     28  C   UNL     1      14.326  44.838  44.722  0.00  0.00    +0.000 A 
ATOM     29  C   UNL     1      15.071  44.407  43.627  0.00  0.00    +0.000 A 
ATOM     30  C   UNL     1      15.627  43.125  43.621  0.00  0.00    +0.000 A 
ENDBRANCH  24  25
ENDBRANCH  22  23
ENDBRANCH  19  22
ENDBRANCH   1  16
TORSDOF 6
ENDMDL
