MODEL 1
REMARK VINA RESULT:    -7.030      0.000      0.000
REMARK INTER + INTRA:          -9.455
REMARK INTER:                  -8.844
REMARK INTRA:                  -0.611
REMARK UNBOUND:                -0.781
REMARK  Name = 
REMARK  4 active torsions:
REMARK  status: ('A' for Active; 'I' for Inactive)
REMARK    1  A    between atoms: N_2  and  C_4
REMARK    2  A    between atoms: C_9  and  C_10
REMARK    3  A    between atoms: C_17  and  N_18
REMARK    4  A    between atoms: N_18  and  C_19
REMARK                            x       y       z     vdW  Elec       q    Type
REMARK                         _______ _______ _______ _____ _____    ______ ____
ROOT
ATOM      1  C   UNL     1      16.577  39.788  56.617  0.00  0.00    +0.000 A 
ATOM      2  C   UNL     1      16.926  38.443  56.733  0.00  0.00    +0.000 A 
ATOM      3  C   UNL     1      17.379  37.759  55.600  0.00  0.00    +0.000 A 
ATOM      4  C   UNL     1      17.496  38.377  54.361  0.00  0.00    +0.000 A 
ATOM      5  N   UNL     1      17.932  37.645  53.327  0.00  0.00    +0.000 NA
ATOM      6  C   UNL     1      18.069  38.223  52.108  0.00  0.00    +0.000 A 
ATOM      7  C   UNL     1      17.749  39.557  51.898  0.00  0.00    +0.000 A 
ATOM      8  C   UNL     1      17.281  40.329  52.966  0.00  0.00    +0.000 A 
ATOM      9  C   UNL     1      17.154  39.740  54.245  0.00  0.00    +0.000 A 
ATOM     10  C   UNL     1      16.684  40.437  55.384  0.00  0.00    +0.000 A 
ENDROOT
BRANCH   6  11
ATOM     11  C   UNL     1      18.573  37.340  51.035  0.00  0.00    +0.000 A 
ATOM     12  C   UNL     1      17.868  37.144  49.833  0.00  0.00    +0.000 A 
ATOM     13  C   UNL     1      18.359  36.301  48.829  0.00  0.00    +0.000 A 
ATOM     14  C   UNL     1      19.569  35.637  49.006  0.00  0.00    +0.000 A 
ATOM     15  C   UNL     1      20.292  35.819  50.181  0.00  0.00    +0.000 A 
ATOM     16  C   UNL     1      19.799  36.664  51.180  0.00  0.00    +0.000 A 
ENDBRANCH   6  11
BRANCH   1  18
ATOM     17  O   UNL     1      16.404  40.092  58.913  0.00  0.00    +0.000 OA
ATOM     18  N   UNL     1      16.091  40.521  57.793  0.00  0.00    +0.000 N 
ATOM     19  O   UNL     1      15.395  41.527  57.596  0.00  0.00    +0.000 OA
ENDBRANCH   1  18
BRANCH   8  20
ATOM     20  N   UNL     1      17.026  41.708  52.751  0.00  0.00    +0.000 N 
ATOM     21  H   UNL     1      17.812  42.283  53.051  0.00  0.00    +0.000 HD
BRANCH  20  22
ATOM     22  C   UNL     1      15.812  42.384  53.041  0.00  0.00    +0.000 A 
ATOM     23  C   UNL     1      14.555  41.772  52.942  0.00  0.00    +0.000 A 
ATOM     24  C   UNL     1      13.382  42.498  53.179  0.00  0.00    +0.000 A 
ATOM     25  C   UNL     1      13.457  43.850  53.498  0.00  0.00    +0.000 A 
ATOM     26 CL   UNL     1      12.018  44.744  53.790  0.00  0.00    +0.000 Cl
ATOM     27  C   UNL     1      14.694  44.484  53.574  0.00  0.00    +0.000 A 
ATOM     28  C   UNL     1      15.863  43.754  53.338  0.00  0.00    +0.000 A 
ENDBRANCH  20  22
ENDBRANCH   8  20
TORSDOF 4
ENDMDL
MODEL 2
REMARK VINA RESULT:    -6.836      9.843     12.424
REMARK INTER + INTRA:          -9.215
REMARK INTER:                  -8.173
REMARK INTRA:                  -1.042
REMARK UNBOUND:                -0.781
REMARK  Name = 
REMARK  4 active torsions:
REMARK  status: ('A' for Active; 'I' for Inactive)
REMARK    1  A    between atoms: N_2  and  C_4
REMARK    2  A    between atoms: C_9  and  C_10
REMARK    3  A    between atoms: C_17  and  N_18
REMARK    4  A    between atoms: N_18  and  C_19
REMARK                            x       y       z     vdW  Elec       q    Type
REMARK                         _______ _______ _______ _____ _____    ______ ____
ROOT
ATOM      1  C   UNL     1      15.988  40.457  45.338  0.00  0.00    +0.000 A 
ATOM      2  C   UNL     1      15.371  40.656  46.572  0.00  0.00    +0.000 A 
ATOM      3  C   UNL     1      14.728  41.872  46.823  0.00  0.00    +0.000 A 
ATOM      4  C   UNL     1      14.679  42.890  45.879  0.00  0.00    +0.000 A 
ATOM      5  N   UNL     1      14.047  44.026  46.205  0.00  0.00    +0.000 NA
ATOM      6  C   UNL     1      13.972  45.033  45.301  0.00  0.00    +0.000 A 
ATOM      7  C   UNL     1      14.554  44.926  44.045  0.00  0.00    +0.000 A 
ATOM      8  C   UNL     1      15.227  43.751  43.698  0.00  0.00    +0.000 A 
ATOM      9  C   UNL     1      15.294  42.688  44.627  0.00  0.00    +0.000 A 
ATOM     10  C   UNL     1      15.957  41.464  44.368  0.00  0.00    +0.000 A 
ENDROOT
BRANCH   6  11
ATOM     11  C   UNL     1      13.240  46.238  45.745  0.00  0.00    +0.000 A 
ATOM     12  C   UNL     1      12.075  46.161  46.531  0.00  0.00    +0.000 A 
ATOM     13  C   UNL     1      11.393  47.313  46.939  0.00  0.00    +0.000 A 
ATOM     14  C   UNL     1      11.863  48.569  46.570  0.00  0.00    +0.000 A 
ATOM     15  C   UNL     1      13.017  48.677  45.801  0.00  0.00    +0.000 A 
ATOM     16  C   UNL     1      13.698  47.523  45.397  0.00  0.00    +0.000 A 
ENDBRANCH   6  11
BRANCH   1  18
ATOM     17  O   UNL     1      16.761  38.826  43.878  0.00  0.00    +0.000 OA
ATOM     18  N   UNL     1      16.677  39.191  45.059  0.00  0.00    +0.000 N 
ATOM     19  O   UNL     1      17.133  38.560  46.024  0.00  0.00    +0.000 OA
ENDBRANCH   1  18
BRANCH   8  20
ATOM     20  N   UNL     1      15.756  43.630  42.386  0.00  0.00    +0.000 N 
ATOM     21  H   UNL     1      16.431  44.367  42.188  0.00  0.00    +0.000 HD
BRANCH  20  22
ATOM     22  C   UNL     1      15.010  43.347  41.212  0.00  0.00    +0.000 A 
ATOM     23  C   UNL     1      14.513  44.345  40.363  0.00  0.00    +0.000 A 
ATOM     24  C   UNL     1      13.730  44.017  39.251  0.00  0.00    +0.000 A 
ATOM     25  C   UNL     1      13.421  42.685  38.989  0.00  0.00    +0.000 A 
ATOM     26 CL   UNL     1      12.460  42.281  37.623  0.00  0.00    +0.000 Cl
ATOM     27  C   UNL     1      13.882  41.680  39.834  0.00  0.00    +0.000 A 
ATOM     28  C   UNL     1      14.665  42.013  40.945  0.00  0.00    +0.000 A 
ENDBRANCH  20  22
ENDBRANCH   8  20
TORSDOF 4
ENDMDL
MODEL 3
REMARK VINA RESULT:    -6.732      9.333     11.154
REMARK INTER + INTRA:          -9.087
REMARK INTER:                  -8.306
REMARK INTRA:                  -0.781
REMARK UNBOUND:                -0.781
REMARK  Name = 
REMARK  4 active torsions:
REMARK  status: ('A' for Active; 'I' for Inactive)
REMARK    1  A    between atoms: N_2  and  C_4
REMARK    2  A    between atoms: C_9  and  C_10
REMARK    3  A    between atoms: C_17  and  N_18
REMARK    4  A    between atoms: N_18  and  C_19
REMARK                            x       y       z     vdW  Elec       q    Type
REMARK                         _______ _______ _______ _____ _____    ______ ____
ROOT
ATOM      1  C   UNL     1      14.537  42.918  40.687  0.00  0.00    +0.000 A 
ATOM      2  C   UNL     1      14.587  41.527  40.620  0.00  0.00    +0.000 A 
ATOM      3  C   UNL     1      14.850  40.799  41.785  0.00  0.00    +0.000 A 
ATOM      4  C   UNL     1      15.060  41.418  43.011  0.00  0.00    +0.000 A 
ATOM      5  N   UNL     1      15.312  40.646  44.076  0.00  0.00    +0.000 NA
ATOM      6  C   UNL     1      15.509  41.219  45.289  0.00  0.00    +0.000 A 
ATOM      7  C   UNL     1      15.475  42.597  45.453  0.00  0.00    +0.000 A 
ATOM      8  C   UNL     1      15.225  43.415  44.347  0.00  0.00    +0.000 A 
ATOM      9  C   UNL     1      14.999  42.825  43.083  0.00  0.00    +0.000 A 
ATOM     10  C   UNL     1      14.744  43.570  41.906  0.00  0.00    +0.000 A 
ENDROOT
BRANCH   6  11
ATOM     11  C   UNL     1      15.763  40.284  46.405  0.00  0.00    +0.000 A 
ATOM     12  C   UNL     1      16.806  39.340  46.371  0.00  0.00    +0.000 A 
ATOM     13  C   UNL     1      17.028  38.460  47.436  0.00  0.00    +0.000 A 
ATOM     14  C   UNL     1      16.212  38.508  48.562  0.00  0.00    +0.000 A 
ATOM     15  C   UNL     1      15.178  39.437  48.628  0.00  0.00    +0.000 A 
ATOM     16  C   UNL     1      14.961  40.316  47.562  0.00  0.00    +0.000 A 
ENDBRANCH   6  11
BRANCH   1  18
ATOM     17  O   UNL     1      14.244  43.097  38.391  0.00  0.00    +0.000 OA
ATOM     18  N   UNL     1      14.271  43.700  39.473  0.00  0.00    +0.000 N 
ATOM     19  O   UNL     1      14.089  44.919  39.603  0.00  0.00    +0.000 OA
ENDBRANCH   1  18
BRANCH   8  20
ATOM     20  N   UNL     1      15.124  44.818  44.545  0.00  0.00    +0.000 N 
ATOM     21  H   UNL     1      16.028  45.226  44.778  0.00  0.00    +0.000 HD
BRANCH  20  22
ATOM     22  C   UNL     1      14.104  45.482  45.275  0.00  0.00    +0.000 A 
ATOM     23  C   UNL     1      13.066  44.805  45.927  0.00  0.00    +0.000 A 
ATOM     24  C   UNL     1      12.050  45.508  46.582  0.00  0.00    +0.000 A 
ATOM     25  C   UNL     1      12.053  46.900  46.573  0.00  0.00    +0.000 A 
ATOM     26 CL   UNL     1      10.806  47.766  47.378  0.00  0.00    +0.000 Cl
ATOM     27  C   UNL     1      13.061  47.593  45.909  0.00  0.00    +0.000 A 
ATOM     28  C   UNL     1      14.075  46.885  45.256  0.00  0.00    +0.000 A 
ENDBRANCH  20  22
ENDBRANCH   8  20
TORSDOF 4
ENDMDL
