MODEL 1
REMARK VINA RESULT:    -6.877      0.000      0.000
REMARK INTER + INTRA:         -10.159
REMARK INTER:                  -8.822
REMARK INTRA:                  -1.337
REMARK UNBOUND:                -1.272
REMARK  Name = 
REMARK  7 active torsions:
REMARK  status: ('A' for Active; 'I' for Inactive)
REMARK    1  A    between atoms: C_1  and  O_2
REMARK    2  A    between atoms: O_2  and  C_3
REMARK    3  A    between atoms: C_6  and  N_7
REMARK    4  A    between atoms: C_8  and  C_10
REMARK    5  A    between atoms: C_12  and  C_13
REMARK    6  A    between atoms: C_16  and  N_17
REMARK    7  A    between atoms: C_18  and  C_20
REMARK                            x       y       z     vdW  Elec       q    Type
REMARK                         _______ _______ _______ _____ _____    ______ ____
ROOT
ATOM      1  C   UNL     1      16.641  38.628  48.433  0.00  0.00    +0.000 A 
ATOM      2  C   UNL     1      17.439  37.490  48.657  0.00  0.00    +0.000 A 
ATOM      3  C   UNL     1      18.091  36.858  47.596  0.00  0.00    +0.000 A 
ATOM      4  C   UNL     1      18.970  35.667  47.837  0.00  0.00    +0.000 C 
ATOM      5  C   UNL     1      17.961  37.394  46.313  0.00  0.00    +0.000 A 
ATOM      6  C   UNL     1      17.189  38.540  46.087  0.00  0.00    +0.000 A 
ATOM      7  C   UNL     1      16.527  39.182  47.137  0.00  0.00    +0.000 A 
ENDROOT
BRANCH   1   9
ATOM      8  N   UNL     1      16.751  39.784  50.566  0.00  0.00    +0.000 N 
ATOM      9  C   UNL     1      15.928  39.252  49.588  0.00  0.00    +0.000 C 
ATOM     10  O   UNL     1      14.704  39.197  49.611  0.00  0.00    +0.000 OA
ATOM     11  H   UNL     1      17.745  39.622  50.470  0.00  0.00    +0.000 HD
BRANCH   8  15
ATOM     12  C   UNL     1      15.582  41.598  54.203  0.00  0.00    +0.000 A 
ATOM     13  C   UNL     1      15.710  42.384  53.061  0.00  0.00    +0.000 A 
ATOM     14  C   UNL     1      16.096  41.806  51.841  0.00  0.00    +0.000 A 
ATOM     15  C   UNL     1      16.355  40.438  51.752  0.00  0.00    +0.000 A 
ATOM     16  C   UNL     1      16.231  39.655  52.904  0.00  0.00    +0.000 A 
ATOM     17  C   UNL     1      15.846  40.232  54.117  0.00  0.00    +0.000 A 
BRANCH  12  19
ATOM     18  C   UNL     1      15.495  41.166  56.537  0.00  0.00    +0.000 C 
ATOM     19  O   UNL     1      15.215  42.034  55.446  0.00  0.00    +0.000 OA
ENDBRANCH  12  19
ENDBRANCH   8  15
ENDBRANCH   1   9
BRANCH   7  20
ATOM     20  N   UNL     1      15.756  40.358  46.952  0.00  0.00    +0.000 N 
ATOM     21  C   UNL     1      14.510  40.505  46.369  0.00  0.00    +0.000 C 
ATOM     22  O   UNL     1      13.858  39.575  45.902  0.00  0.00    +0.000 OA
ATOM     23  H   UNL     1      16.232  41.222  47.223  0.00  0.00    +0.000 HD
BRANCH  21  24
ATOM     24  C   UNL     1      14.031  41.883  46.326  0.00  0.00    +0.000 A 
ATOM     25  S   UNL     1      14.993  43.042  45.510  0.00  0.00    +0.000 S 
ATOM     26  C   UNL     1      13.912  44.327  45.864  0.00  0.00    +0.000 A 
ATOM     27  C   UNL     1      14.064  45.679  45.498  0.00  0.00    +0.000 A 
ATOM     28  C   UNL     1      13.078  46.598  45.864  0.00  0.00    +0.000 A 
ATOM     29  C   UNL     1      11.964  46.184  46.577  0.00  0.00    +0.000 A 
ATOM     30  C   UNL     1      11.816  44.841  46.935  0.00  0.00    +0.000 A 
ATOM     31  C   UNL     1      12.803  43.880  46.584  0.00  0.00    +0.000 A 
ATOM     32  C   UNL     1      12.882  42.462  46.829  0.00  0.00    +0.000 A 
ATOM     33 CL   UNL     1      11.618  41.626  47.647  0.00  0.00    +0.000 Cl
ENDBRANCH  21  24
ENDBRANCH   7  20
TORSDOF 5
ENDMDL
MODEL 2
REMARK VINA RESULT:    -6.705      1.479      1.757
REMARK INTER + INTRA:          -9.937
REMARK INTER:                  -9.021
REMARK INTRA:                  -0.916
REMARK UNBOUND:                -1.272
REMARK  Name = 
REMARK  7 active torsions:
REMARK  status: ('A' for Active; 'I' for Inactive)
REMARK    1  A    between atoms: C_1  and  O_2
REMARK    2  A    between atoms: O_2  and  C_3
REMARK    3  A    between atoms: C_6  and  N_7
REMARK    4  A    between atoms: C_8  and  C_10
REMARK    5  A    between atoms: C_12  and  C_13
REMARK    6  A    between atoms: C_16  and  N_17
REMARK    7  A    between atoms: C_18  and  C_20
REMARK                            x       y       z     vdW  Elec       q    Type
REMARK                         _______ _______ _______ _____ _____    ______ ____
ROOT
ATOM      1  C   UNL     1      16.952  38.356  48.390  0.00  0.00    +0.000 A 
ATOM      2  C   UNL     1      17.691  37.208  48.737  0.00  0.00    +0.000 A 
ATOM      3  C   UNL     1      18.381  36.484  47.762  0.00  0.00    +0.000 A 
ATOM      4  C   UNL     1      19.198  35.283  48.134  0.00  0.00    +0.000 C 
ATOM      5  C   UNL     1      18.350  36.938  46.441  0.00  0.00    +0.000 A 
ATOM      6  C   UNL     1      17.637  38.092  46.094  0.00  0.00    +0.000 A 
ATOM      7  C   UNL     1      16.938  38.825  47.057  0.00  0.00    +0.000 A 
ENDROOT
BRANCH   1   9
ATOM      8  N   UNL     1      16.968  39.565  50.496  0.00  0.00    +0.000 N 
ATOM      9  C   UNL     1      16.195  39.080  49.456  0.00  0.00    +0.000 C 
ATOM     10  O   UNL     1      14.974  39.136  49.361  0.00  0.00    +0.000 OA
ATOM     11  H   UNL     1      17.947  39.311  50.500  0.00  0.00    +0.000 HD
BRANCH   8  15
ATOM     12  C   UNL     1      15.648  41.599  53.962  0.00  0.00    +0.000 A 
ATOM     13  C   UNL     1      15.874  42.321  52.793  0.00  0.00    +0.000 A 
ATOM     14  C   UNL     1      16.312  41.670  51.629  0.00  0.00    +0.000 A 
ATOM     15  C   UNL     1      16.526  40.292  51.622  0.00  0.00    +0.000 A 
ATOM     16  C   UNL     1      16.303  39.572  52.800  0.00  0.00    +0.000 A 
ATOM     17  C   UNL     1      15.866  40.222  53.958  0.00  0.00    +0.000 A 
BRANCH  12  19
ATOM     18  C   UNL     1      14.868  41.169  56.163  0.00  0.00    +0.000 C 
ATOM     19  O   UNL     1      15.222  42.109  55.156  0.00  0.00    +0.000 OA
ENDBRANCH  12  19
ENDBRANCH   8  15
ENDBRANCH   1   9
BRANCH   7  20
ATOM     20  N   UNL     1      16.225  40.012  46.748  0.00  0.00    +0.000 N 
ATOM     21  C   UNL     1      15.708  40.432  45.535  0.00  0.00    +0.000 C 
ATOM     22  O   UNL     1      15.801  39.791  44.492  0.00  0.00    +0.000 OA
ATOM     23  H   UNL     1      16.157  40.677  47.522  0.00  0.00    +0.000 HD
BRANCH  21  24
ATOM     24  C   UNL     1      15.052  41.735  45.587  0.00  0.00    +0.000 A 
ATOM     25  S   UNL     1      13.766  41.942  46.699  0.00  0.00    +0.000 S 
ATOM     26  C   UNL     1      13.489  43.567  46.220  0.00  0.00    +0.000 A 
ATOM     27  C   UNL     1      12.504  44.438  46.727  0.00  0.00    +0.000 A 
ATOM     28  C   UNL     1      12.424  45.739  46.226  0.00  0.00    +0.000 A 
ATOM     29  C   UNL     1      13.303  46.168  45.245  0.00  0.00    +0.000 A 
ATOM     30  C   UNL     1      14.281  45.302  44.747  0.00  0.00    +0.000 A 
ATOM     31  C   UNL     1      14.387  43.970  45.230  0.00  0.00    +0.000 A 
ATOM     32  C   UNL     1      15.293  42.901  44.887  0.00  0.00    +0.000 A 
ATOM     33 CL   UNL     1      16.549  43.133  43.732  0.00  0.00    +0.000 Cl
ENDBRANCH  21  24
ENDBRANCH   7  20
TORSDOF 5
ENDMDL
MODEL 3
REMARK VINA RESULT:    -6.478      1.313      1.962
REMARK INTER + INTRA:          -9.643
REMARK INTER:                  -8.371
REMARK INTRA:                  -1.272
REMARK UNBOUND:                -1.272
REMARK  Name = 
REMARK  7 active torsions:
REMARK  status: ('A' for Active; 'I' for Inactive)
REMARK    1  A    between atoms: C_1  and  O_2
REMARK    2  A    between atoms: O_2  and  C_3
REMARK    3  A    between atoms: C_6  and  N_7
REMARK    4  A    between atoms: C_8  and  C_10
REMARK    5  A    between atoms: C_12  and  C_13
REMARK    6  A    between atoms: C_16  and  N_17
REMARK    7  A    between atoms: C_18  and  C_20
REMARK                            x       y       z     vdW  Elec       q    Type
REMARK                         _______ _______ _______ _____ _____    ______ ____
ROOT
ATOM      1  C   UNL     1      17.264  37.968  49.080  0.00  0.00    +0.000 A 
ATOM      2  C   UNL     1      17.934  36.867  49.647  0.00  0.00    +0.000 A 
ATOM      3  C   UNL     1      18.656  35.982  48.842  0.00  0.00    +0.000 A 
ATOM      4  C   UNL     1      19.401  34.829  49.446  0.00  0.00    +0.000 C 
ATOM      5  C   UNL     1      18.726  36.229  47.469  0.00  0.00    +0.000 A 
ATOM      6  C   UNL     1      18.082  37.336  46.903  0.00  0.00    +0.000 A 
ATOM      7  C   UNL     1      17.352  38.228  47.694  0.00  0.00    +0.000 A 
ENDROOT
BRANCH   1   9
ATOM      8  N   UNL     1      17.205  39.537  50.934  0.00  0.00    +0.000 N 
ATOM      9  C   UNL     1      16.471  38.869  49.971  0.00  0.00    +0.000 C 
ATOM     10  O   UNL     1      15.254  38.903  49.822  0.00  0.00    +0.000 OA
ATOM     11  H   UNL     1      18.183  39.291  51.020  0.00  0.00    +0.000 HD
BRANCH   8  15
ATOM     12  C   UNL     1      15.728  42.387  53.687  0.00  0.00    +0.000 A 
ATOM     13  C   UNL     1      16.144  41.142  54.153  0.00  0.00    +0.000 A 
ATOM     14  C   UNL     1      16.638  40.179  53.260  0.00  0.00    +0.000 A 
ATOM     15  C   UNL     1      16.724  40.451  51.894  0.00  0.00    +0.000 A 
ATOM     16  C   UNL     1      16.300  41.701  51.431  0.00  0.00    +0.000 A 
ATOM     17  C   UNL     1      15.808  42.660  52.322  0.00  0.00    +0.000 A 
BRANCH  12  19
ATOM     18  C   UNL     1      14.787  44.567  53.752  0.00  0.00    +0.000 C 
ATOM     19  O   UNL     1      15.230  43.408  54.447  0.00  0.00    +0.000 OA
ENDBRANCH  12  19
ENDBRANCH   8  15
ENDBRANCH   1   9
BRANCH   7  20
ATOM     20  N   UNL     1      16.707  39.373  47.161  0.00  0.00    +0.000 N 
ATOM     21  C   UNL     1      15.777  39.458  46.139  0.00  0.00    +0.000 C 
ATOM     22  O   UNL     1      15.357  38.489  45.514  0.00  0.00    +0.000 OA
ATOM     23  H   UNL     1      17.041  40.261  47.543  0.00  0.00    +0.000 HD
BRANCH  21  24
ATOM     24  C   UNL     1      15.347  40.820  45.838  0.00  0.00    +0.000 A 
ATOM     25  S   UNL     1      15.861  41.515  44.359  0.00  0.00    +0.000 S 
ATOM     26  C   UNL     1      15.067  43.004  44.674  0.00  0.00    +0.000 A 
ATOM     27  C   UNL     1      15.058  44.144  43.847  0.00  0.00    +0.000 A 
ATOM     28  C   UNL     1      14.349  45.275  44.256  0.00  0.00    +0.000 A 
ATOM     29  C   UNL     1      13.661  45.275  45.460  0.00  0.00    +0.000 A 
ATOM     30  C   UNL     1      13.671  44.140  46.276  0.00  0.00    +0.000 A 
ATOM     31  C   UNL     1      14.387  42.973  45.893  0.00  0.00    +0.000 A 
ATOM     32  C   UNL     1      14.548  41.698  46.545  0.00  0.00    +0.000 A 
ATOM     33 CL   UNL     1      13.768  41.355  48.042  0.00  0.00    +0.000 Cl
ENDBRANCH  21  24
ENDBRANCH   7  20
TORSDOF 5
ENDMDL
