MODEL 1
REMARK VINA RESULT:    -6.334      0.000      0.000
REMARK INTER + INTRA:          -8.305
REMARK INTER:                  -7.686
REMARK INTRA:                  -0.619
REMARK UNBOUND:                -0.490
REMARK  Name = 
REMARK  7 active torsions:
REMARK  status: ('A' for Active; 'I' for Inactive)
REMARK    1  A    between atoms: C_1  and  O_2
REMARK    2  A    between atoms: O_2  and  C_3
REMARK    3  A    between atoms: C_7  and  C_8
REMARK    4  A    between atoms: C_8  and  C_10
REMARK    5  A    between atoms: C_21  and  C_22
REMARK    6  A    between atoms: C_22  and  C_23
REMARK    7  A    between atoms: C_22  and  C_24
REMARK                            x       y       z     vdW  Elec       q    Type
REMARK                         _______ _______ _______ _____ _____    ______ ____
ROOT
ATOM      1  C   UNL     1      15.105  42.407  42.498  0.00  0.00    +0.000 A 
ATOM      2  C   UNL     1      14.646  43.670  42.396  0.00  0.00    +0.000 A 
ATOM      3  C   UNL     1      14.350  44.439  43.548  0.00  0.00    +0.000 A 
ATOM      4  N   UNL     1      13.899  45.672  43.645  0.00  0.00    +0.000 NA
ATOM      5  C   UNL     1      13.779  45.938  44.997  0.00  0.00    +0.000 A 
ATOM      6  C   UNL     1      14.186  44.830  45.721  0.00  0.00    +0.000 A 
ATOM      7  N   UNL     1      14.542  43.878  44.796  0.00  0.00    +0.000 N 
ATOM      8  C   UNL     1      15.019  42.565  44.999  0.00  0.00    +0.000 A 
ATOM      9  C   UNL     1      15.198  42.034  46.280  0.00  0.00    +0.000 A 
ATOM     10  C   UNL     1      15.672  40.728  46.419  0.00  0.00    +0.000 A 
ATOM     11  C   UNL     1      15.968  39.945  45.294  0.00  0.00    +0.000 A 
ATOM     12  C   UNL     1      15.781  40.500  44.015  0.00  0.00    +0.000 A 
ATOM     13  C   UNL     1      15.306  41.810  43.847  0.00  0.00    +0.000 A 
ENDROOT
BRANCH  11  14
ATOM     14  C   UNL     1      16.483  38.527  45.475  0.00  0.00    +0.000 C 
ATOM     15  C   UNL     1      17.500  38.439  46.616  0.00  0.00    +0.000 C 
ATOM     16  C   UNL     1      17.068  37.970  44.176  0.00  0.00    +0.000 C 
ENDBRANCH  11  14
BRANCH   1  18
ATOM     17  C   UNL     1      14.365  41.108  40.622  0.00  0.00    +0.000 C 
ATOM     18  O   UNL     1      15.425  41.569  41.451  0.00  0.00    +0.000 OA
ENDBRANCH   1  18
BRANCH   5  19
ATOM     19  C   UNL     1      13.328  47.236  45.505  0.00  0.00    +0.000 C 
ATOM     20  O   UNL     1      12.435  47.354  46.341  0.00  0.00    +0.000 OA
BRANCH  19  21
ATOM     21  C   UNL     1      13.955  48.475  44.976  0.00  0.00    +0.000 A 
ATOM     22  C   UNL     1      15.317  48.692  45.220  0.00  0.00    +0.000 A 
ATOM     23  C   UNL     1      15.940  49.840  44.730  0.00  0.00    +0.000 A 
ATOM     24  C   UNL     1      15.210  50.764  43.983  0.00  0.00    +0.000 A 
ATOM     25  C   UNL     1      13.859  50.540  43.716  0.00  0.00    +0.000 A 
ATOM     26  C   UNL     1      13.231  49.394  44.205  0.00  0.00    +0.000 A 
ENDBRANCH  19  21
ENDBRANCH   5  19
TORSDOF 4
ENDMDL
MODEL 2
REMARK VINA RESULT:    -6.264      1.430      2.059
REMARK INTER + INTRA:          -8.218
REMARK INTER:                  -7.611
REMARK INTRA:                  -0.607
REMARK UNBOUND:                -0.490
REMARK  Name = 
REMARK  7 active torsions:
REMARK  status: ('A' for Active; 'I' for Inactive)
REMARK    1  A    between atoms: C_1  and  O_2
REMARK    2  A    between atoms: O_2  and  C_3
REMARK    3  A    between atoms: C_7  and  C_8
REMARK    4  A    between atoms: C_8  and  C_10
REMARK    5  A    between atoms: C_21  and  C_22
REMARK    6  A    between atoms: C_22  and  C_23
REMARK    7  A    between atoms: C_22  and  C_24
REMARK                            x       y       z     vdW  Elec       q    Type
REMARK                         _______ _______ _______ _____ _____    ______ ____
ROOT
ATOM      1  C   UNL     1      14.355  43.123  41.056  0.00  0.00    +0.000 A 
ATOM      2  C   UNL     1      13.801  44.286  41.451  0.00  0.00    +0.000 A 
ATOM      3  C   UNL     1      13.841  44.695  42.806  0.00  0.00    +0.000 A 
ATOM      4  N   UNL     1      13.361  45.782  43.373  0.00  0.00    +0.000 NA
ATOM      5  C   UNL     1      13.668  45.688  44.718  0.00  0.00    +0.000 A 
ATOM      6  C   UNL     1      14.363  44.514  44.950  0.00  0.00    +0.000 A 
ATOM      7  N   UNL     1      14.467  43.883  43.733  0.00  0.00    +0.000 N 
ATOM      8  C   UNL     1      15.074  42.651  43.411  0.00  0.00    +0.000 A 
ATOM      9  C   UNL     1      15.696  41.858  44.380  0.00  0.00    +0.000 A 
ATOM     10  C   UNL     1      16.279  40.647  44.002  0.00  0.00    +0.000 A 
ATOM     11  C   UNL     1      16.248  40.218  42.667  0.00  0.00    +0.000 A 
ATOM     12  C   UNL     1      15.618  41.032  41.709  0.00  0.00    +0.000 A 
ATOM     13  C   UNL     1      15.024  42.254  42.062  0.00  0.00    +0.000 A 
ENDROOT
BRANCH  11  14
ATOM     14  C   UNL     1      16.892  38.896  42.285  0.00  0.00    +0.000 C 
ATOM     15  C   UNL     1      17.389  38.134  43.516  0.00  0.00    +0.000 C 
ATOM     16  C   UNL     1      18.021  39.092  41.271  0.00  0.00    +0.000 C 
ENDBRANCH  11  14
BRANCH   1  18
ATOM     17  C   UNL     1      14.040  43.513  38.710  0.00  0.00    +0.000 C 
ATOM     18  O   UNL     1      14.376  42.626  39.770  0.00  0.00    +0.000 OA
ENDBRANCH   1  18
BRANCH   5  19
ATOM     19  C   UNL     1      13.316  46.737  45.679  0.00  0.00    +0.000 C 
ATOM     20  O   UNL     1      12.544  46.553  46.617  0.00  0.00    +0.000 OA
BRANCH  19  21
ATOM     21  C   UNL     1      13.895  48.095  45.508  0.00  0.00    +0.000 A 
ATOM     22  C   UNL     1      13.085  49.205  45.775  0.00  0.00    +0.000 A 
ATOM     23  C   UNL     1      13.599  50.494  45.636  0.00  0.00    +0.000 A 
ATOM     24  C   UNL     1      14.926  50.678  45.245  0.00  0.00    +0.000 A 
ATOM     25  C   UNL     1      15.743  49.574  45.001  0.00  0.00    +0.000 A 
ATOM     26  C   UNL     1      15.234  48.282  45.138  0.00  0.00    +0.000 A 
ENDBRANCH  19  21
ENDBRANCH   5  19
TORSDOF 4
ENDMDL
MODEL 3
REMARK VINA RESULT:    -6.143     10.601     15.306
REMARK INTER + INTRA:          -8.069
REMARK INTER:                  -7.579
REMARK INTRA:                  -0.490
REMARK UNBOUND:                -0.490
REMARK  Name = 
REMARK  7 active torsions:
REMARK  status: ('A' for Active; 'I' for Inactive)
REMARK    1  A    between atoms: C_1  and  O_2
REMARK    2  A    between atoms: O_2  and  C_3
REMARK    3  A    between atoms: C_7  and  C_8
REMARK    4  A    between atoms: C_8  and  C_10
REMARK    5  A    between atoms: C_21  and  C_22
REMARK    6  A    between atoms: C_22  and  C_23
REMARK    7  A    between atoms: C_22  and  C_24
REMARK                            x       y       z     vdW  Elec       q    Type
REMARK                         _______ _______ _______ _____ _____    ______ ____
ROOT
ATOM      1  C   UNL     1      16.450  40.365  57.334  0.00  0.00    +0.000 A 
ATOM      2  C   UNL     1      16.984  39.310  57.981  0.00  0.00    +0.000 A 
ATOM      3  C   UNL     1      17.427  38.165  57.275  0.00  0.00    +0.000 A 
ATOM      4  N   UNL     1      17.967  37.052  57.728  0.00  0.00    +0.000 NA
ATOM      5  C   UNL     1      18.210  36.259  56.622  0.00  0.00    +0.000 A 
ATOM      6  C   UNL     1      17.813  36.930  55.478  0.00  0.00    +0.000 A 
ATOM      7  N   UNL     1      17.311  38.139  55.898  0.00  0.00    +0.000 N 
ATOM      8  C   UNL     1      16.768  39.196  55.138  0.00  0.00    +0.000 A 
ATOM      9  C   UNL     1      16.667  39.130  53.746  0.00  0.00    +0.000 A 
ATOM     10  C   UNL     1      16.118  40.208  53.047  0.00  0.00    +0.000 A 
ATOM     11  C   UNL     1      15.668  41.351  53.723  0.00  0.00    +0.000 A 
ATOM     12  C   UNL     1      15.780  41.396  55.125  0.00  0.00    +0.000 A 
ATOM     13  C   UNL     1      16.327  40.327  55.851  0.00  0.00    +0.000 A 
ENDROOT
BRANCH  11  14
ATOM     14  C   UNL     1      15.076  42.508  52.937  0.00  0.00    +0.000 C 
ATOM     15  C   UNL     1      15.986  43.738  52.974  0.00  0.00    +0.000 C 
ATOM     16  C   UNL     1      13.667  42.856  53.421  0.00  0.00    +0.000 C 
ENDBRANCH  11  14
BRANCH   1  18
ATOM     17  C   UNL     1      16.712  42.050  59.022  0.00  0.00    +0.000 C 
ATOM     18  O   UNL     1      15.988  41.527  57.914  0.00  0.00    +0.000 OA
ENDBRANCH   1  18
BRANCH   5  19
ATOM     19  C   UNL     1      18.839  34.940  56.725  0.00  0.00    +0.000 C 
ATOM     20  O   UNL     1      18.340  34.008  57.353  0.00  0.00    +0.000 OA
BRANCH  19  21
ATOM     21  C   UNL     1      20.151  34.712  56.064  0.00  0.00    +0.000 A 
ATOM     22  C   UNL     1      21.292  34.594  56.867  0.00  0.00    +0.000 A 
ATOM     23  C   UNL     1      22.538  34.370  56.281  0.00  0.00    +0.000 A 
ATOM     24  C   UNL     1      22.645  34.247  54.896  0.00  0.00    +0.000 A 
ATOM     25  C   UNL     1      21.507  34.340  54.094  0.00  0.00    +0.000 A 
ATOM     26  C   UNL     1      20.258  34.566  54.675  0.00  0.00    +0.000 A 
ENDBRANCH  19  21
ENDBRANCH   5  19
TORSDOF 4
ENDMDL
