MODEL 1
REMARK VINA RESULT:    -6.583      0.000      0.000
REMARK INTER + INTRA:          -9.080
REMARK INTER:                  -8.675
REMARK INTRA:                  -0.406
REMARK UNBOUND:                -0.765
REMARK  Name = 
REMARK  5 active torsions:
REMARK  status: ('A' for Active; 'I' for Inactive)
REMARK    1  A    between atoms: O_1  and  C_2
REMARK    2  A    between atoms: C_6  and  C_7
REMARK    3  A    between atoms: C_8  and  C_9
REMARK    4  A    between atoms: C_9  and  N_10
REMARK    5  A    between atoms: C_14  and  C_15
REMARK                            x       y       z     vdW  Elec       q    Type
REMARK                         _______ _______ _______ _____ _____    ______ ____
ROOT
ATOM      1  C   UNL     1      18.127  37.030  49.351  0.00  0.00    +0.000 C 
ENDROOT
BRANCH   1   2
ATOM      2  N   UNL     1      18.983  36.034  49.998  0.00  0.00    +0.000 NA
ATOM      3  C   UNL     1      19.619  36.519  51.233  0.00  0.00    +0.000 C 
ATOM      4  C   UNL     1      21.031  35.961  51.513  0.00  0.00    +0.000 C 
ATOM      5  C   UNL     1      21.154  34.503  51.139  0.00  0.00    +0.000 C 
ATOM      6  C   UNL     1      21.678  33.537  51.917  0.00  0.00    +0.000 C 
ATOM      7  C   UNL     1      20.584  34.161  49.779  0.00  0.00    +0.000 C 
ATOM      8  C   UNL     1      19.908  35.359  49.086  0.00  0.00    +0.000 C 
BRANCH   6   9
ATOM      9  C   UNL     1      22.243  33.750  53.250  0.00  0.00    +0.000 A 
ATOM     10  C   UNL     1      23.587  33.441  53.493  0.00  0.00    +0.000 A 
ATOM     11  C   UNL     1      24.131  33.637  54.763  0.00  0.00    +0.000 A 
ATOM     12  C   UNL     1      23.331  34.139  55.783  0.00  0.00    +0.000 A 
ATOM     13  F   UNL     1      23.854  34.325  57.002  0.00  0.00    +0.000 F 
ATOM     14  C   UNL     1      21.995  34.453  55.557  0.00  0.00    +0.000 A 
ATOM     15  C   UNL     1      21.449  34.258  54.287  0.00  0.00    +0.000 A 
ENDBRANCH   6   9
ENDBRANCH   1   2
BRANCH   1  17
ATOM     16  C   UNL     1      17.055  38.809  51.032  0.00  0.00    +0.000 C 
ATOM     17  C   UNL     1      17.536  38.007  50.278  0.00  0.00    +0.000 C 
BRANCH  16  22
ATOM     18  C   UNL     1      15.586  43.787  53.685  0.00  0.00    +0.000 A 
ATOM     19  N   UNL     1      16.323  43.427  52.671  0.00  0.00    +0.000 NA
ATOM     20  C   UNL     1      16.199  42.057  52.633  0.00  0.00    +0.000 A 
ATOM     21  C   UNL     1      16.772  41.131  51.749  0.00  0.00    +0.000 A 
ATOM     22  C   UNL     1      16.484  39.771  51.923  0.00  0.00    +0.000 A 
ATOM     23  C   UNL     1      15.641  39.343  52.956  0.00  0.00    +0.000 A 
ATOM     24  C   UNL     1      15.060  40.252  53.849  0.00  0.00    +0.000 A 
ATOM     25  C   UNL     1      15.364  41.599  53.653  0.00  0.00    +0.000 A 
ATOM     26  N   UNL     1      14.987  42.742  54.314  0.00  0.00    +0.000 N 
ATOM     27  H   UNL     1      14.379  42.811  55.115  0.00  0.00    +0.000 HD
BRANCH  18  28
ATOM     28  O   UNL     1      15.438  45.039  54.057  0.00  0.00    +0.000 OA
ATOM     29  H   UNL     1      15.182  44.937  54.992  0.00  0.00    +0.000 HD
ENDBRANCH  18  28
ENDBRANCH  16  22
ENDBRANCH   1  17
TORSDOF 5
ENDMDL
MODEL 2
REMARK VINA RESULT:    -6.404      4.884     10.385
REMARK INTER + INTRA:          -8.854
REMARK INTER:                  -8.242
REMARK INTRA:                  -0.613
REMARK UNBOUND:                -0.765
REMARK  Name = 
REMARK  5 active torsions:
REMARK  status: ('A' for Active; 'I' for Inactive)
REMARK    1  A    between atoms: O_1  and  C_2
REMARK    2  A    between atoms: C_6  and  C_7
REMARK    3  A    between atoms: C_8  and  C_9
REMARK    4  A    between atoms: C_9  and  N_10
REMARK    5  A    between atoms: C_14  and  C_15
REMARK                            x       y       z     vdW  Elec       q    Type
REMARK                         _______ _______ _______ _____ _____    ______ ____
ROOT
ATOM      1  C   UNL     1      16.921  37.833  50.293  0.00  0.00    +0.000 C 
ENDROOT
BRANCH   1   2
ATOM      2  N   UNL     1      16.744  38.861  51.320  0.00  0.00    +0.000 NA
ATOM      3  C   UNL     1      15.781  39.908  50.944  0.00  0.00    +0.000 C 
ATOM      4  C   UNL     1      16.098  41.321  51.480  0.00  0.00    +0.000 C 
ATOM      5  C   UNL     1      16.648  41.289  52.887  0.00  0.00    +0.000 C 
ATOM      6  C   UNL     1      16.226  42.056  53.909  0.00  0.00    +0.000 C 
ATOM      7  C   UNL     1      17.736  40.258  53.105  0.00  0.00    +0.000 C 
ATOM      8  C   UNL     1      17.998  39.383  51.864  0.00  0.00    +0.000 C 
BRANCH   6   9
ATOM      9  C   UNL     1      15.176  43.071  53.817  0.00  0.00    +0.000 A 
ATOM     10  C   UNL     1      13.840  42.712  54.034  0.00  0.00    +0.000 A 
ATOM     11  C   UNL     1      12.834  43.674  53.942  0.00  0.00    +0.000 A 
ATOM     12  C   UNL     1      13.166  44.989  53.634  0.00  0.00    +0.000 A 
ATOM     13  F   UNL     1      12.199  45.911  53.545  0.00  0.00    +0.000 F 
ATOM     14  C   UNL     1      14.489  45.361  53.418  0.00  0.00    +0.000 A 
ATOM     15  C   UNL     1      15.497  44.401  53.509  0.00  0.00    +0.000 A 
ENDBRANCH   6   9
ENDBRANCH   1   2
BRANCH   1  17
ATOM     16  C   UNL     1      19.175  36.419  50.542  0.00  0.00    +0.000 C 
ATOM     17  C   UNL     1      18.161  37.053  50.432  0.00  0.00    +0.000 C 
BRANCH  16  22
ATOM     18  C   UNL     1      23.587  33.246  52.652  0.00  0.00    +0.000 A 
ATOM     19  N   UNL     1      22.481  33.766  53.108  0.00  0.00    +0.000 NA
ATOM     20  C   UNL     1      21.928  34.396  52.017  0.00  0.00    +0.000 A 
ATOM     21  C   UNL     1      20.735  35.124  51.914  0.00  0.00    +0.000 A 
ATOM     22  C   UNL     1      20.390  35.674  50.672  0.00  0.00    +0.000 A 
ATOM     23  C   UNL     1      21.217  35.500  49.556  0.00  0.00    +0.000 A 
ATOM     24  C   UNL     1      22.414  34.777  49.639  0.00  0.00    +0.000 A 
ATOM     25  C   UNL     1      22.733  34.242  50.887  0.00  0.00    +0.000 A 
ATOM     26  N   UNL     1      23.795  33.495  51.332  0.00  0.00    +0.000 N 
ATOM     27  H   UNL     1      24.588  33.180  50.795  0.00  0.00    +0.000 HD
BRANCH  18  28
ATOM     28  O   UNL     1      24.413  32.548  53.398  0.00  0.00    +0.000 OA
ATOM     29  H   UNL     1      25.079  33.221  53.635  0.00  0.00    +0.000 HD
ENDBRANCH  18  28
ENDBRANCH  16  22
ENDBRANCH   1  17
TORSDOF 5
ENDMDL
MODEL 3
REMARK VINA RESULT:    -6.351      6.610     10.275
REMARK INTER + INTRA:          -8.788
REMARK INTER:                  -8.022
REMARK INTRA:                  -0.765
REMARK UNBOUND:                -0.765
REMARK  Name = 
REMARK  5 active torsions:
REMARK  status: ('A' for Active; 'I' for Inactive)
REMARK    1  A    between atoms: O_1  and  C_2
REMARK    2  A    between atoms: C_6  and  C_7
REMARK    3  A    between atoms: C_8  and  C_9
REMARK    4  A    between atoms: C_9  and  N_10
REMARK    5  A    between atoms: C_14  and  C_15
REMARK                            x       y       z     vdW  Elec       q    Type
REMARK                         _______ _______ _______ _____ _____    ______ ____
ROOT
ATOM      1  C   UNL     1      16.316  37.788  49.781  0.00  0.00    +0.000 C 
ENDROOT
BRANCH   1   2
ATOM      2  N   UNL     1      16.322  38.823  50.816  0.00  0.00    +0.000 NA
ATOM      3  C   UNL     1      15.333  39.889  50.589  0.00  0.00    +0.000 C 
ATOM      4  C   UNL     1      15.758  41.297  51.058  0.00  0.00    +0.000 C 
ATOM      5  C   UNL     1      16.521  41.260  52.360  0.00  0.00    +0.000 C 
ATOM      6  C   UNL     1      16.280  42.039  53.431  0.00  0.00    +0.000 C 
ATOM      7  C   UNL     1      17.609  40.208  52.412  0.00  0.00    +0.000 C 
ATOM      8  C   UNL     1      17.656  39.322  51.152  0.00  0.00    +0.000 C 
BRANCH   6   9
ATOM      9  C   UNL     1      15.249  43.075  53.498  0.00  0.00    +0.000 A 
ATOM     10  C   UNL     1      15.602  44.419  53.323  0.00  0.00    +0.000 A 
ATOM     11  C   UNL     1      14.625  45.413  53.390  0.00  0.00    +0.000 A 
ATOM     12  C   UNL     1      13.302  45.061  53.631  0.00  0.00    +0.000 A 
ATOM     13  F   UNL     1      12.365  46.016  53.696  0.00  0.00    +0.000 F 
ATOM     14  C   UNL     1      12.935  43.730  53.804  0.00  0.00    +0.000 A 
ATOM     15  C   UNL     1      13.911  42.734  53.737  0.00  0.00    +0.000 A 
ENDBRANCH   6   9
ENDBRANCH   1   2
BRANCH   1  17
ATOM     16  C   UNL     1      16.381  38.745  47.286  0.00  0.00    +0.000 C 
ATOM     17  C   UNL     1      16.349  38.313  48.407  0.00  0.00    +0.000 C 
BRANCH  16  22
ATOM     18  C   UNL     1      17.324  39.371  41.568  0.00  0.00    +0.000 A 
ATOM     19  N   UNL     1      17.550  38.466  42.479  0.00  0.00    +0.000 NA
ATOM     20  C   UNL     1      17.045  39.016  43.635  0.00  0.00    +0.000 A 
ATOM     21  C   UNL     1      17.009  38.491  44.935  0.00  0.00    +0.000 A 
ATOM     22  C   UNL     1      16.430  39.260  45.953  0.00  0.00    +0.000 A 
ATOM     23  C   UNL     1      15.896  40.526  45.681  0.00  0.00    +0.000 A 
ATOM     24  C   UNL     1      15.923  41.068  44.389  0.00  0.00    +0.000 A 
ATOM     25  C   UNL     1      16.506  40.281  43.396  0.00  0.00    +0.000 A 
ATOM     26  N   UNL     1      16.703  40.480  42.052  0.00  0.00    +0.000 N 
ATOM     27  H   UNL     1      16.442  41.288  41.509  0.00  0.00    +0.000 HD
BRANCH  18  28
ATOM     28  O   UNL     1      17.662  39.221  40.307  0.00  0.00    +0.000 OA
ATOM     29  H   UNL     1      18.446  39.797  40.245  0.00  0.00    +0.000 HD
ENDBRANCH  18  28
ENDBRANCH  16  22
ENDBRANCH   1  17
TORSDOF 5
ENDMDL
