MODEL 1
REMARK VINA RESULT:    -8.226      0.000      0.000
REMARK INTER + INTRA:         -12.681
REMARK INTER:                 -11.112
REMARK INTRA:                  -1.569
REMARK UNBOUND:                -1.569
REMARK  Name = 
REMARK  10 active torsions:
REMARK  status: ('A' for Active; 'I' for Inactive)
REMARK    1  A    between atoms: C_1  and  C_2
REMARK    2  A    between atoms: C_6  and  C_7
REMARK    3  A    between atoms: N_10  and  C_11
REMARK    4  A    between atoms: C_14  and  N_15
REMARK    5  A    between atoms: C_18  and  C_19
REMARK    6  A    between atoms: C_22  and  C_23
REMARK    7  A    between atoms: C_25  and  C_26
REMARK    8  A    between atoms: C_33  and  C_34
REMARK    9  A    between atoms: C_37  and  C_38
REMARK   10  A    between atoms: C_40  and  C_41
REMARK                            x       y       z     vdW  Elec       q    Type
REMARK                         _______ _______ _______ _____ _____    ______ ____
ROOT
ATOM      1  C   UNL     1      13.838  44.153  53.590  0.00  0.00    +0.000 A 
ATOM      2  C   UNL     1      13.276  42.877  53.648  0.00  0.00    +0.000 A 
ATOM      3  C   UNL     1      14.083  41.729  53.556  0.00  0.00    +0.000 A 
ATOM      4  C   UNL     1      15.467  41.837  53.389  0.00  0.00    +0.000 A 
ATOM      5  C   UNL     1      16.032  43.122  53.301  0.00  0.00    +0.000 A 
ATOM      6  C   UNL     1      15.225  44.263  53.387  0.00  0.00    +0.000 A 
ENDROOT
BRANCH   1  10
ATOM      7  C   UNL     1      12.224  47.363  53.869  0.00  0.00    +0.000 A 
ATOM      8  N   UNL     1      11.239  46.468  54.176  0.00  0.00    +0.000 NA
ATOM      9  N   UNL     1      11.753  45.256  54.077  0.00  0.00    +0.000 NA
ATOM     10  N   UNL     1      13.069  45.347  53.729  0.00  0.00    +0.000 N 
ATOM     11  C   UNL     1      13.395  46.691  53.552  0.00  0.00    +0.000 A 
ATOM     12  C   UNL     1      14.676  47.259  53.077  0.00  0.00    +0.000 C 
BRANCH   7  18
ATOM     13  C   UNL     1      12.455  51.604  56.699  0.00  0.00    +0.000 C 
ATOM     14  C   UNL     1      11.941  51.887  55.311  0.00  0.00    +0.000 C 
ATOM     15  O   UNL     1      11.517  53.001  54.996  0.00  0.00    +0.000 OA
ATOM     16  N   UNL     1      11.967  50.819  54.433  0.00  0.00    +0.000 N 
ATOM     17  N   UNL     1      12.339  49.551  54.806  0.00  0.00    +0.000 NA
ATOM     18  C   UNL     1      11.980  48.778  53.826  0.00  0.00    +0.000 C 
ATOM     19  C   UNL     1      11.268  49.433  52.686  0.00  0.00    +0.000 C 
ATOM     20  C   UNL     1      11.495  50.896  53.050  0.00  0.00    +0.000 C 
BRANCH  20  21
ATOM     21  C   UNL     1      12.483  51.559  52.102  0.00  0.00    +0.000 A 
ATOM     22  C   UNL     1      13.855  51.505  52.397  0.00  0.00    +0.000 A 
ATOM     23  C   UNL     1      14.786  52.106  51.548  0.00  0.00    +0.000 A 
ATOM     24  C   UNL     1      14.364  52.776  50.398  0.00  0.00    +0.000 A 
ATOM     25  C   UNL     1      13.008  52.849  50.101  0.00  0.00    +0.000 A 
ATOM     26  C   UNL     1      12.073  52.247  50.945  0.00  0.00    +0.000 A 
ENDBRANCH  20  21
ENDBRANCH   7  18
ENDBRANCH   1  10
BRANCH   4  27
ATOM     27  N   UNL     1      16.329  40.701  53.354  0.00  0.00    +0.000 N 
ATOM     28  N   UNL     1      17.067  40.401  54.458  0.00  0.00    +0.000 NA
ATOM     29  N   UNL     1      17.655  39.235  54.281  0.00  0.00    +0.000 NA
ATOM     30  C   UNL     1      17.380  38.806  53.013  0.00  0.00    +0.000 A 
ATOM     31  C   UNL     1      16.550  39.728  52.385  0.00  0.00    +0.000 A 
ATOM     32  C   UNL     1      16.036  39.762  50.991  0.00  0.00    +0.000 C 
BRANCH  30  33
ATOM     33  C   UNL     1      17.948  37.576  52.512  0.00  0.00    +0.000 C 
ATOM     34  N   UNL     1      17.343  36.436  52.649  0.00  0.00    +0.000 NA
ATOM     35  N   UNL     1      18.122  35.482  52.036  0.00  0.00    +0.000 N 
ATOM     36  C   UNL     1      17.770  34.141  52.140  0.00  0.00    +0.000 C 
ATOM     37  C   UNL     1      18.691  33.152  51.472  0.00  0.00    +0.000 C 
ATOM     38  O   UNL     1      16.764  33.731  52.729  0.00  0.00    +0.000 OA
ATOM     39  C   UNL     1      19.290  36.071  51.368  0.00  0.00    +0.000 C 
ATOM     40  C   UNL     1      19.279  37.527  51.825  0.00  0.00    +0.000 C 
BRANCH  39  41
ATOM     41  C   UNL     1      19.236  35.963  49.855  0.00  0.00    +0.000 A 
ATOM     42  C   UNL     1      18.154  36.463  49.111  0.00  0.00    +0.000 A 
ATOM     43  C   UNL     1      18.138  36.362  47.717  0.00  0.00    +0.000 A 
ATOM     44  C   UNL     1      19.204  35.768  47.050  0.00  0.00    +0.000 A 
ATOM     45  C   UNL     1      20.287  35.270  47.772  0.00  0.00    +0.000 A 
ATOM     46  C   UNL     1      20.304  35.368  49.164  0.00  0.00    +0.000 A 
ENDBRANCH  39  41
ENDBRANCH  30  33
ENDBRANCH   4  27
TORSDOF 6
ENDMDL
MODEL 2
REMARK VINA RESULT:    -8.102      6.740     15.124
REMARK INTER + INTRA:         -12.513
REMARK INTER:                 -11.513
REMARK INTRA:                  -0.999
REMARK UNBOUND:                -1.569
REMARK  Name = 
REMARK  10 active torsions:
REMARK  status: ('A' for Active; 'I' for Inactive)
REMARK    1  A    between atoms: C_1  and  C_2
REMARK    2  A    between atoms: C_6  and  C_7
REMARK    3  A    between atoms: N_10  and  C_11
REMARK    4  A    between atoms: C_14  and  N_15
REMARK    5  A    between atoms: C_18  and  C_19
REMARK    6  A    between atoms: C_22  and  C_23
REMARK    7  A    between atoms: C_25  and  C_26
REMARK    8  A    between atoms: C_33  and  C_34
REMARK    9  A    between atoms: C_37  and  C_38
REMARK   10  A    between atoms: C_40  and  C_41
REMARK                            x       y       z     vdW  Elec       q    Type
REMARK                         _______ _______ _______ _____ _____    ______ ____
ROOT
ATOM      1  C   UNL     1      18.357  36.685  48.253  0.00  0.00    +0.000 A 
ATOM      2  C   UNL     1      18.284  37.037  46.904  0.00  0.00    +0.000 A 
ATOM      3  C   UNL     1      17.411  38.051  46.470  0.00  0.00    +0.000 A 
ATOM      4  C   UNL     1      16.584  38.721  47.377  0.00  0.00    +0.000 A 
ATOM      5  C   UNL     1      16.634  38.346  48.731  0.00  0.00    +0.000 A 
ATOM      6  C   UNL     1      17.499  37.333  49.160  0.00  0.00    +0.000 A 
ENDROOT
BRANCH   1  10
ATOM      7  C   UNL     1      20.733  34.450  49.787  0.00  0.00    +0.000 A 
ATOM      8  N   UNL     1      20.309  33.774  48.679  0.00  0.00    +0.000 NA
ATOM      9  N   UNL     1      19.414  34.527  48.067  0.00  0.00    +0.000 NA
ATOM     10  N   UNL     1      19.261  35.699  48.750  0.00  0.00    +0.000 N 
ATOM     11  C   UNL     1      20.071  35.665  49.885  0.00  0.00    +0.000 A 
ATOM     12  C   UNL     1      20.156  36.669  50.969  0.00  0.00    +0.000 C 
BRANCH   7  18
ATOM     13  C   UNL     1      25.726  34.061  50.767  0.00  0.00    +0.000 C 
ATOM     14  C   UNL     1      24.898  33.317  51.783  0.00  0.00    +0.000 C 
ATOM     15  O   UNL     1      25.422  32.609  52.647  0.00  0.00    +0.000 OA
ATOM     16  N   UNL     1      23.529  33.475  51.673  0.00  0.00    +0.000 N 
ATOM     17  N   UNL     1      22.936  34.177  50.652  0.00  0.00    +0.000 NA
ATOM     18  C   UNL     1      21.672  33.881  50.712  0.00  0.00    +0.000 C 
ATOM     19  C   UNL     1      21.267  32.893  51.759  0.00  0.00    +0.000 C 
ATOM     20  C   UNL     1      22.565  32.821  52.557  0.00  0.00    +0.000 C 
BRANCH  20  21
ATOM     21  C   UNL     1      22.423  33.495  53.914  0.00  0.00    +0.000 A 
ATOM     22  C   UNL     1      21.176  34.022  54.288  0.00  0.00    +0.000 A 
ATOM     23  C   UNL     1      21.015  34.648  55.525  0.00  0.00    +0.000 A 
ATOM     24  C   UNL     1      22.094  34.767  56.402  0.00  0.00    +0.000 A 
ATOM     25  C   UNL     1      23.337  34.263  56.039  0.00  0.00    +0.000 A 
ATOM     26  C   UNL     1      23.503  33.632  54.805  0.00  0.00    +0.000 A 
ENDBRANCH  20  21
ENDBRANCH   7  18
ENDBRANCH   1  10
BRANCH   4  27
ATOM     27  N   UNL     1      15.730  39.796  46.990  0.00  0.00    +0.000 N 
ATOM     28  N   UNL     1      14.879  40.324  47.911  0.00  0.00    +0.000 NA
ATOM     29  N   UNL     1      14.313  41.403  47.409  0.00  0.00    +0.000 NA
ATOM     30  C   UNL     1      14.722  41.535  46.112  0.00  0.00    +0.000 A 
ATOM     31  C   UNL     1      15.614  40.514  45.804  0.00  0.00    +0.000 A 
ATOM     32  C   UNL     1      16.274  40.172  44.517  0.00  0.00    +0.000 C 
BRANCH  30  33
ATOM     33  C   UNL     1      14.210  42.602  45.283  0.00  0.00    +0.000 C 
ATOM     34  N   UNL     1      13.139  42.457  44.564  0.00  0.00    +0.000 NA
ATOM     35  N   UNL     1      12.904  43.657  43.933  0.00  0.00    +0.000 N 
ATOM     36  C   UNL     1      11.881  43.747  42.995  0.00  0.00    +0.000 C 
ATOM     37  C   UNL     1      11.707  45.084  42.321  0.00  0.00    +0.000 C 
ATOM     38  O   UNL     1      11.125  42.816  42.701  0.00  0.00    +0.000 OA
ATOM     39  C   UNL     1      13.856  44.694  44.349  0.00  0.00    +0.000 C 
ATOM     40  C   UNL     1      14.887  43.934  45.179  0.00  0.00    +0.000 C 
BRANCH  39  41
ATOM     41  C   UNL     1      13.215  45.814  45.150  0.00  0.00    +0.000 A 
ATOM     42  C   UNL     1      13.518  47.165  44.913  0.00  0.00    +0.000 A 
ATOM     43  C   UNL     1      12.902  48.175  45.658  0.00  0.00    +0.000 A 
ATOM     44  C   UNL     1      11.973  47.849  46.641  0.00  0.00    +0.000 A 
ATOM     45  C   UNL     1      11.659  46.514  46.885  0.00  0.00    +0.000 A 
ATOM     46  C   UNL     1      12.275  45.503  46.145  0.00  0.00    +0.000 A 
ENDBRANCH  39  41
ENDBRANCH  30  33
ENDBRANCH   4  27
TORSDOF 6
ENDMDL
MODEL 3
REMARK VINA RESULT:    -8.069      7.196     14.961
REMARK INTER + INTRA:         -12.468
REMARK INTER:                 -11.391
REMARK INTRA:                  -1.076
REMARK UNBOUND:                -1.569
REMARK  Name = 
REMARK  10 active torsions:
REMARK  status: ('A' for Active; 'I' for Inactive)
REMARK    1  A    between atoms: C_1  and  C_2
REMARK    2  A    between atoms: C_6  and  C_7
REMARK    3  A    between atoms: N_10  and  C_11
REMARK    4  A    between atoms: C_14  and  N_15
REMARK    5  A    between atoms: C_18  and  C_19
REMARK    6  A    between atoms: C_22  and  C_23
REMARK    7  A    between atoms: C_25  and  C_26
REMARK    8  A    between atoms: C_33  and  C_34
REMARK    9  A    between atoms: C_37  and  C_38
REMARK   10  A    between atoms: C_40  and  C_41
REMARK                            x       y       z     vdW  Elec       q    Type
REMARK                         _______ _______ _______ _____ _____    ______ ____
ROOT
ATOM      1  C   UNL     1      18.285  36.846  48.319  0.00  0.00    +0.000 A 
ATOM      2  C   UNL     1      18.230  37.301  47.001  0.00  0.00    +0.000 A 
ATOM      3  C   UNL     1      17.323  38.308  46.624  0.00  0.00    +0.000 A 
ATOM      4  C   UNL     1      16.446  38.868  47.557  0.00  0.00    +0.000 A 
ATOM      5  C   UNL     1      16.480  38.390  48.878  0.00  0.00    +0.000 A 
ATOM      6  C   UNL     1      17.378  37.383  49.250  0.00  0.00    +0.000 A 
ENDROOT
BRANCH   1  10
ATOM      7  C   UNL     1      20.717  34.597  49.740  0.00  0.00    +0.000 A 
ATOM      8  N   UNL     1      20.362  34.002  48.564  0.00  0.00    +0.000 NA
ATOM      9  N   UNL     1      19.452  34.764  47.987  0.00  0.00    +0.000 NA
ATOM     10  N   UNL     1      19.220  35.863  48.762  0.00  0.00    +0.000 N 
ATOM     11  C   UNL     1      19.994  35.767  49.919  0.00  0.00    +0.000 A 
ATOM     12  C   UNL     1      19.995  36.676  51.087  0.00  0.00    +0.000 C 
BRANCH   7  18
ATOM     13  C   UNL     1      25.707  34.153  50.710  0.00  0.00    +0.000 C 
ATOM     14  C   UNL     1      24.876  33.379  51.701  0.00  0.00    +0.000 C 
ATOM     15  O   UNL     1      25.396  32.639  52.540  0.00  0.00    +0.000 OA
ATOM     16  N   UNL     1      23.507  33.546  51.594  0.00  0.00    +0.000 N 
ATOM     17  N   UNL     1      22.918  34.285  50.598  0.00  0.00    +0.000 NA
ATOM     18  C   UNL     1      21.653  33.993  50.647  0.00  0.00    +0.000 C 
ATOM     19  C   UNL     1      21.243  32.972  51.659  0.00  0.00    +0.000 C 
ATOM     20  C   UNL     1      22.540  32.867  52.456  0.00  0.00    +0.000 C 
BRANCH  20  21
ATOM     21  C   UNL     1      22.399  33.496  53.834  0.00  0.00    +0.000 A 
ATOM     22  C   UNL     1      21.152  34.005  54.229  0.00  0.00    +0.000 A 
ATOM     23  C   UNL     1      20.992  34.591  55.486  0.00  0.00    +0.000 A 
ATOM     24  C   UNL     1      22.073  34.685  56.364  0.00  0.00    +0.000 A 
ATOM     25  C   UNL     1      23.317  34.197  55.981  0.00  0.00    +0.000 A 
ATOM     26  C   UNL     1      23.482  33.608  54.726  0.00  0.00    +0.000 A 
ENDBRANCH  20  21
ENDBRANCH   7  18
ENDBRANCH   1  10
BRANCH   4  27
ATOM     27  N   UNL     1      15.554  39.934  47.232  0.00  0.00    +0.000 N 
ATOM     28  N   UNL     1      14.689  40.379  48.182  0.00  0.00    +0.000 NA
ATOM     29  N   UNL     1      14.084  41.465  47.742  0.00  0.00    +0.000 NA
ATOM     30  C   UNL     1      14.485  41.684  46.454  0.00  0.00    +0.000 A 
ATOM     31  C   UNL     1      15.411  40.713  46.088  0.00  0.00    +0.000 A 
ATOM     32  C   UNL     1      16.078  40.467  44.783  0.00  0.00    +0.000 C 
BRANCH  30  33
ATOM     33  C   UNL     1      13.935  42.777  45.688  0.00  0.00    +0.000 C 
ATOM     34  N   UNL     1      14.311  44.005  45.879  0.00  0.00    +0.000 NA
ATOM     35  N   UNL     1      13.633  44.788  44.972  0.00  0.00    +0.000 N 
ATOM     36  C   UNL     1      13.753  46.171  45.038  0.00  0.00    +0.000 C 
ATOM     37  C   UNL     1      12.953  46.961  44.034  0.00  0.00    +0.000 C 
ATOM     38  O   UNL     1      14.468  46.768  45.850  0.00  0.00    +0.000 OA
ATOM     39  C   UNL     1      12.813  43.984  44.057  0.00  0.00    +0.000 C 
ATOM     40  C   UNL     1      12.881  42.576  44.642  0.00  0.00    +0.000 C 
BRANCH  39  41
ATOM     41  C   UNL     1      13.308  44.013  42.621  0.00  0.00    +0.000 A 
ATOM     42  C   UNL     1      12.462  44.344  41.549  0.00  0.00    +0.000 A 
ATOM     43  C   UNL     1      12.949  44.376  40.239  0.00  0.00    +0.000 A 
ATOM     44  C   UNL     1      14.285  44.086  39.986  0.00  0.00    +0.000 A 
ATOM     45  C   UNL     1      15.138  43.760  41.038  0.00  0.00    +0.000 A 
ATOM     46  C   UNL     1      14.654  43.725  42.347  0.00  0.00    +0.000 A 
ENDBRANCH  39  41
ENDBRANCH  30  33
ENDBRANCH   4  27
TORSDOF 6
ENDMDL
