MODEL 1
REMARK VINA RESULT:    -6.877      0.000      0.000
REMARK INTER + INTRA:         -10.232
REMARK INTER:                  -9.460
REMARK INTRA:                  -0.772
REMARK UNBOUND:                -1.747
REMARK  Name = 
REMARK  4 active torsions:
REMARK  status: ('A' for Active; 'I' for Inactive)
REMARK    1  A    between atoms: C_5  and  C_6
REMARK    2  A    between atoms: C_6  and  N_7
REMARK    3  A    between atoms: C_22  and  C_23
REMARK    4  A    between atoms: C_23  and  N_24
REMARK                            x       y       z     vdW  Elec       q    Type
REMARK                         _______ _______ _______ _____ _____    ______ ____
ROOT
ATOM      1  C   UNL     1      19.739  35.589  49.906  0.00  0.00    +0.000 A 
ATOM      2  C   UNL     1      20.176  36.257  51.040  0.00  0.00    +0.000 A 
ATOM      3  C   UNL     1      19.444  37.340  51.526  0.00  0.00    +0.000 A 
ATOM      4  C   UNL     1      18.259  37.781  50.885  0.00  0.00    +0.000 A 
ATOM      5  C   UNL     1      17.463  38.878  51.311  0.00  0.00    +0.000 A 
ATOM      6  C   UNL     1      16.310  39.201  50.579  0.00  0.00    +0.000 A 
ATOM      7  C   UNL     1      15.968  38.449  49.464  0.00  0.00    +0.000 A 
ATOM      8  N   UNL     1      16.719  37.403  49.050  0.00  0.00    +0.000 NA
ATOM      9  C   UNL     1      17.827  37.082  49.733  0.00  0.00    +0.000 A 
ATOM     10  C   UNL     1      18.573  36.010  49.269  0.00  0.00    +0.000 A 
ENDROOT
BRANCH   5  11
ATOM     11  C   UNL     1      17.799  39.758  52.500  0.00  0.00    +0.000 C 
BRANCH  11  12
ATOM     12  N   UNL     1      16.780  39.728  53.570  0.00  0.00    +0.000 NA
ATOM     13  C   UNL     1      17.383  39.229  54.838  0.00  0.00    +0.000 C 
ATOM     14  C   UNL     1      16.502  39.356  56.093  0.00  0.00    +0.000 C 
ATOM     15  C   UNL     1      17.161  38.781  57.346  0.00  0.00    +0.000 C 
ATOM     16  N   UNL     1      16.348  39.026  58.548  0.00  0.00    +0.000 NA
ATOM     17  C   UNL     1      16.394  40.426  59.012  0.00  0.00    +0.000 C 
ATOM     18  C   UNL     1      14.980  41.045  59.167  0.00  0.00    +0.000 C 
ATOM     19  N   UNL     1      14.415  41.412  57.859  0.00  0.00    +0.000 NA
ATOM     20  C   UNL     1      12.961  41.260  57.783  0.00  0.00    +0.000 C 
ATOM     21  C   UNL     1      12.473  40.970  56.351  0.00  0.00    +0.000 C 
ATOM     22  C   UNL     1      12.819  42.017  55.278  0.00  0.00    +0.000 C 
ATOM     23  N   UNL     1      14.241  42.098  54.919  0.00  0.00    +0.000 NA
ATOM     24  C   UNL     1      14.649  40.998  54.028  0.00  0.00    +0.000 C 
ATOM     25  C   UNL     1      16.167  41.071  53.719  0.00  0.00    +0.000 C 
ATOM     26  H   UNL     1      16.672  38.416  59.296  0.00  0.00    +0.000 HD
ATOM     27  H   UNL     1      14.652  42.389  57.678  0.00  0.00    +0.000 HD
ATOM     28  H   UNL     1      14.767  41.962  55.787  0.00  0.00    +0.000 HD
ENDBRANCH  11  12
ENDBRANCH   5  11
BRANCH   7  29
ATOM     29  C   UNL     1      14.722  38.800  48.663  0.00  0.00    +0.000 C 
BRANCH  29  30
ATOM     30  N   UNL     1      14.925  39.302  47.289  0.00  0.00    +0.000 NA
ATOM     31  C   UNL     1      14.086  40.472  46.990  0.00  0.00    +0.000 C 
ATOM     32  C   UNL     1      14.994  41.656  46.626  0.00  0.00    +0.000 C 
ATOM     33  C   UNL     1      14.313  42.608  45.638  0.00  0.00    +0.000 C 
ATOM     34  N   UNL     1      15.204  43.731  45.321  0.00  0.00    +0.000 NA
ATOM     35  C   UNL     1      14.848  44.356  44.041  0.00  0.00    +0.000 C 
ATOM     36  C   UNL     1      15.770  43.993  42.843  0.00  0.00    +0.000 C 
ATOM     37  N   UNL     1      15.611  42.638  42.296  0.00  0.00    +0.000 NA
ATOM     38  C   UNL     1      16.481  41.659  42.961  0.00  0.00    +0.000 C 
ATOM     39  C   UNL     1      16.200  40.255  42.422  0.00  0.00    +0.000 C 
ATOM     40  C   UNL     1      16.936  39.169  43.223  0.00  0.00    +0.000 C 
ATOM     41  N   UNL     1      16.548  39.072  44.633  0.00  0.00    +0.000 NA
ATOM     42  C   UNL     1      15.171  38.598  44.809  0.00  0.00    +0.000 C 
ATOM     43  C   UNL     1      14.812  38.234  46.277  0.00  0.00    +0.000 C 
ATOM     44  H   UNL     1      16.162  43.394  45.267  0.00  0.00    +0.000 HD
ATOM     45  H   UNL     1      15.870  42.655  41.309  0.00  0.00    +0.000 HD
ATOM     46  H   UNL     1      17.183  38.453  45.136  0.00  0.00    +0.000 HD
ENDBRANCH  29  30
ENDBRANCH   7  29
TORSDOF 4
ENDMDL
MODEL 2
REMARK VINA RESULT:    -6.547      1.686      2.527
REMARK INTER + INTRA:          -9.825
REMARK INTER:                  -8.825
REMARK INTRA:                  -1.000
REMARK UNBOUND:                -1.747
REMARK  Name = 
REMARK  4 active torsions:
REMARK  status: ('A' for Active; 'I' for Inactive)
REMARK    1  A    between atoms: C_5  and  C_6
REMARK    2  A    between atoms: C_6  and  N_7
REMARK    3  A    between atoms: C_22  and  C_23
REMARK    4  A    between atoms: C_23  and  N_24
REMARK                            x       y       z     vdW  Elec       q    Type
REMARK                         _______ _______ _______ _____ _____    ______ ____
ROOT
ATOM      1  C   UNL     1      21.610  34.290  48.367  0.00  0.00    +0.000 A 
ATOM      2  C   UNL     1      21.996  34.880  49.561  0.00  0.00    +0.000 A 
ATOM      3  C   UNL     1      21.095  35.694  50.249  0.00  0.00    +0.000 A 
ATOM      4  C   UNL     1      19.789  35.938  49.755  0.00  0.00    +0.000 A 
ATOM      5  C   UNL     1      18.819  36.758  50.388  0.00  0.00    +0.000 A 
ATOM      6  C   UNL     1      17.561  36.908  49.785  0.00  0.00    +0.000 A 
ATOM      7  C   UNL     1      17.288  36.254  48.591  0.00  0.00    +0.000 A 
ATOM      8  N   UNL     1      18.204  35.471  47.979  0.00  0.00    +0.000 NA
ATOM      9  C   UNL     1      19.414  35.321  48.538  0.00  0.00    +0.000 A 
ATOM     10  C   UNL     1      20.327  34.517  47.872  0.00  0.00    +0.000 A 
ENDROOT
BRANCH   5  11
ATOM     11  C   UNL     1      19.066  37.523  51.675  0.00  0.00    +0.000 C 
BRANCH  11  12
ATOM     12  N   UNL     1      17.887  38.273  52.158  0.00  0.00    +0.000 NA
ATOM     13  C   UNL     1      17.280  37.577  53.327  0.00  0.00    +0.000 C 
ATOM     14  C   UNL     1      16.184  38.356  54.075  0.00  0.00    +0.000 C 
ATOM     15  C   UNL     1      15.572  37.565  55.231  0.00  0.00    +0.000 C 
ATOM     16  N   UNL     1      14.616  38.379  56.000  0.00  0.00    +0.000 NA
ATOM     17  C   UNL     1      15.264  39.385  56.863  0.00  0.00    +0.000 C 
ATOM     18  C   UNL     1      14.724  40.817  56.610  0.00  0.00    +0.000 C 
ATOM     19  N   UNL     1      15.292  41.390  55.379  0.00  0.00    +0.000 NA
ATOM     20  C   UNL     1      14.374  42.279  54.667  0.00  0.00    +0.000 C 
ATOM     21  C   UNL     1      14.648  42.317  53.151  0.00  0.00    +0.000 C 
ATOM     22  C   UNL     1      16.054  42.765  52.715  0.00  0.00    +0.000 C 
ATOM     23  N   UNL     1      17.135  41.819  53.022  0.00  0.00    +0.000 NA
ATOM     24  C   UNL     1      17.164  40.688  52.077  0.00  0.00    +0.000 C 
ATOM     25  C   UNL     1      18.271  39.673  52.463  0.00  0.00    +0.000 C 
ATOM     26  H   UNL     1      14.046  37.763  56.574  0.00  0.00    +0.000 HD
ATOM     27  H   UNL     1      16.128  41.918  55.636  0.00  0.00    +0.000 HD
ATOM     28  H   UNL     1      16.914  41.412  53.934  0.00  0.00    +0.000 HD
ENDBRANCH  11  12
ENDBRANCH   5  11
BRANCH   7  29
ATOM     29  C   UNL     1      15.926  36.418  47.928  0.00  0.00    +0.000 C 
BRANCH  29  30
ATOM     30  N   UNL     1      15.833  37.383  46.814  0.00  0.00    +0.000 NA
ATOM     31  C   UNL     1      14.807  38.410  47.046  0.00  0.00    +0.000 C 
ATOM     32  C   UNL     1      15.476  39.792  47.039  0.00  0.00    +0.000 C 
ATOM     33  C   UNL     1      14.521  40.881  46.537  0.00  0.00    +0.000 C 
ATOM     34  N   UNL     1      15.190  42.187  46.552  0.00  0.00    +0.000 NA
ATOM     35  C   UNL     1      14.549  43.131  45.628  0.00  0.00    +0.000 C 
ATOM     36  C   UNL     1      15.303  43.369  44.290  0.00  0.00    +0.000 C 
ATOM     37  N   UNL     1      15.239  42.273  43.312  0.00  0.00    +0.000 NA
ATOM     38  C   UNL     1      16.330  41.304  43.485  0.00  0.00    +0.000 C 
ATOM     39  C   UNL     1      16.156  40.138  42.510  0.00  0.00    +0.000 C 
ATOM     40  C   UNL     1      17.152  38.999  42.784  0.00  0.00    +0.000 C 
ATOM     41  N   UNL     1      17.016  38.364  44.098  0.00  0.00    +0.000 NA
ATOM     42  C   UNL     1      15.762  37.614  44.236  0.00  0.00    +0.000 C 
ATOM     43  C   UNL     1      15.700  36.718  45.504  0.00  0.00    +0.000 C 
ATOM     44  H   UNL     1      16.162  42.070  46.280  0.00  0.00    +0.000 HD
ATOM     45  H   UNL     1      15.329  42.669  42.376  0.00  0.00    +0.000 HD
ATOM     46  H   UNL     1      17.802  37.739  44.275  0.00  0.00    +0.000 HD
ENDBRANCH  29  30
ENDBRANCH   7  29
TORSDOF 4
ENDMDL
MODEL 3
REMARK VINA RESULT:    -6.120      3.860      9.066
REMARK INTER + INTRA:          -9.299
REMARK INTER:                  -7.551
REMARK INTRA:                  -1.747
REMARK UNBOUND:                -1.747
REMARK  Name = 
REMARK  4 active torsions:
REMARK  status: ('A' for Active; 'I' for Inactive)
REMARK    1  A    between atoms: C_5  and  C_6
REMARK    2  A    between atoms: C_6  and  N_7
REMARK    3  A    between atoms: C_22  and  C_23
REMARK    4  A    between atoms: C_23  and  N_24
REMARK                            x       y       z     vdW  Elec       q    Type
REMARK                         _______ _______ _______ _____ _____    ______ ____
ROOT
ATOM      1  C   UNL     1      23.856  33.661  56.310  0.00  0.00    +0.000 A 
ATOM      2  C   UNL     1      23.905  33.648  54.925  0.00  0.00    +0.000 A 
ATOM      3  C   UNL     1      22.780  34.027  54.192  0.00  0.00    +0.000 A 
ATOM      4  C   UNL     1      21.578  34.424  54.832  0.00  0.00    +0.000 A 
ATOM      5  C   UNL     1      20.389  34.814  54.161  0.00  0.00    +0.000 A 
ATOM      6  C   UNL     1      19.272  35.186  54.925  0.00  0.00    +0.000 A 
ATOM      7  C   UNL     1      19.349  35.169  56.311  0.00  0.00    +0.000 A 
ATOM      8  N   UNL     1      20.476  34.799  56.960  0.00  0.00    +0.000 NA
ATOM      9  C   UNL     1      21.552  34.435  56.247  0.00  0.00    +0.000 A 
ATOM     10  C   UNL     1      22.682  34.053  56.952  0.00  0.00    +0.000 A 
ENDROOT
BRANCH   5  11
ATOM     11  C   UNL     1      20.231  34.822  52.652  0.00  0.00    +0.000 C 
BRANCH  11  12
ATOM     12  N   UNL     1      18.896  35.263  52.195  0.00  0.00    +0.000 NA
ATOM     13  C   UNL     1      18.931  36.706  51.827  0.00  0.00    +0.000 C 
ATOM     14  C   UNL     1      17.676  37.247  51.122  0.00  0.00    +0.000 C 
ATOM     15  C   UNL     1      17.758  38.742  50.817  0.00  0.00    +0.000 C 
ATOM     16  N   UNL     1      16.599  39.203  50.037  0.00  0.00    +0.000 NA
ATOM     17  C   UNL     1      16.639  38.784  48.623  0.00  0.00    +0.000 C 
ATOM     18  C   UNL     1      15.350  38.036  48.191  0.00  0.00    +0.000 C 
ATOM     19  N   UNL     1      15.349  36.650  48.686  0.00  0.00    +0.000 NA
ATOM     20  C   UNL     1      14.016  36.147  49.020  0.00  0.00    +0.000 C 
ATOM     21  C   UNL     1      14.052  35.064  50.115  0.00  0.00    +0.000 C 
ATOM     22  C   UNL     1      14.888  33.807  49.816  0.00  0.00    +0.000 C 
ATOM     23  N   UNL     1      16.342  34.015  49.787  0.00  0.00    +0.000 NA
ATOM     24  C   UNL     1      16.913  34.115  51.142  0.00  0.00    +0.000 C 
ATOM     25  C   UNL     1      18.436  34.400  51.080  0.00  0.00    +0.000 C 
ATOM     26  H   UNL     1      16.552  40.219  50.083  0.00  0.00    +0.000 HD
ATOM     27  H   UNL     1      15.751  36.057  47.958  0.00  0.00    +0.000 HD
ATOM     28  H   UNL     1      16.495  34.929  49.353  0.00  0.00    +0.000 HD
ENDBRANCH  11  12
ENDBRANCH   5  11
BRANCH   7  29
ATOM     29  C   UNL     1      18.137  35.565  57.144  0.00  0.00    +0.000 C 
BRANCH  29  30
ATOM     30  N   UNL     1      17.094  36.368  56.473  0.00  0.00    +0.000 NA
ATOM     31  C   UNL     1      17.304  37.814  56.642  0.00  0.00    +0.000 C 
ATOM     32  C   UNL     1      17.464  38.458  55.258  0.00  0.00    +0.000 C 
ATOM     33  C   UNL     1      16.956  39.904  55.245  0.00  0.00    +0.000 C 
ATOM     34  N   UNL     1      17.133  40.491  53.911  0.00  0.00    +0.000 NA
ATOM     35  C   UNL     1      16.226  41.625  53.698  0.00  0.00    +0.000 C 
ATOM     36  C   UNL     1      14.986  41.328  52.807  0.00  0.00    +0.000 C 
ATOM     37  N   UNL     1      13.928  40.519  53.428  0.00  0.00    +0.000 NA
ATOM     38  C   UNL     1      14.131  39.078  53.221  0.00  0.00    +0.000 C 
ATOM     39  C   UNL     1      13.058  38.284  53.972  0.00  0.00    +0.000 C 
ATOM     40  C   UNL     1      13.340  36.773  53.957  0.00  0.00    +0.000 C 
ATOM     41  N   UNL     1      14.583  36.371  54.620  0.00  0.00    +0.000 NA
ATOM     42  C   UNL     1      14.546  36.586  56.071  0.00  0.00    +0.000 C 
ATOM     43  C   UNL     1      15.731  35.935  56.836  0.00  0.00    +0.000 C 
ATOM     44  H   UNL     1      16.947  39.783  53.205  0.00  0.00    +0.000 HD
ATOM     45  H   UNL     1      13.037  40.766  52.996  0.00  0.00    +0.000 HD
ATOM     46  H   UNL     1      14.787  35.389  54.432  0.00  0.00    +0.000 HD
ENDBRANCH  29  30
ENDBRANCH   7  29
TORSDOF 4
ENDMDL
