MODEL 1
REMARK VINA RESULT:    -6.703      0.000      0.000
REMARK INTER + INTRA:         -10.424
REMARK INTER:                  -9.202
REMARK INTRA:                  -1.222
REMARK UNBOUND:                -1.370
REMARK  Name = 
REMARK  6 active torsions:
REMARK  status: ('A' for Active; 'I' for Inactive)
REMARK    1  A    between atoms: C_2  and  O_3
REMARK    2  A    between atoms: C_2  and  C_24
REMARK    3  A    between atoms: O_3  and  C_4
REMARK    4  A    between atoms: C_4  and  C_5
REMARK    5  A    between atoms: C_4  and  C_11
REMARK    6  A    between atoms: C_5  and  N_6
REMARK                            x       y       z     vdW  Elec       q    Type
REMARK                         _______ _______ _______ _____ _____    ______ ____
ROOT
ATOM      1  C   UNL     1      16.186  40.922  53.518  0.00  0.00    +0.000 C 
ENDROOT
BRANCH   1   2
ATOM      2  C   UNL     1      16.653  39.891  52.499  0.00  0.00    +0.000 A 
ATOM      3  C   UNL     1      15.961  39.761  51.271  0.00  0.00    +0.000 A 
ATOM      4  C   UNL     1      16.374  38.849  50.293  0.00  0.00    +0.000 A 
ATOM      5  C   UNL     1      17.483  38.064  50.548  0.00  0.00    +0.000 A 
ATOM      6  C   UNL     1      18.180  38.189  51.768  0.00  0.00    +0.000 A 
ATOM      7  C   UNL     1      17.783  39.091  52.743  0.00  0.00    +0.000 A 
ATOM      8  C   UNL     1      19.351  37.227  51.804  0.00  0.00    +0.000 C 
ATOM      9  C   UNL     1      19.238  36.543  50.457  0.00  0.00    +0.000 A 
ATOM     10  C   UNL     1      20.052  35.555  49.928  0.00  0.00    +0.000 A 
ATOM     11  C   UNL     1      19.750  35.073  48.653  0.00  0.00    +0.000 A 
ATOM     12  C   UNL     1      18.652  35.578  47.933  0.00  0.00    +0.000 A 
ATOM     13  C   UNL     1      17.835  36.575  48.477  0.00  0.00    +0.000 A 
ATOM     14  C   UNL     1      18.134  37.054  49.741  0.00  0.00    +0.000 A 
ENDBRANCH   1   2
BRANCH   1  15
ATOM     15  O   UNL     1      17.013  40.768  54.693  0.00  0.00    +0.000 OA
BRANCH  15  17
ATOM     16  O   UNL     1      15.419  41.447  56.189  0.00  0.00    +0.000 OA
ATOM     17  C   UNL     1      16.344  40.719  55.870  0.00  0.00    +0.000 C 
BRANCH  17  18
ATOM     18  C   UNL     1      16.912  39.663  56.752  0.00  0.00    +0.000 A 
ATOM     19  C   UNL     1      17.261  39.909  58.086  0.00  0.00    +0.000 A 
ATOM     20  C   UNL     1      17.791  38.882  58.872  0.00  0.00    +0.000 A 
ATOM     21  C   UNL     1      17.976  37.611  58.329  0.00  0.00    +0.000 A 
ATOM     22  C   UNL     1      17.634  37.361  57.000  0.00  0.00    +0.000 A 
ATOM     23  C   UNL     1      17.104  38.384  56.212  0.00  0.00    +0.000 A 
ENDBRANCH  17  18
ENDBRANCH  15  17
ENDBRANCH   1  15
BRANCH   1  24
ATOM     24  C   UNL     1      16.298  42.353  52.964  0.00  0.00    +0.000 C 
BRANCH  24  25
ATOM     25  N   UNL     1      15.174  43.189  53.332  0.00  0.00    +0.000 N 
ATOM     26  C   UNL     1      13.866  42.796  53.391  0.00  0.00    +0.000 A 
ATOM     27  C   UNL     1      13.179  43.918  53.791  0.00  0.00    +0.000 A 
ATOM     28  N   UNL     1      14.035  44.972  53.976  0.00  0.00    +0.000 NA
ATOM     29  C   UNL     1      15.231  44.502  53.699  0.00  0.00    +0.000 A 
ENDBRANCH  24  25
ENDBRANCH   1  24
TORSDOF 6
ENDMDL
MODEL 2
REMARK VINA RESULT:    -6.495      6.159      9.253
REMARK INTER + INTRA:         -10.142
REMARK INTER:                  -8.947
REMARK INTRA:                  -1.195
REMARK UNBOUND:                -1.370
REMARK  Name = 
REMARK  6 active torsions:
REMARK  status: ('A' for Active; 'I' for Inactive)
REMARK    1  A    between atoms: C_2  and  O_3
REMARK    2  A    between atoms: C_2  and  C_24
REMARK    3  A    between atoms: O_3  and  C_4
REMARK    4  A    between atoms: C_4  and  C_5
REMARK    5  A    between atoms: C_4  and  C_11
REMARK    6  A    between atoms: C_5  and  N_6
REMARK                            x       y       z     vdW  Elec       q    Type
REMARK                         _______ _______ _______ _____ _____    ______ ____
ROOT
ATOM      1  C   UNL     1      23.088  34.190  50.777  0.00  0.00    +0.000 C 
ENDROOT
BRANCH   1   2
ATOM      2  C   UNL     1      21.804  34.935  50.438  0.00  0.00    +0.000 A 
ATOM      3  C   UNL     1      21.184  34.720  49.185  0.00  0.00    +0.000 A 
ATOM      4  C   UNL     1      19.987  35.360  48.843  0.00  0.00    +0.000 A 
ATOM      5  C   UNL     1      19.412  36.219  49.761  0.00  0.00    +0.000 A 
ATOM      6  C   UNL     1      20.023  36.437  51.013  0.00  0.00    +0.000 A 
ATOM      7  C   UNL     1      21.206  35.807  51.364  0.00  0.00    +0.000 A 
ATOM      8  C   UNL     1      19.202  37.413  51.835  0.00  0.00    +0.000 C 
ATOM      9  C   UNL     1      18.051  37.720  50.900  0.00  0.00    +0.000 A 
ATOM     10  C   UNL     1      16.973  38.562  51.117  0.00  0.00    +0.000 A 
ATOM     11  C   UNL     1      16.025  38.688  50.100  0.00  0.00    +0.000 A 
ATOM     12  C   UNL     1      16.166  37.979  48.894  0.00  0.00    +0.000 A 
ATOM     13  C   UNL     1      17.258  37.132  48.683  0.00  0.00    +0.000 A 
ATOM     14  C   UNL     1      18.198  37.006  49.691  0.00  0.00    +0.000 A 
ENDBRANCH   1   2
BRANCH   1  15
ATOM     15  O   UNL     1      22.796  33.318  51.892  0.00  0.00    +0.000 OA
BRANCH  15  17
ATOM     16  O   UNL     1      24.909  32.857  52.642  0.00  0.00    +0.000 OA
ATOM     17  C   UNL     1      23.766  33.237  52.834  0.00  0.00    +0.000 C 
BRANCH  17  18
ATOM     18  C   UNL     1      23.240  33.649  54.163  0.00  0.00    +0.000 A 
ATOM     19  C   UNL     1      21.916  34.067  54.350  0.00  0.00    +0.000 A 
ATOM     20  C   UNL     1      21.473  34.445  55.620  0.00  0.00    +0.000 A 
ATOM     21  C   UNL     1      22.348  34.409  56.705  0.00  0.00    +0.000 A 
ATOM     22  C   UNL     1      23.669  33.998  56.526  0.00  0.00    +0.000 A 
ATOM     23  C   UNL     1      24.115  33.620  55.258  0.00  0.00    +0.000 A 
ENDBRANCH  17  18
ENDBRANCH  15  17
ENDBRANCH   1  15
BRANCH   1  24
ATOM     24  C   UNL     1      23.601  33.375  49.576  0.00  0.00    +0.000 C 
BRANCH  24  25
ATOM     25  N   UNL     1      24.774  33.960  48.959  0.00  0.00    +0.000 N 
ATOM     26  C   UNL     1      24.777  34.944  48.012  0.00  0.00    +0.000 A 
ATOM     27  C   UNL     1      26.106  35.172  47.744  0.00  0.00    +0.000 A 
ATOM     28  N   UNL     1      26.902  34.355  48.505  0.00  0.00    +0.000 NA
ATOM     29  C   UNL     1      26.073  33.640  49.232  0.00  0.00    +0.000 A 
ENDBRANCH  24  25
ENDBRANCH   1  24
TORSDOF 6
ENDMDL
MODEL 3
REMARK VINA RESULT:    -6.475      8.340     12.759
REMARK INTER + INTRA:         -10.116
REMARK INTER:                  -8.746
REMARK INTRA:                  -1.370
REMARK UNBOUND:                -1.370
REMARK  Name = 
REMARK  6 active torsions:
REMARK  status: ('A' for Active; 'I' for Inactive)
REMARK    1  A    between atoms: C_2  and  O_3
REMARK    2  A    between atoms: C_2  and  C_24
REMARK    3  A    between atoms: O_3  and  C_4
REMARK    4  A    between atoms: C_4  and  C_5
REMARK    5  A    between atoms: C_4  and  C_11
REMARK    6  A    between atoms: C_5  and  N_6
REMARK                            x       y       z     vdW  Elec       q    Type
REMARK                         _______ _______ _______ _____ _____    ______ ____
ROOT
ATOM      1  C   UNL     1      14.696  42.151  45.359  0.00  0.00    +0.000 C 
ENDROOT
BRANCH   1   2
ATOM      2  C   UNL     1      13.968  43.452  45.668  0.00  0.00    +0.000 A 
ATOM      3  C   UNL     1      12.737  43.415  46.365  0.00  0.00    +0.000 A 
ATOM      4  C   UNL     1      12.050  44.588  46.697  0.00  0.00    +0.000 A 
ATOM      5  C   UNL     1      12.599  45.802  46.328  0.00  0.00    +0.000 A 
ATOM      6  C   UNL     1      13.826  45.848  45.635  0.00  0.00    +0.000 A 
ATOM      7  C   UNL     1      14.518  44.694  45.304  0.00  0.00    +0.000 A 
ATOM      8  C   UNL     1      14.213  47.287  45.347  0.00  0.00    +0.000 C 
ATOM      9  C   UNL     1      13.059  48.050  45.963  0.00  0.00    +0.000 A 
ATOM     10  C   UNL     1      12.867  49.422  46.007  0.00  0.00    +0.000 A 
ATOM     11  C   UNL     1      11.716  49.901  46.635  0.00  0.00    +0.000 A 
ATOM     12  C   UNL     1      10.784  49.016  47.204  0.00  0.00    +0.000 A 
ATOM     13  C   UNL     1      10.986  47.632  47.154  0.00  0.00    +0.000 A 
ATOM     14  C   UNL     1      12.127  47.156  46.532  0.00  0.00    +0.000 A 
ENDBRANCH   1   2
BRANCH   1  15
ATOM     15  O   UNL     1      15.834  42.481  44.533  0.00  0.00    +0.000 OA
BRANCH  15  17
ATOM     16  O   UNL     1      16.682  40.636  43.475  0.00  0.00    +0.000 OA
ATOM     17  C   UNL     1      16.031  41.669  43.467  0.00  0.00    +0.000 C 
BRANCH  17  18
ATOM     18  C   UNL     1      15.367  42.222  42.256  0.00  0.00    +0.000 A 
ATOM     19  C   UNL     1      14.703  41.409  41.328  0.00  0.00    +0.000 A 
ATOM     20  C   UNL     1      14.096  41.978  40.206  0.00  0.00    +0.000 A 
ATOM     21  C   UNL     1      14.151  43.357  40.006  0.00  0.00    +0.000 A 
ATOM     22  C   UNL     1      14.814  44.172  40.923  0.00  0.00    +0.000 A 
ATOM     23  C   UNL     1      15.422  43.606  42.046  0.00  0.00    +0.000 A 
ENDBRANCH  17  18
ENDBRANCH  15  17
ENDBRANCH   1  15
BRANCH   1  24
ATOM     24  C   UNL     1      15.153  41.442  46.647  0.00  0.00    +0.000 C 
BRANCH  24  25
ATOM     25  N   UNL     1      15.315  40.012  46.475  0.00  0.00    +0.000 N 
ATOM     26  C   UNL     1      14.443  39.176  45.836  0.00  0.00    +0.000 A 
ATOM     27  C   UNL     1      15.023  37.932  45.920  0.00  0.00    +0.000 A 
ATOM     28  N   UNL     1      16.218  37.997  46.588  0.00  0.00    +0.000 NA
ATOM     29  C   UNL     1      16.372  39.263  46.905  0.00  0.00    +0.000 A 
ENDBRANCH  24  25
ENDBRANCH   1  24
TORSDOF 6
ENDMDL
