MODEL 1
REMARK VINA RESULT:    -7.043      0.000      0.000
REMARK INTER + INTRA:         -12.106
REMARK INTER:                  -9.378
REMARK INTRA:                  -2.727
REMARK UNBOUND:                -1.769
REMARK  Name = 
REMARK  9 active torsions:
REMARK  status: ('A' for Active; 'I' for Inactive)
REMARK    1  A    between atoms: C_1  and  C_2
REMARK    2  A    between atoms: C_2  and  C_3
REMARK    3  A    between atoms: C_3  and  C_4
REMARK    4  A    between atoms: C_6  and  C_7
REMARK    5  A    between atoms: C_6  and  C_13
REMARK    6  A    between atoms: N_21  and  C_22
REMARK    7  A    between atoms: C_22  and  C_23
REMARK    8  A    between atoms: C_26  and  C_27
REMARK    9  A    between atoms: C_32  and  C_33
REMARK                            x       y       z     vdW  Elec       q    Type
REMARK                         _______ _______ _______ _____ _____    ______ ____
ROOT
ATOM      1  C   UNL     1      21.114  32.794  50.672  0.00  0.00    +0.000 C 
ATOM      2  N   UNL     1      21.924  32.204  51.489  0.00  0.00    +0.000 NA
ATOM      3  C   UNL     1      23.073  33.155  51.725  0.00  0.00    +0.000 C 
ATOM      4  C   UNL     1      22.700  34.309  50.756  0.00  0.00    +0.000 C 
ATOM      5  O   UNL     1      23.346  35.321  50.506  0.00  0.00    +0.000 OA
ATOM      6  N   UNL     1      21.488  33.995  50.209  0.00  0.00    +0.000 N 
ENDROOT
BRANCH   3   7
ATOM      7  C   UNL     1      23.073  33.592  53.204  0.00  0.00    +0.000 A 
ATOM      8  C   UNL     1      21.968  34.291  53.728  0.00  0.00    +0.000 A 
ATOM      9  C   UNL     1      21.928  34.689  55.066  0.00  0.00    +0.000 A 
ATOM     10  C   UNL     1      22.988  34.385  55.913  0.00  0.00    +0.000 A 
ATOM     11  C   UNL     1      24.083  33.677  55.425  0.00  0.00    +0.000 A 
ATOM     12  C   UNL     1      24.124  33.279  54.085  0.00  0.00    +0.000 A 
ENDBRANCH   3   7
BRANCH   3  13
ATOM     13  C   UNL     1      24.412  32.501  51.341  0.00  0.00    +0.000 A 
ATOM     14  C   UNL     1      24.507  31.119  51.092  0.00  0.00    +0.000 A 
ATOM     15  C   UNL     1      25.721  30.533  50.726  0.00  0.00    +0.000 A 
ATOM     16  C   UNL     1      26.863  31.315  50.590  0.00  0.00    +0.000 A 
ATOM     17  C   UNL     1      26.791  32.686  50.815  0.00  0.00    +0.000 A 
ATOM     18  C   UNL     1      25.579  33.273  51.181  0.00  0.00    +0.000 A 
ENDBRANCH   3  13
BRANCH   1  19
ATOM     19  C   UNL     1      19.831  32.141  50.205  0.00  0.00    +0.000 C 
BRANCH  19  21
ATOM     20  C   UNL     1      18.228  33.267  51.818  0.00  0.00    +0.000 C 
ATOM     21  C   UNL     1      18.781  31.947  51.297  0.00  0.00    +0.000 C 
ENDBRANCH  19  21
ENDBRANCH   1  19
BRANCH   6  22
ATOM     22  C   UNL     1      20.803  34.865  49.266  0.00  0.00    +0.000 C 
BRANCH  22  23
ATOM     23  C   UNL     1      19.902  35.863  49.960  0.00  0.00    +0.000 A 
ATOM     24  C   UNL     1      20.270  36.432  51.186  0.00  0.00    +0.000 A 
ATOM     25  C   UNL     1      19.449  37.378  51.806  0.00  0.00    +0.000 A 
ATOM     26  C   UNL     1      18.234  37.767  51.225  0.00  0.00    +0.000 A 
ATOM     27  C   UNL     1      17.858  37.180  50.009  0.00  0.00    +0.000 A 
ATOM     28  C   UNL     1      18.679  36.238  49.385  0.00  0.00    +0.000 A 
BRANCH  26  29
ATOM     29  C   UNL     1      17.389  38.791  51.858  0.00  0.00    +0.000 A 
ATOM     30  C   UNL     1      17.494  40.117  51.389  0.00  0.00    +0.000 A 
ATOM     31  C   UNL     1      16.690  41.136  51.901  0.00  0.00    +0.000 A 
ATOM     32  C   UNL     1      15.758  40.851  52.891  0.00  0.00    +0.000 A 
ATOM     33  C   UNL     1      15.639  39.548  53.375  0.00  0.00    +0.000 A 
ATOM     34  C   UNL     1      16.451  38.510  52.877  0.00  0.00    +0.000 A 
BRANCH  34  35
ATOM     35  C   UNL     1      16.280  37.181  53.450  0.00  0.00    +0.000 A 
ATOM     36  N   UNL     1      16.967  36.769  54.572  0.00  0.00    +0.000 NA
ATOM     37  N   UNL     1      16.605  35.515  54.804  0.00  0.00    +0.000 NA
ATOM     38  N   UNL     1      15.744  35.228  53.823  0.00  0.00    +0.000 N 
ATOM     39  N   UNL     1      15.518  36.203  52.931  0.00  0.00    +0.000 NA
ATOM     40  H   UNL     1      15.295  34.320  53.756  0.00  0.00    +0.000 HD
ENDBRANCH  34  35
ENDBRANCH  26  29
ENDBRANCH  22  23
ENDBRANCH   6  22
TORSDOF 8
ENDMDL
MODEL 2
REMARK VINA RESULT:    -7.022      2.580      7.872
REMARK INTER + INTRA:         -12.075
REMARK INTER:                  -9.791
REMARK INTRA:                  -2.285
REMARK UNBOUND:                -1.769
REMARK  Name = 
REMARK  9 active torsions:
REMARK  status: ('A' for Active; 'I' for Inactive)
REMARK    1  A    between atoms: C_1  and  C_2
REMARK    2  A    between atoms: C_2  and  C_3
REMARK    3  A    between atoms: C_3  and  C_4
REMARK    4  A    between atoms: C_6  and  C_7
REMARK    5  A    between atoms: C_6  and  C_13
REMARK    6  A    between atoms: N_21  and  C_22
REMARK    7  A    between atoms: C_22  and  C_23
REMARK    8  A    between atoms: C_26  and  C_27
REMARK    9  A    between atoms: C_32  and  C_33
REMARK                            x       y       z     vdW  Elec       q    Type
REMARK                         _______ _______ _______ _____ _____    ______ ____
ROOT
ATOM      1  C   UNL     1      18.565  36.644  52.200  0.00  0.00    +0.000 C 
ATOM      2  N   UNL     1      18.349  36.398  53.450  0.00  0.00    +0.000 NA
ATOM      3  C   UNL     1      18.598  34.922  53.653  0.00  0.00    +0.000 C 
ATOM      4  C   UNL     1      18.886  34.472  52.195  0.00  0.00    +0.000 C 
ATOM      5  O   UNL     1      19.089  33.335  51.784  0.00  0.00    +0.000 OA
ATOM      6  N   UNL     1      18.872  35.598  51.420  0.00  0.00    +0.000 N 
ENDROOT
BRANCH   3   7
ATOM      7  C   UNL     1      19.812  34.738  54.586  0.00  0.00    +0.000 A 
ATOM      8  C   UNL     1      21.088  34.500  54.038  0.00  0.00    +0.000 A 
ATOM      9  C   UNL     1      22.211  34.343  54.854  0.00  0.00    +0.000 A 
ATOM     10  C   UNL     1      22.084  34.432  56.235  0.00  0.00    +0.000 A 
ATOM     11  C   UNL     1      20.838  34.686  56.801  0.00  0.00    +0.000 A 
ATOM     12  C   UNL     1      19.712  34.844  55.985  0.00  0.00    +0.000 A 
ENDBRANCH   3   7
BRANCH   3  13
ATOM     13  C   UNL     1      17.349  34.229  54.226  0.00  0.00    +0.000 A 
ATOM     14  C   UNL     1      17.337  32.848  54.494  0.00  0.00    +0.000 A 
ATOM     15  C   UNL     1      16.207  32.226  55.031  0.00  0.00    +0.000 A 
ATOM     16  C   UNL     1      15.070  32.972  55.322  0.00  0.00    +0.000 A 
ATOM     17  C   UNL     1      15.063  34.343  55.081  0.00  0.00    +0.000 A 
ATOM     18  C   UNL     1      16.192  34.965  54.544  0.00  0.00    +0.000 A 
ENDBRANCH   3  13
BRANCH   1  19
ATOM     19  C   UNL     1      18.418  38.034  51.620  0.00  0.00    +0.000 C 
BRANCH  19  21
ATOM     20  C   UNL     1      17.575  40.407  51.931  0.00  0.00    +0.000 C 
ATOM     21  C   UNL     1      17.919  39.087  52.608  0.00  0.00    +0.000 C 
ENDBRANCH  19  21
ENDBRANCH   1  19
BRANCH   6  22
ATOM     22  C   UNL     1      19.133  35.570  49.990  0.00  0.00    +0.000 C 
BRANCH  22  23
ATOM     23  C   UNL     1      20.597  35.349  49.679  0.00  0.00    +0.000 A 
ATOM     24  C   UNL     1      20.993  34.719  48.492  0.00  0.00    +0.000 A 
ATOM     25  C   UNL     1      22.348  34.548  48.195  0.00  0.00    +0.000 A 
ATOM     26  C   UNL     1      23.340  34.987  49.082  0.00  0.00    +0.000 A 
ATOM     27  C   UNL     1      22.941  35.598  50.280  0.00  0.00    +0.000 A 
ATOM     28  C   UNL     1      21.587  35.774  50.576  0.00  0.00    +0.000 A 
BRANCH  26  29
ATOM     29  C   UNL     1      24.766  34.841  48.753  0.00  0.00    +0.000 A 
ATOM     30  C   UNL     1      25.277  35.601  47.680  0.00  0.00    +0.000 A 
ATOM     31  C   UNL     1      26.629  35.558  47.336  0.00  0.00    +0.000 A 
ATOM     32  C   UNL     1      27.502  34.759  48.062  0.00  0.00    +0.000 A 
ATOM     33  C   UNL     1      27.020  33.996  49.126  0.00  0.00    +0.000 A 
ATOM     34  C   UNL     1      25.656  34.018  49.478  0.00  0.00    +0.000 A 
BRANCH  34  35
ATOM     35  C   UNL     1      25.228  33.175  50.586  0.00  0.00    +0.000 A 
ATOM     36  N   UNL     1      25.407  33.543  51.903  0.00  0.00    +0.000 NA
ATOM     37  N   UNL     1      24.939  32.550  52.646  0.00  0.00    +0.000 NA
ATOM     38  N   UNL     1      24.518  31.640  51.762  0.00  0.00    +0.000 N 
ATOM     39  N   UNL     1      24.694  31.947  50.470  0.00  0.00    +0.000 NA
ATOM     40  H   UNL     1      24.099  30.764  52.058  0.00  0.00    +0.000 HD
ENDBRANCH  34  35
ENDBRANCH  26  29
ENDBRANCH  22  23
ENDBRANCH   6  22
TORSDOF 8
ENDMDL
MODEL 3
REMARK VINA RESULT:    -6.940      4.815      8.043
REMARK INTER + INTRA:         -11.954
REMARK INTER:                 -10.185
REMARK INTRA:                  -1.769
REMARK UNBOUND:                -1.769
REMARK  Name = 
REMARK  9 active torsions:
REMARK  status: ('A' for Active; 'I' for Inactive)
REMARK    1  A    between atoms: C_1  and  C_2
REMARK    2  A    between atoms: C_2  and  C_3
REMARK    3  A    between atoms: C_3  and  C_4
REMARK    4  A    between atoms: C_6  and  C_7
REMARK    5  A    between atoms: C_6  and  C_13
REMARK    6  A    between atoms: N_21  and  C_22
REMARK    7  A    between atoms: C_22  and  C_23
REMARK    8  A    between atoms: C_26  and  C_27
REMARK    9  A    between atoms: C_32  and  C_33
REMARK                            x       y       z     vdW  Elec       q    Type
REMARK                         _______ _______ _______ _____ _____    ______ ____
ROOT
ATOM      1  C   UNL     1      17.373  39.187  51.652  0.00  0.00    +0.000 C 
ATOM      2  N   UNL     1      18.357  38.557  52.207  0.00  0.00    +0.000 NA
ATOM      3  C   UNL     1      18.093  37.082  52.018  0.00  0.00    +0.000 C 
ATOM      4  C   UNL     1      16.700  37.121  51.334  0.00  0.00    +0.000 C 
ATOM      5  O   UNL     1      15.988  36.173  51.020  0.00  0.00    +0.000 OA
ATOM      6  N   UNL     1      16.389  38.437  51.135  0.00  0.00    +0.000 N 
ENDROOT
BRANCH   3   7
ATOM      7  C   UNL     1      19.188  36.485  51.112  0.00  0.00    +0.000 A 
ATOM      8  C   UNL     1      20.516  36.406  51.575  0.00  0.00    +0.000 A 
ATOM      9  C   UNL     1      21.529  35.857  50.786  0.00  0.00    +0.000 A 
ATOM     10  C   UNL     1      21.234  35.364  49.520  0.00  0.00    +0.000 A 
ATOM     11  C   UNL     1      19.926  35.412  49.046  0.00  0.00    +0.000 A 
ATOM     12  C   UNL     1      18.910  35.961  49.836  0.00  0.00    +0.000 A 
ENDBRANCH   3   7
BRANCH   3  13
ATOM     13  C   UNL     1      18.040  36.358  53.375  0.00  0.00    +0.000 A 
ATOM     14  C   UNL     1      18.291  34.977  53.476  0.00  0.00    +0.000 A 
ATOM     15  C   UNL     1      18.260  34.326  54.712  0.00  0.00    +0.000 A 
ATOM     16  C   UNL     1      17.990  35.043  55.874  0.00  0.00    +0.000 A 
ATOM     17  C   UNL     1      17.754  36.412  55.800  0.00  0.00    +0.000 A 
ATOM     18  C   UNL     1      17.785  37.064  54.566  0.00  0.00    +0.000 A 
ENDBRANCH   3  13
BRANCH   1  19
ATOM     19  C   UNL     1      17.295  40.697  51.636  0.00  0.00    +0.000 C 
BRANCH  19  21
ATOM     20  C   UNL     1      16.071  42.675  52.650  0.00  0.00    +0.000 C 
ATOM     21  C   UNL     1      16.711  41.318  52.904  0.00  0.00    +0.000 C 
ENDBRANCH  19  21
ENDBRANCH   1  19
BRANCH   6  22
ATOM     22  C   UNL     1      15.159  38.864  50.486  0.00  0.00    +0.000 C 
BRANCH  22  23
ATOM     23  C   UNL     1      15.398  39.354  49.075  0.00  0.00    +0.000 A 
ATOM     24  C   UNL     1      16.462  38.857  48.311  0.00  0.00    +0.000 A 
ATOM     25  C   UNL     1      16.658  39.289  46.997  0.00  0.00    +0.000 A 
ATOM     26  C   UNL     1      15.806  40.239  46.417  0.00  0.00    +0.000 A 
ATOM     27  C   UNL     1      14.754  40.752  47.191  0.00  0.00    +0.000 A 
ATOM     28  C   UNL     1      14.554  40.318  48.504  0.00  0.00    +0.000 A 
BRANCH  26  29
ATOM     29  C   UNL     1      15.988  40.666  45.022  0.00  0.00    +0.000 A 
ATOM     30  C   UNL     1      15.922  42.046  44.739  0.00  0.00    +0.000 A 
ATOM     31  C   UNL     1      16.135  42.535  43.449  0.00  0.00    +0.000 A 
ATOM     32  C   UNL     1      16.426  41.655  42.414  0.00  0.00    +0.000 A 
ATOM     33  C   UNL     1      16.494  40.285  42.669  0.00  0.00    +0.000 A 
ATOM     34  C   UNL     1      16.268  39.774  43.963  0.00  0.00    +0.000 A 
BRANCH  34  35
ATOM     35  C   UNL     1      16.335  38.329  44.142  0.00  0.00    +0.000 A 
ATOM     36  N   UNL     1      17.528  37.639  44.121  0.00  0.00    +0.000 NA
ATOM     37  N   UNL     1      17.232  36.357  44.282  0.00  0.00    +0.000 NA
ATOM     38  N   UNL     1      15.900  36.330  44.377  0.00  0.00    +0.000 N 
ATOM     39  N   UNL     1      15.276  37.512  44.269  0.00  0.00    +0.000 NA
ATOM     40  H   UNL     1      15.392  35.461  44.515  0.00  0.00    +0.000 HD
ENDBRANCH  34  35
ENDBRANCH  26  29
ENDBRANCH  22  23
ENDBRANCH   6  22
TORSDOF 8
ENDMDL
