MODEL 1
REMARK VINA RESULT:    -6.252      0.000      0.000
REMARK INTER + INTRA:          -9.002
REMARK INTER:                  -8.010
REMARK INTRA:                  -0.992
REMARK UNBOUND:                -0.741
REMARK  Name = 
REMARK  6 active torsions:
REMARK  status: ('A' for Active; 'I' for Inactive)
REMARK    1  A    between atoms: O_1  and  C_2
REMARK    2  A    between atoms: C_7  and  C_8
REMARK    3  A    between atoms: C_8  and  C_9
REMARK    4  A    between atoms: C_16  and  C_17
REMARK    5  A    between atoms: C_17  and  C_18
REMARK    6  A    between atoms: C_18  and  C_19
REMARK                            x       y       z     vdW  Elec       q    Type
REMARK                         _______ _______ _______ _____ _____    ______ ____
ROOT
ATOM      1  C   UNL     1      18.076  36.249  56.544  0.00  0.00    +0.000 A 
ATOM      2  C   UNL     1      17.545  37.531  56.380  0.00  0.00    +0.000 A 
ATOM      3  C   UNL     1      17.411  38.022  55.096  0.00  0.00    +0.000 A 
ATOM      4  C   UNL     1      17.807  37.269  54.007  0.00  0.00    +0.000 A 
ATOM      5  C   UNL     1      18.359  36.011  54.148  0.00  0.00    +0.000 A 
ATOM      6  C   UNL     1      18.502  35.475  55.442  0.00  0.00    +0.000 A 
ATOM      7  O   UNL     1      17.626  37.901  52.807  0.00  0.00    +0.000 OA
ATOM      8  C   UNL     1      16.780  39.045  53.132  0.00  0.00    +0.000 C 
ATOM      9  C   UNL     1      16.939  39.346  54.633  0.00  0.00    +0.000 C 
ENDROOT
BRANCH   1  10
ATOM     10  O   UNL     1      18.164  35.803  57.833  0.00  0.00    +0.000 OA
ATOM     11  H   UNL     1      18.964  35.257  57.912  0.00  0.00    +0.000 HD
ENDBRANCH   1  10
BRANCH   6  12
ATOM     12  C   UNL     1      19.148  34.114  55.598  0.00  0.00    +0.000 C 
BRANCH  12  13
ATOM     13  C   UNL     1      20.658  34.101  55.497  0.00  0.00    +0.000 A 
ATOM     14  C   UNL     1      21.275  33.728  54.293  0.00  0.00    +0.000 A 
ATOM     15  C   UNL     1      22.667  33.700  54.188  0.00  0.00    +0.000 A 
ATOM     16  C   UNL     1      23.458  34.031  55.285  0.00  0.00    +0.000 A 
ATOM     17  C   UNL     1      22.857  34.385  56.492  0.00  0.00    +0.000 A 
ATOM     18  C   UNL     1      21.465  34.414  56.600  0.00  0.00    +0.000 A 
ENDBRANCH  12  13
ENDBRANCH   6  12
BRANCH   8  19
ATOM     19  C   UNL     1      17.174  40.198  52.202  0.00  0.00    +0.000 C 
BRANCH  19  20
ATOM     20  C   UNL     1      15.997  40.880  51.500  0.00  0.00    +0.000 C 
BRANCH  20  21
ATOM     21  C   UNL     1      15.306  41.953  52.302  0.00  0.00    +0.000 A 
ATOM     22  C   UNL     1      16.003  43.102  52.700  0.00  0.00    +0.000 A 
ATOM     23  C   UNL     1      15.363  44.098  53.439  0.00  0.00    +0.000 A 
ATOM     24  C   UNL     1      14.024  43.953  53.796  0.00  0.00    +0.000 A 
ATOM     25  C   UNL     1      13.325  42.808  53.418  0.00  0.00    +0.000 A 
ATOM     26  C   UNL     1      13.963  41.811  52.679  0.00  0.00    +0.000 A 
ENDBRANCH  20  21
ENDBRANCH  19  20
ENDBRANCH   8  19
TORSDOF 6
ENDMDL
MODEL 2
REMARK VINA RESULT:    -6.250      5.875      7.743
REMARK INTER + INTRA:          -9.000
REMARK INTER:                  -8.260
REMARK INTRA:                  -0.741
REMARK UNBOUND:                -0.741
REMARK  Name = 
REMARK  6 active torsions:
REMARK  status: ('A' for Active; 'I' for Inactive)
REMARK    1  A    between atoms: O_1  and  C_2
REMARK    2  A    between atoms: C_7  and  C_8
REMARK    3  A    between atoms: C_8  and  C_9
REMARK    4  A    between atoms: C_16  and  C_17
REMARK    5  A    between atoms: C_17  and  C_18
REMARK    6  A    between atoms: C_18  and  C_19
REMARK                            x       y       z     vdW  Elec       q    Type
REMARK                         _______ _______ _______ _____ _____    ______ ____
ROOT
ATOM      1  C   UNL     1      17.528  37.479  46.567  0.00  0.00    +0.000 A 
ATOM      2  C   UNL     1      17.222  38.551  45.724  0.00  0.00    +0.000 A 
ATOM      3  C   UNL     1      16.366  39.527  46.197  0.00  0.00    +0.000 A 
ATOM      4  C   UNL     1      15.817  39.433  47.462  0.00  0.00    +0.000 A 
ATOM      5  C   UNL     1      16.085  38.369  48.299  0.00  0.00    +0.000 A 
ATOM      6  C   UNL     1      16.961  37.360  47.855  0.00  0.00    +0.000 A 
ATOM      7  O   UNL     1      14.977  40.468  47.774  0.00  0.00    +0.000 OA
ATOM      8  C   UNL     1      15.227  41.457  46.730  0.00  0.00    +0.000 C 
ATOM      9  C   UNL     1      15.830  40.727  45.516  0.00  0.00    +0.000 C 
ENDROOT
BRANCH   1  10
ATOM     10  O   UNL     1      18.397  36.555  46.058  0.00  0.00    +0.000 OA
ATOM     11  H   UNL     1      19.017  37.012  45.466  0.00  0.00    +0.000 HD
ENDBRANCH   1  10
BRANCH   6  12
ATOM     12  C   UNL     1      17.218  36.171  48.757  0.00  0.00    +0.000 C 
BRANCH  12  13
ATOM     13  C   UNL     1      18.484  36.250  49.584  0.00  0.00    +0.000 A 
ATOM     14  C   UNL     1      19.629  35.548  49.177  0.00  0.00    +0.000 A 
ATOM     15  C   UNL     1      20.801  35.601  49.935  0.00  0.00    +0.000 A 
ATOM     16  C   UNL     1      20.838  36.344  51.112  0.00  0.00    +0.000 A 
ATOM     17  C   UNL     1      19.702  37.031  51.537  0.00  0.00    +0.000 A 
ATOM     18  C   UNL     1      18.529  36.980  50.781  0.00  0.00    +0.000 A 
ENDBRANCH  12  13
ENDBRANCH   6  12
BRANCH   8  19
ATOM     19  C   UNL     1      13.909  42.185  46.450  0.00  0.00    +0.000 C 
BRANCH  19  20
ATOM     20  C   UNL     1      14.053  43.473  45.634  0.00  0.00    +0.000 C 
BRANCH  20  21
ATOM     21  C   UNL     1      13.180  44.617  46.081  0.00  0.00    +0.000 A 
ATOM     22  C   UNL     1      11.979  44.370  46.761  0.00  0.00    +0.000 A 
ATOM     23  C   UNL     1      11.172  45.430  47.179  0.00  0.00    +0.000 A 
ATOM     24  C   UNL     1      11.551  46.744  46.915  0.00  0.00    +0.000 A 
ATOM     25  C   UNL     1      12.736  47.000  46.228  0.00  0.00    +0.000 A 
ATOM     26  C   UNL     1      13.544  45.943  45.809  0.00  0.00    +0.000 A 
ENDBRANCH  20  21
ENDBRANCH  19  20
ENDBRANCH   8  19
TORSDOF 6
ENDMDL
MODEL 3
REMARK VINA RESULT:    -6.163     11.906     14.392
REMARK INTER + INTRA:          -8.885
REMARK INTER:                  -7.905
REMARK INTRA:                  -0.981
REMARK UNBOUND:                -0.741
REMARK  Name = 
REMARK  6 active torsions:
REMARK  status: ('A' for Active; 'I' for Inactive)
REMARK    1  A    between atoms: O_1  and  C_2
REMARK    2  A    between atoms: C_7  and  C_8
REMARK    3  A    between atoms: C_8  and  C_9
REMARK    4  A    between atoms: C_16  and  C_17
REMARK    5  A    between atoms: C_17  and  C_18
REMARK    6  A    between atoms: C_18  and  C_19
REMARK                            x       y       z     vdW  Elec       q    Type
REMARK                         _______ _______ _______ _____ _____    ______ ____
ROOT
ATOM      1  C   UNL     1      12.443  45.361  46.543  0.00  0.00    +0.000 A 
ATOM      2  C   UNL     1      11.882  46.640  46.596  0.00  0.00    +0.000 A 
ATOM      3  C   UNL     1      12.504  47.655  45.896  0.00  0.00    +0.000 A 
ATOM      4  C   UNL     1      13.659  47.411  45.177  0.00  0.00    +0.000 A 
ATOM      5  C   UNL     1      14.245  46.162  45.133  0.00  0.00    +0.000 A 
ATOM      6  C   UNL     1      13.632  45.101  45.827  0.00  0.00    +0.000 A 
ATOM      7  O   UNL     1      14.162  48.521  44.554  0.00  0.00    +0.000 OA
ATOM      8  C   UNL     1      13.085  49.501  44.648  0.00  0.00    +0.000 C 
ATOM      9  C   UNL     1      12.170  49.094  45.818  0.00  0.00    +0.000 C 
ENDROOT
BRANCH   1  10
ATOM     10  O   UNL     1      11.774  44.390  47.234  0.00  0.00    +0.000 OA
ATOM     11  H   UNL     1      10.923  44.232  46.792  0.00  0.00    +0.000 HD
ENDBRANCH   1  10
BRANCH   6  12
ATOM     12  C   UNL     1      14.301  43.742  45.815  0.00  0.00    +0.000 C 
BRANCH  12  13
ATOM     13  C   UNL     1      14.655  43.209  44.443  0.00  0.00    +0.000 A 
ATOM     14  C   UNL     1      16.000  43.013  44.095  0.00  0.00    +0.000 A 
ATOM     15  C   UNL     1      16.343  42.533  42.829  0.00  0.00    +0.000 A 
ATOM     16  C   UNL     1      15.349  42.255  41.895  0.00  0.00    +0.000 A 
ATOM     17  C   UNL     1      14.010  42.461  42.222  0.00  0.00    +0.000 A 
ATOM     18  C   UNL     1      13.664  42.942  43.487  0.00  0.00    +0.000 A 
ENDBRANCH  12  13
ENDBRANCH   6  12
BRANCH   8  19
ATOM     19  C   UNL     1      13.724  50.887  44.787  0.00  0.00    +0.000 C 
BRANCH  19  20
ATOM     20  C   UNL     1      14.809  50.983  45.863  0.00  0.00    +0.000 C 
BRANCH  20  21
ATOM     21  C   UNL     1      16.176  51.373  45.363  0.00  0.00    +0.000 A 
ATOM     22  C   UNL     1      16.739  52.605  45.723  0.00  0.00    +0.000 A 
ATOM     23  C   UNL     1      18.007  52.965  45.263  0.00  0.00    +0.000 A 
ATOM     24  C   UNL     1      18.721  52.103  44.434  0.00  0.00    +0.000 A 
ATOM     25  C   UNL     1      18.165  50.881  44.059  0.00  0.00    +0.000 A 
ATOM     26  C   UNL     1      16.898  50.519  44.517  0.00  0.00    +0.000 A 
ENDBRANCH  20  21
ENDBRANCH  19  20
ENDBRANCH   8  19
TORSDOF 6
ENDMDL
