MODEL 1
REMARK VINA RESULT:    -6.786      0.000      0.000
REMARK INTER + INTRA:          -9.874
REMARK INTER:                  -8.941
REMARK INTRA:                  -0.934
REMARK UNBOUND:                -1.105
REMARK  Name = 
REMARK  5 active torsions:
REMARK  status: ('A' for Active; 'I' for Inactive)
REMARK    1  A    between atoms: N_11  and  C_12
REMARK    2  A    between atoms: C_12  and  C_13
REMARK    3  A    between atoms: C_13  and  C_14
REMARK    4  A    between atoms: C_14  and  C_15
REMARK    5  A    between atoms: C_15  and  N_16
REMARK                            x       y       z     vdW  Elec       q    Type
REMARK                         _______ _______ _______ _____ _____    ______ ____
ROOT
ATOM      1  N   UNL     1      16.315  38.439  51.466  0.00  0.00    +0.000 NA
ATOM      2  C   UNL     1      17.645  38.513  52.130  0.00  0.00    +0.000 C 
ATOM      3  C   UNL     1      17.293  37.845  53.472  0.00  0.00    +0.000 C 
ATOM      4  C   UNL     1      15.799  38.133  53.689  0.00  0.00    +0.000 C 
ATOM      5  C   UNL     1      15.389  38.996  52.488  0.00  0.00    +0.000 C 
ATOM      6  C   UNL     1      15.733  40.439  52.739  0.00  0.00    +0.000 A 
ATOM      7  C   UNL     1      17.045  40.869  52.708  0.00  0.00    +0.000 A 
ATOM      8  N   UNL     1      17.076  42.206  52.962  0.00  0.00    +0.000 N 
ATOM      9  C   UNL     1      15.786  42.664  53.149  0.00  0.00    +0.000 A 
ATOM     10  C   UNL     1      15.322  43.958  53.418  0.00  0.00    +0.000 A 
ATOM     11  C   UNL     1      13.944  44.137  53.560  0.00  0.00    +0.000 A 
ATOM     12  C   UNL     1      13.062  43.065  53.437  0.00  0.00    +0.000 A 
ATOM     13  C   UNL     1      13.538  41.777  53.164  0.00  0.00    +0.000 A 
ATOM     14  C   UNL     1      14.923  41.570  53.018  0.00  0.00    +0.000 A 
ATOM     15  C   UNL     1      18.189  39.974  52.355  0.00  0.00    +0.000 C 
ATOM     16  H   UNL     1      17.902  42.788  52.983  0.00  0.00    +0.000 HD
ENDROOT
BRANCH   1  17
ATOM     17  C   UNL     1      16.271  39.052  50.137  0.00  0.00    +0.000 C 
BRANCH  17  18
ATOM     18  C   UNL     1      16.957  38.206  49.057  0.00  0.00    +0.000 C 
BRANCH  18  19
ATOM     19  C   UNL     1      17.070  38.978  47.739  0.00  0.00    +0.000 C 
BRANCH  19  20
ATOM     20  C   UNL     1      15.753  39.003  46.956  0.00  0.00    +0.000 C 
BRANCH  20  31
ATOM     21  O   UNL     1      16.646  39.802  44.249  0.00  0.00    +0.000 OA
ATOM     22  C   UNL     1      16.022  40.524  45.003  0.00  0.00    +0.000 C 
ATOM     23  C   UNL     1      15.629  41.897  44.690  0.00  0.00    +0.000 A 
ATOM     24  C   UNL     1      15.851  42.657  43.559  0.00  0.00    +0.000 A 
ATOM     25  C   UNL     1      15.329  43.954  43.548  0.00  0.00    +0.000 A 
ATOM     26  C   UNL     1      14.606  44.453  44.653  0.00  0.00    +0.000 A 
ATOM     27  C   UNL     1      14.400  43.665  45.789  0.00  0.00    +0.000 A 
ATOM     28  C   UNL     1      14.926  42.388  45.775  0.00  0.00    +0.000 A 
ATOM     29  C   UNL     1      14.881  41.334  46.787  0.00  0.00    +0.000 C 
ATOM     30  O   UNL     1      14.343  41.455  47.871  0.00  0.00    +0.000 OA
ATOM     31  N   UNL     1      15.544  40.259  46.259  0.00  0.00    +0.000 N 
ENDBRANCH  20  31
ENDBRANCH  19  20
ENDBRANCH  18  19
ENDBRANCH  17  18
ENDBRANCH   1  17
TORSDOF 5
ENDMDL
MODEL 2
REMARK VINA RESULT:    -6.687      5.384      9.076
REMARK INTER + INTRA:          -9.747
REMARK INTER:                  -8.886
REMARK INTRA:                  -0.861
REMARK UNBOUND:                -1.105
REMARK  Name = 
REMARK  5 active torsions:
REMARK  status: ('A' for Active; 'I' for Inactive)
REMARK    1  A    between atoms: N_11  and  C_12
REMARK    2  A    between atoms: C_12  and  C_13
REMARK    3  A    between atoms: C_13  and  C_14
REMARK    4  A    between atoms: C_14  and  C_15
REMARK    5  A    between atoms: C_15  and  N_16
REMARK                            x       y       z     vdW  Elec       q    Type
REMARK                         _______ _______ _______ _____ _____    ______ ____
ROOT
ATOM      1  N   UNL     1      12.061  46.182  44.341  0.00  0.00    +0.000 NA
ATOM      2  C   UNL     1      12.555  45.583  45.612  0.00  0.00    +0.000 C 
ATOM      3  C   UNL     1      11.664  46.344  46.611  0.00  0.00    +0.000 C 
ATOM      4  C   UNL     1      11.348  47.686  45.932  0.00  0.00    +0.000 C 
ATOM      5  C   UNL     1      12.118  47.645  44.606  0.00  0.00    +0.000 C 
ATOM      6  C   UNL     1      13.549  48.057  44.819  0.00  0.00    +0.000 A 
ATOM      7  C   UNL     1      14.439  47.218  45.460  0.00  0.00    +0.000 A 
ATOM      8  N   UNL     1      15.655  47.827  45.518  0.00  0.00    +0.000 N 
ATOM      9  C   UNL     1      15.575  49.063  44.905  0.00  0.00    +0.000 A 
ATOM     10  C   UNL     1      16.565  50.034  44.709  0.00  0.00    +0.000 A 
ATOM     11  C   UNL     1      16.199  51.209  44.045  0.00  0.00    +0.000 A 
ATOM     12  C   UNL     1      14.895  51.405  43.595  0.00  0.00    +0.000 A 
ATOM     13  C   UNL     1      13.916  50.425  43.794  0.00  0.00    +0.000 A 
ATOM     14  C   UNL     1      14.258  49.233  44.461  0.00  0.00    +0.000 A 
ATOM     15  C   UNL     1      14.080  45.839  45.912  0.00  0.00    +0.000 C 
ATOM     16  H   UNL     1      16.498  47.436  45.915  0.00  0.00    +0.000 HD
ENDROOT
BRANCH   1  17
ATOM     17  C   UNL     1      12.752  45.704  43.142  0.00  0.00    +0.000 C 
BRANCH  17  18
ATOM     18  C   UNL     1      12.897  44.178  43.095  0.00  0.00    +0.000 C 
BRANCH  18  19
ATOM     19  C   UNL     1      14.150  43.767  42.316  0.00  0.00    +0.000 C 
BRANCH  19  20
ATOM     20  C   UNL     1      15.409  43.753  43.189  0.00  0.00    +0.000 C 
BRANCH  20  31
ATOM     21  O   UNL     1      15.166  42.881  46.009  0.00  0.00    +0.000 OA
ATOM     22  C   UNL     1      15.538  42.162  45.101  0.00  0.00    +0.000 C 
ATOM     23  C   UNL     1      15.932  40.764  45.267  0.00  0.00    +0.000 A 
ATOM     24  C   UNL     1      15.980  39.975  46.400  0.00  0.00    +0.000 A 
ATOM     25  C   UNL     1      16.389  38.648  46.237  0.00  0.00    +0.000 A 
ATOM     26  C   UNL     1      16.734  38.147  44.964  0.00  0.00    +0.000 A 
ATOM     27  C   UNL     1      16.682  38.968  43.833  0.00  0.00    +0.000 A 
ATOM     28  C   UNL     1      16.276  40.275  44.020  0.00  0.00    +0.000 A 
ATOM     29  C   UNL     1      16.115  41.364  43.058  0.00  0.00    +0.000 C 
ATOM     30  O   UNL     1      16.352  41.262  41.870  0.00  0.00    +0.000 OA
ATOM     31  N   UNL     1      15.671  42.448  43.768  0.00  0.00    +0.000 N 
ENDBRANCH  20  31
ENDBRANCH  19  20
ENDBRANCH  18  19
ENDBRANCH  17  18
ENDBRANCH   1  17
TORSDOF 5
ENDMDL
MODEL 3
REMARK VINA RESULT:    -6.589      2.034      2.835
REMARK INTER + INTRA:          -9.620
REMARK INTER:                  -8.515
REMARK INTRA:                  -1.105
REMARK UNBOUND:                -1.105
REMARK  Name = 
REMARK  5 active torsions:
REMARK  status: ('A' for Active; 'I' for Inactive)
REMARK    1  A    between atoms: N_11  and  C_12
REMARK    2  A    between atoms: C_12  and  C_13
REMARK    3  A    between atoms: C_13  and  C_14
REMARK    4  A    between atoms: C_14  and  C_15
REMARK    5  A    between atoms: C_15  and  N_16
REMARK                            x       y       z     vdW  Elec       q    Type
REMARK                         _______ _______ _______ _____ _____    ______ ____
ROOT
ATOM      1  N   UNL     1      13.805  39.131  49.774  0.00  0.00    +0.000 NA
ATOM      2  C   UNL     1      15.105  38.417  49.906  0.00  0.00    +0.000 C 
ATOM      3  C   UNL     1      14.776  37.515  51.111  0.00  0.00    +0.000 C 
ATOM      4  C   UNL     1      13.715  38.285  51.914  0.00  0.00    +0.000 C 
ATOM      5  C   UNL     1      13.533  39.607  51.157  0.00  0.00    +0.000 C 
ATOM      6  C   UNL     1      14.595  40.592  51.564  0.00  0.00    +0.000 A 
ATOM      7  C   UNL     1      15.903  40.434  51.146  0.00  0.00    +0.000 A 
ATOM      8  N   UNL     1      16.651  41.456  51.647  0.00  0.00    +0.000 N 
ATOM      9  C   UNL     1      15.839  42.295  52.386  0.00  0.00    +0.000 A 
ATOM     10  C   UNL     1      16.153  43.475  53.072  0.00  0.00    +0.000 A 
ATOM     11  C   UNL     1      15.118  44.132  53.742  0.00  0.00    +0.000 A 
ATOM     12  C   UNL     1      13.819  43.630  53.727  0.00  0.00    +0.000 A 
ATOM     13  C   UNL     1      13.515  42.453  53.034  0.00  0.00    +0.000 A 
ATOM     14  C   UNL     1      14.541  41.770  52.351  0.00  0.00    +0.000 A 
ATOM     15  C   UNL     1      16.338  39.346  50.219  0.00  0.00    +0.000 C 
ATOM     16  H   UNL     1      17.637  41.604  51.487  0.00  0.00    +0.000 HD
ENDROOT
BRANCH   1  17
ATOM     17  C   UNL     1      13.778  40.141  48.715  0.00  0.00    +0.000 C 
BRANCH  17  18
ATOM     18  C   UNL     1      14.361  39.642  47.388  0.00  0.00    +0.000 C 
BRANCH  18  19
ATOM     19  C   UNL     1      15.051  40.777  46.626  0.00  0.00    +0.000 C 
BRANCH  19  20
ATOM     20  C   UNL     1      14.212  41.295  45.453  0.00  0.00    +0.000 C 
BRANCH  20  31
ATOM     21  O   UNL     1      15.612  43.597  44.225  0.00  0.00    +0.000 OA
ATOM     22  C   UNL     1      14.648  43.697  44.959  0.00  0.00    +0.000 C 
ATOM     23  C   UNL     1      14.042  44.968  45.354  0.00  0.00    +0.000 A 
ATOM     24  C   UNL     1      14.386  46.265  45.024  0.00  0.00    +0.000 A 
ATOM     25  C   UNL     1      13.594  47.289  45.553  0.00  0.00    +0.000 A 
ATOM     26  C   UNL     1      12.493  46.997  46.386  0.00  0.00    +0.000 A 
ATOM     27  C   UNL     1      12.169  45.675  46.708  0.00  0.00    +0.000 A 
ATOM     28  C   UNL     1      12.967  44.682  46.175  0.00  0.00    +0.000 A 
ATOM     29  C   UNL     1      12.892  43.229  46.316  0.00  0.00    +0.000 C 
ATOM     30  O   UNL     1      12.059  42.653  46.989  0.00  0.00    +0.000 OA
ATOM     31  N   UNL     1      13.914  42.712  45.565  0.00  0.00    +0.000 N 
ENDBRANCH  20  31
ENDBRANCH  19  20
ENDBRANCH  18  19
ENDBRANCH  17  18
ENDBRANCH   1  17
TORSDOF 5
ENDMDL
