MODEL 1
REMARK VINA RESULT:    -6.709      0.000      0.000
REMARK INTER + INTRA:         -10.250
REMARK INTER:                  -9.043
REMARK INTRA:                  -1.207
REMARK UNBOUND:                -1.188
REMARK  Name = 
REMARK  7 active torsions:
REMARK  status: ('A' for Active; 'I' for Inactive)
REMARK    1  A    between atoms: C_1  and  C_2
REMARK    2  A    between atoms: C_4  and  C_5
REMARK    3  A    between atoms: C_12  and  C_13
REMARK    4  A    between atoms: C_13  and  C_14
REMARK    5  A    between atoms: N_16  and  C_17
REMARK    6  A    between atoms: C_20  and  C_21
REMARK    7  A    between atoms: C_21  and  C_22
REMARK                            x       y       z     vdW  Elec       q    Type
REMARK                         _______ _______ _______ _____ _____    ______ ____
ROOT
ATOM      1  C   UNL     1      13.831  40.547  48.750  0.00  0.00    +0.000 C 
ATOM      2  O   UNL     1      12.804  40.175  48.192  0.00  0.00    +0.000 OA
ATOM      3  N   UNL     1      14.954  41.097  48.146  0.00  0.00    +0.000 N 
ATOM      4  H   UNL     1      15.733  41.303  48.767  0.00  0.00    +0.000 HD
ENDROOT
BRANCH   3   5
ATOM      5  C   UNL     1      15.182  41.298  46.773  0.00  0.00    +0.000 A 
ATOM      6  C   UNL     1      14.823  42.542  46.246  0.00  0.00    +0.000 A 
ATOM      7  C   UNL     1      15.025  42.831  44.893  0.00  0.00    +0.000 A 
ATOM      8  C   UNL     1      15.608  41.883  44.045  0.00  0.00    +0.000 A 
ATOM      9  C   UNL     1      15.968  40.640  44.574  0.00  0.00    +0.000 A 
ATOM     10  C   UNL     1      15.751  40.350  45.925  0.00  0.00    +0.000 A 
BRANCH   8  11
ATOM     11  C   UNL     1      15.854  42.205  42.588  0.00  0.00    +0.000 C 
BRANCH  11  12
ATOM     12  C   UNL     1      14.557  42.445  41.810  0.00  0.00    +0.000 C 
ATOM     13  S   UNL     1      13.898  40.861  41.172  0.00  0.00    +0.000 S 
ATOM     14  C   UNL     1      13.896  41.402  39.518  0.00  0.00    +0.000 C 
ATOM     15  O   UNL     1      13.447  40.750  38.588  0.00  0.00    +0.000 OA
ATOM     16  N   UNL     1      14.442  42.636  39.426  0.00  0.00    +0.000 N 
ATOM     17  C   UNL     1      14.772  43.297  40.572  0.00  0.00    +0.000 C 
ATOM     18  O   UNL     1      15.170  44.452  40.565  0.00  0.00    +0.000 OA
ATOM     19  H   UNL     1      14.479  43.107  38.535  0.00  0.00    +0.000 HD
ENDBRANCH  11  12
ENDBRANCH   8  11
ENDBRANCH   3   5
BRANCH   1  20
ATOM     20  C   UNL     1      13.962  40.465  50.261  0.00  0.00    +0.000 C 
BRANCH  20  26
ATOM     21  C   UNL     1      16.240  41.819  52.339  0.00  0.00    +0.000 C 
ATOM     22  C   UNL     1      16.226  40.607  51.502  0.00  0.00    +0.000 A 
ATOM     23  O   UNL     1      17.329  39.808  51.556  0.00  0.00    +0.000 OA
ATOM     24  C   UNL     1      17.037  38.758  50.724  0.00  0.00    +0.000 A 
ATOM     25  N   UNL     1      15.844  38.837  50.161  0.00  0.00    +0.000 NA
ATOM     26  C   UNL     1      15.323  40.020  50.644  0.00  0.00    +0.000 A 
BRANCH  24  27
ATOM     27  C   UNL     1      18.062  37.727  50.590  0.00  0.00    +0.000 A 
ATOM     28  C   UNL     1      19.032  37.566  51.592  0.00  0.00    +0.000 A 
ATOM     29  C   UNL     1      20.022  36.585  51.482  0.00  0.00    +0.000 A 
ATOM     30  C   UNL     1      20.057  35.751  50.364  0.00  0.00    +0.000 A 
ATOM     31  C   UNL     1      19.102  35.896  49.361  0.00  0.00    +0.000 A 
ATOM     32  C   UNL     1      18.111  36.877  49.475  0.00  0.00    +0.000 A 
ENDBRANCH  24  27
ENDBRANCH  20  26
ENDBRANCH   1  20
TORSDOF 6
ENDMDL
MODEL 2
REMARK VINA RESULT:    -6.435      2.583      4.438
REMARK INTER + INTRA:          -9.881
REMARK INTER:                  -8.691
REMARK INTRA:                  -1.189
REMARK UNBOUND:                -1.188
REMARK  Name = 
REMARK  7 active torsions:
REMARK  status: ('A' for Active; 'I' for Inactive)
REMARK    1  A    between atoms: C_1  and  C_2
REMARK    2  A    between atoms: C_4  and  C_5
REMARK    3  A    between atoms: C_12  and  C_13
REMARK    4  A    between atoms: C_13  and  C_14
REMARK    5  A    between atoms: N_16  and  C_17
REMARK    6  A    between atoms: C_20  and  C_21
REMARK    7  A    between atoms: C_21  and  C_22
REMARK                            x       y       z     vdW  Elec       q    Type
REMARK                         _______ _______ _______ _____ _____    ______ ____
ROOT
ATOM      1  C   UNL     1      17.783  35.955  47.597  0.00  0.00    +0.000 C 
ATOM      2  O   UNL     1      16.696  35.415  47.419  0.00  0.00    +0.000 OA
ATOM      3  N   UNL     1      18.175  37.206  47.139  0.00  0.00    +0.000 N 
ATOM      4  H   UNL     1      19.136  37.471  47.345  0.00  0.00    +0.000 HD
ENDROOT
BRANCH   3   5
ATOM      5  C   UNL     1      17.444  38.097  46.333  0.00  0.00    +0.000 A 
ATOM      6  C   UNL     1      16.742  39.113  46.988  0.00  0.00    +0.000 A 
ATOM      7  C   UNL     1      15.996  40.048  46.264  0.00  0.00    +0.000 A 
ATOM      8  C   UNL     1      15.955  39.994  44.866  0.00  0.00    +0.000 A 
ATOM      9  C   UNL     1      16.659  38.977  44.213  0.00  0.00    +0.000 A 
ATOM     10  C   UNL     1      17.392  38.035  44.942  0.00  0.00    +0.000 A 
BRANCH   8  11
ATOM     11  C   UNL     1      15.174  41.023  44.081  0.00  0.00    +0.000 C 
BRANCH  11  12
ATOM     12  C   UNL     1      15.943  41.546  42.865  0.00  0.00    +0.000 C 
ATOM     13  S   UNL     1      15.892  43.376  42.822  0.00  0.00    +0.000 S 
ATOM     14  C   UNL     1      15.188  43.426  41.231  0.00  0.00    +0.000 C 
ATOM     15  O   UNL     1      14.992  44.457  40.605  0.00  0.00    +0.000 OA
ATOM     16  N   UNL     1      14.914  42.175  40.798  0.00  0.00    +0.000 N 
ATOM     17  C   UNL     1      15.318  41.114  41.551  0.00  0.00    +0.000 C 
ATOM     18  O   UNL     1      15.196  39.960  41.169  0.00  0.00    +0.000 OA
ATOM     19  H   UNL     1      14.536  42.032  39.874  0.00  0.00    +0.000 HD
ENDBRANCH  11  12
ENDBRANCH   8  11
ENDBRANCH   3   5
BRANCH   1  20
ATOM     20  C   UNL     1      18.860  35.272  48.422  0.00  0.00    +0.000 C 
BRANCH  20  26
ATOM     21  C   UNL     1      21.611  35.527  50.348  0.00  0.00    +0.000 C 
ATOM     22  C   UNL     1      20.255  36.096  50.438  0.00  0.00    +0.000 A 
ATOM     23  O   UNL     1      20.005  36.931  51.486  0.00  0.00    +0.000 OA
ATOM     24  C   UNL     1      18.705  37.331  51.307  0.00  0.00    +0.000 A 
ATOM     25  N   UNL     1      18.130  36.816  50.235  0.00  0.00    +0.000 NA
ATOM     26  C   UNL     1      19.109  36.018  49.678  0.00  0.00    +0.000 A 
BRANCH  24  27
ATOM     27  C   UNL     1      18.163  38.251  52.303  0.00  0.00    +0.000 A 
ATOM     28  C   UNL     1      17.541  37.749  53.457  0.00  0.00    +0.000 A 
ATOM     29  C   UNL     1      17.015  38.613  54.422  0.00  0.00    +0.000 A 
ATOM     30  C   UNL     1      17.102  39.994  54.244  0.00  0.00    +0.000 A 
ATOM     31  C   UNL     1      17.717  40.509  53.107  0.00  0.00    +0.000 A 
ATOM     32  C   UNL     1      18.245  39.643  52.143  0.00  0.00    +0.000 A 
ENDBRANCH  24  27
ENDBRANCH  20  26
ENDBRANCH   1  20
TORSDOF 6
ENDMDL
MODEL 3
REMARK VINA RESULT:    -6.427      1.579      2.146
REMARK INTER + INTRA:          -9.869
REMARK INTER:                  -8.681
REMARK INTRA:                  -1.188
REMARK UNBOUND:                -1.188
REMARK  Name = 
REMARK  7 active torsions:
REMARK  status: ('A' for Active; 'I' for Inactive)
REMARK    1  A    between atoms: C_1  and  C_2
REMARK    2  A    between atoms: C_4  and  C_5
REMARK    3  A    between atoms: C_12  and  C_13
REMARK    4  A    between atoms: C_13  and  C_14
REMARK    5  A    between atoms: N_16  and  C_17
REMARK    6  A    between atoms: C_20  and  C_21
REMARK    7  A    between atoms: C_21  and  C_22
REMARK                            x       y       z     vdW  Elec       q    Type
REMARK                         _______ _______ _______ _____ _____    ______ ____
ROOT
ATOM      1  C   UNL     1      14.626  38.757  49.162  0.00  0.00    +0.000 C 
ATOM      2  O   UNL     1      13.583  38.387  48.631  0.00  0.00    +0.000 OA
ATOM      3  N   UNL     1      15.681  39.421  48.550  0.00  0.00    +0.000 N 
ATOM      4  H   UNL     1      16.488  39.607  49.142  0.00  0.00    +0.000 HD
ENDROOT
BRANCH   3   5
ATOM      5  C   UNL     1      15.812  39.765  47.193  0.00  0.00    +0.000 A 
ATOM      6  C   UNL     1      15.208  40.957  46.780  0.00  0.00    +0.000 A 
ATOM      7  C   UNL     1      15.297  41.380  45.451  0.00  0.00    +0.000 A 
ATOM      8  C   UNL     1      16.009  40.625  44.512  0.00  0.00    +0.000 A 
ATOM      9  C   UNL     1      16.613  39.434  44.927  0.00  0.00    +0.000 A 
ATOM     10  C   UNL     1      16.510  39.007  46.255  0.00  0.00    +0.000 A 
BRANCH   8  11
ATOM     11  C   UNL     1      16.131  41.097  43.081  0.00  0.00    +0.000 C 
BRANCH  11  12
ATOM     12  C   UNL     1      15.052  42.115  42.702  0.00  0.00    +0.000 C 
ATOM     13  S   UNL     1      14.431  41.781  41.012  0.00  0.00    +0.000 S 
ATOM     14  C   UNL     1      14.823  43.376  40.436  0.00  0.00    +0.000 C 
ATOM     15  O   UNL     1      14.537  43.788  39.322  0.00  0.00    +0.000 OA
ATOM     16  N   UNL     1      15.463  44.080  41.397  0.00  0.00    +0.000 N 
ATOM     17  C   UNL     1      15.588  43.534  42.640  0.00  0.00    +0.000 C 
ATOM     18  O   UNL     1      16.060  44.156  43.579  0.00  0.00    +0.000 OA
ATOM     19  H   UNL     1      15.725  45.039  41.231  0.00  0.00    +0.000 HD
ENDBRANCH  11  12
ENDBRANCH   8  11
ENDBRANCH   3   5
BRANCH   1  20
ATOM     20  C   UNL     1      14.857  38.537  50.647  0.00  0.00    +0.000 C 
BRANCH  20  26
ATOM     21  C   UNL     1      16.962  39.942  52.868  0.00  0.00    +0.000 C 
ATOM     22  C   UNL     1      17.121  38.895  51.845  0.00  0.00    +0.000 A 
ATOM     23  O   UNL     1      18.350  38.313  51.743  0.00  0.00    +0.000 OA
ATOM     24  C   UNL     1      18.206  37.371  50.757  0.00  0.00    +0.000 A 
ATOM     25  N   UNL     1      16.990  37.318  50.240  0.00  0.00    +0.000 NA
ATOM     26  C   UNL     1      16.293  38.295  50.923  0.00  0.00    +0.000 A 
BRANCH  24  27
ATOM     27  C   UNL     1      19.389  36.579  50.433  0.00  0.00    +0.000 A 
ATOM     28  C   UNL     1      19.417  35.804  49.263  0.00  0.00    +0.000 A 
ATOM     29  C   UNL     1      20.540  35.039  48.936  0.00  0.00    +0.000 A 
ATOM     30  C   UNL     1      21.653  35.038  49.777  0.00  0.00    +0.000 A 
ATOM     31  C   UNL     1      21.643  35.802  50.940  0.00  0.00    +0.000 A 
ATOM     32  C   UNL     1      20.519  36.569  51.265  0.00  0.00    +0.000 A 
ENDBRANCH  24  27
ENDBRANCH  20  26
ENDBRANCH   1  20
TORSDOF 6
ENDMDL
