MODEL 1
REMARK VINA RESULT:    -7.343      0.000      0.000
REMARK INTER + INTRA:          -9.747
REMARK INTER:                  -8.636
REMARK INTRA:                  -1.112
REMARK UNBOUND:                -1.116
REMARK  Name = 
REMARK  3 active torsions:
REMARK  status: ('A' for Active; 'I' for Inactive)
REMARK    1  A    between atoms: C_2  and  C_25
REMARK    2  A    between atoms: N_3  and  C_4
REMARK    3  A    between atoms: C_6  and  C_7
REMARK                            x       y       z     vdW  Elec       q    Type
REMARK                         _______ _______ _______ _____ _____    ______ ____
ROOT
ATOM      1  C   UNL     1      13.818  47.412  44.678  0.00  0.00    +0.000 C 
ATOM      2  N   UNL     1      14.852  48.404  44.891  0.00  0.00    +0.000 NA
ATOM      3  C   UNL     1      14.595  49.641  44.631  0.00  0.00    +0.000 C 
ATOM      4  C   UNL     1      13.278  50.200  44.166  0.00  0.00    +0.000 A 
ATOM      5  C   UNL     1      13.318  51.239  43.219  0.00  0.00    +0.000 A 
ATOM      6  C   UNL     1      12.156  51.919  42.854  0.00  0.00    +0.000 A 
ATOM      7  C   UNL     1      10.940  51.577  43.435  0.00  0.00    +0.000 A 
ATOM      8  C   UNL     1      10.874  50.538  44.363  0.00  0.00    +0.000 A 
ATOM      9  C   UNL     1      12.035  49.826  44.715  0.00  0.00    +0.000 A 
ATOM     10  N   UNL     1      11.917  48.733  45.603  0.00  0.00    +0.000 N 
ATOM     11  C   UNL     1      10.953  48.508  46.552  0.00  0.00    +0.000 A 
ATOM     12  N   UNL     1      11.212  47.403  47.213  0.00  0.00    +0.000 NA
ATOM     13  N   UNL     1      12.339  46.849  46.663  0.00  0.00    +0.000 NA
ATOM     14  C   UNL     1      12.729  47.627  45.669  0.00  0.00    +0.000 A 
ENDROOT
BRANCH   3  15
ATOM     15  C   UNL     1      15.703  50.606  44.864  0.00  0.00    +0.000 A 
ATOM     16  C   UNL     1      16.886  50.503  44.123  0.00  0.00    +0.000 A 
ATOM     17  C   UNL     1      17.916  51.422  44.339  0.00  0.00    +0.000 A 
ATOM     18  C   UNL     1      17.763  52.438  45.286  0.00  0.00    +0.000 A 
ATOM     19  C   UNL     1      16.581  52.538  46.020  0.00  0.00    +0.000 A 
ATOM     20  C   UNL     1      15.553  51.623  45.805  0.00  0.00    +0.000 A 
ATOM     21  F   UNL     1      14.442  51.717  46.548  0.00  0.00    +0.000 F 
ENDBRANCH   3  15
BRANCH   1  24
ATOM     22  O   UNL     1      13.762  45.214  42.956  0.00  0.00    +0.000 OA
ATOM     23  C   UNL     1      14.231  45.081  44.082  0.00  0.00    +0.000 C 
ATOM     24  N   UNL     1      14.423  46.143  44.928  0.00  0.00    +0.000 N 
ATOM     25  H   UNL     1      14.849  46.037  45.831  0.00  0.00    +0.000 HD
BRANCH  23  26
ATOM     26  C   UNL     1      14.648  43.806  44.620  0.00  0.00    +0.000 A 
ATOM     27  C   UNL     1      14.518  43.341  45.917  0.00  0.00    +0.000 A 
ATOM     28  C   UNL     1      15.083  42.038  45.990  0.00  0.00    +0.000 A 
ATOM     29  C   UNL     1      15.223  41.086  47.017  0.00  0.00    +0.000 A 
ATOM     30  C   UNL     1      15.860  39.871  46.740  0.00  0.00    +0.000 A 
ATOM     31  C   UNL     1      16.355  39.602  45.466  0.00  0.00    +0.000 A 
ATOM     32  C   UNL     1      16.229  40.535  44.431  0.00  0.00    +0.000 A 
ATOM     33  C   UNL     1      15.584  41.742  44.725  0.00  0.00    +0.000 A 
ATOM     34  N   UNL     1      15.330  42.831  43.925  0.00  0.00    +0.000 N 
ATOM     35  H   UNL     1      15.645  42.923  42.969  0.00  0.00    +0.000 HD
ENDBRANCH  23  26
ENDBRANCH   1  24
TORSDOF 3
ENDMDL
MODEL 2
REMARK VINA RESULT:    -6.896      3.207      9.940
REMARK INTER + INTRA:          -9.222
REMARK INTER:                  -8.062
REMARK INTRA:                  -1.160
REMARK UNBOUND:                -1.116
REMARK  Name = 
REMARK  3 active torsions:
REMARK  status: ('A' for Active; 'I' for Inactive)
REMARK    1  A    between atoms: C_2  and  C_25
REMARK    2  A    between atoms: N_3  and  C_4
REMARK    3  A    between atoms: C_6  and  C_7
REMARK                            x       y       z     vdW  Elec       q    Type
REMARK                         _______ _______ _______ _____ _____    ______ ____
ROOT
ATOM      1  C   UNL     1      14.699  42.318  45.322  0.00  0.00    +0.000 C 
ATOM      2  N   UNL     1      15.144  41.689  46.549  0.00  0.00    +0.000 NA
ATOM      3  C   UNL     1      15.117  40.402  46.638  0.00  0.00    +0.000 C 
ATOM      4  C   UNL     1      14.711  39.442  45.554  0.00  0.00    +0.000 A 
ATOM      5  C   UNL     1      13.985  38.302  45.943  0.00  0.00    +0.000 A 
ATOM      6  C   UNL     1      13.708  37.285  45.029  0.00  0.00    +0.000 A 
ATOM      7  C   UNL     1      14.159  37.387  43.717  0.00  0.00    +0.000 A 
ATOM      8  C   UNL     1      14.865  38.518  43.305  0.00  0.00    +0.000 A 
ATOM      9  C   UNL     1      15.123  39.562  44.211  0.00  0.00    +0.000 A 
ATOM     10  N   UNL     1      15.778  40.723  43.739  0.00  0.00    +0.000 N 
ATOM     11  C   UNL     1      16.622  40.846  42.666  0.00  0.00    +0.000 A 
ATOM     12  N   UNL     1      17.068  42.078  42.575  0.00  0.00    +0.000 NA
ATOM     13  N   UNL     1      16.471  42.807  43.572  0.00  0.00    +0.000 NA
ATOM     14  C   UNL     1      15.664  41.998  44.236  0.00  0.00    +0.000 A 
ENDROOT
BRANCH   3  15
ATOM     15  C   UNL     1      15.580  39.822  47.927  0.00  0.00    +0.000 A 
ATOM     16  C   UNL     1      14.828  40.019  49.091  0.00  0.00    +0.000 A 
ATOM     17  C   UNL     1      15.264  39.459  50.295  0.00  0.00    +0.000 A 
ATOM     18  C   UNL     1      16.439  38.706  50.334  0.00  0.00    +0.000 A 
ATOM     19  C   UNL     1      17.184  38.510  49.170  0.00  0.00    +0.000 A 
ATOM     20  C   UNL     1      16.750  39.067  47.969  0.00  0.00    +0.000 A 
ATOM     21  F   UNL     1      17.502  38.897  46.873  0.00  0.00    +0.000 F 
ENDBRANCH   3  15
BRANCH   1  24
ATOM     22  O   UNL     1      12.551  43.857  46.229  0.00  0.00    +0.000 OA
ATOM     23  C   UNL     1      13.586  44.417  45.880  0.00  0.00    +0.000 C 
ATOM     24  N   UNL     1      14.725  43.726  45.561  0.00  0.00    +0.000 N 
ATOM     25  H   UNL     1      15.582  44.189  45.320  0.00  0.00    +0.000 HD
BRANCH  23  26
ATOM     26  C   UNL     1      13.715  45.854  45.792  0.00  0.00    +0.000 A 
ATOM     27  C   UNL     1      12.762  46.818  46.070  0.00  0.00    +0.000 A 
ATOM     28  C   UNL     1      13.329  48.099  45.829  0.00  0.00    +0.000 A 
ATOM     29  C   UNL     1      12.857  49.420  45.950  0.00  0.00    +0.000 A 
ATOM     30  C   UNL     1      13.701  50.482  45.607  0.00  0.00    +0.000 A 
ATOM     31  C   UNL     1      14.994  50.242  45.147  0.00  0.00    +0.000 A 
ATOM     32  C   UNL     1      15.483  48.938  45.016  0.00  0.00    +0.000 A 
ATOM     33  C   UNL     1      14.627  47.889  45.370  0.00  0.00    +0.000 A 
ATOM     34  N   UNL     1      14.827  46.529  45.335  0.00  0.00    +0.000 N 
ATOM     35  H   UNL     1      15.659  46.083  44.975  0.00  0.00    +0.000 HD
ENDBRANCH  23  26
ENDBRANCH   1  24
TORSDOF 3
ENDMDL
MODEL 3
REMARK VINA RESULT:    -6.661      3.272      9.262
REMARK INTER + INTRA:          -8.945
REMARK INTER:                  -7.830
REMARK INTRA:                  -1.116
REMARK UNBOUND:                -1.116
REMARK  Name = 
REMARK  3 active torsions:
REMARK  status: ('A' for Active; 'I' for Inactive)
REMARK    1  A    between atoms: C_2  and  C_25
REMARK    2  A    between atoms: N_3  and  C_4
REMARK    3  A    between atoms: C_6  and  C_7
REMARK                            x       y       z     vdW  Elec       q    Type
REMARK                         _______ _______ _______ _____ _____    ______ ____
ROOT
ATOM      1  C   UNL     1      14.035  43.626  43.710  0.00  0.00    +0.000 C 
ATOM      2  N   UNL     1      14.819  42.686  44.484  0.00  0.00    +0.000 NA
ATOM      3  C   UNL     1      14.549  41.427  44.401  0.00  0.00    +0.000 C 
ATOM      4  C   UNL     1      13.508  40.795  43.517  0.00  0.00    +0.000 A 
ATOM      5  C   UNL     1      12.792  39.706  44.044  0.00  0.00    +0.000 A 
ATOM      6  C   UNL     1      11.926  38.964  43.240  0.00  0.00    +0.000 A 
ATOM      7  C   UNL     1      11.769  39.294  41.898  0.00  0.00    +0.000 A 
ATOM      8  C   UNL     1      12.457  40.382  41.359  0.00  0.00    +0.000 A 
ATOM      9  C   UNL     1      13.308  41.154  42.169  0.00  0.00    +0.000 A 
ATOM     10  N   UNL     1      13.931  42.292  41.606  0.00  0.00    +0.000 N 
ATOM     11  C   UNL     1      14.226  42.537  40.289  0.00  0.00    +0.000 A 
ATOM     12  N   UNL     1      14.849  43.686  40.167  0.00  0.00    +0.000 NA
ATOM     13  N   UNL     1      14.925  44.248  41.415  0.00  0.00    +0.000 NA
ATOM     14  C   UNL     1      14.332  43.429  42.265  0.00  0.00    +0.000 A 
ENDROOT
BRANCH   3  15
ATOM     15  C   UNL     1      15.386  40.518  45.229  0.00  0.00    +0.000 A 
ATOM     16  C   UNL     1      15.216  40.484  46.618  0.00  0.00    +0.000 A 
ATOM     17  C   UNL     1      15.997  39.617  47.386  0.00  0.00    +0.000 A 
ATOM     18  C   UNL     1      16.939  38.789  46.770  0.00  0.00    +0.000 A 
ATOM     19  C   UNL     1      17.103  38.825  45.385  0.00  0.00    +0.000 A 
ATOM     20  C   UNL     1      16.323  39.688  44.618  0.00  0.00    +0.000 A 
ATOM     21  F   UNL     1      16.525  39.732  43.294  0.00  0.00    +0.000 F 
ENDBRANCH   3  15
BRANCH   1  24
ATOM     22  O   UNL     1      13.180  45.031  45.967  0.00  0.00    +0.000 OA
ATOM     23  C   UNL     1      13.901  45.593  45.149  0.00  0.00    +0.000 C 
ATOM     24  N   UNL     1      14.475  44.929  44.096  0.00  0.00    +0.000 N 
ATOM     25  H   UNL     1      15.100  45.382  43.455  0.00  0.00    +0.000 HD
BRANCH  23  26
ATOM     26  C   UNL     1      14.237  46.997  45.223  0.00  0.00    +0.000 A 
ATOM     27  C   UNL     1      13.388  48.070  45.430  0.00  0.00    +0.000 A 
ATOM     28  C   UNL     1      14.156  49.266  45.412  0.00  0.00    +0.000 A 
ATOM     29  C   UNL     1      13.852  50.630  45.580  0.00  0.00    +0.000 A 
ATOM     30  C   UNL     1      14.879  51.576  45.487  0.00  0.00    +0.000 A 
ATOM     31  C   UNL     1      16.189  51.179  45.228  0.00  0.00    +0.000 A 
ATOM     32  C   UNL     1      16.514  49.830  45.055  0.00  0.00    +0.000 A 
ATOM     33  C   UNL     1      15.475  48.898  45.157  0.00  0.00    +0.000 A 
ATOM     34  N   UNL     1      15.493  47.529  45.025  0.00  0.00    +0.000 N 
ATOM     35  H   UNL     1      16.308  46.991  44.768  0.00  0.00    +0.000 HD
ENDBRANCH  23  26
ENDBRANCH   1  24
TORSDOF 3
ENDMDL
