MODEL 1
REMARK VINA RESULT:    -6.885      0.000      0.000
REMARK INTER + INTRA:          -9.569
REMARK INTER:                  -8.588
REMARK INTRA:                  -0.981
REMARK UNBOUND:                -0.872
REMARK  Name = 
REMARK  5 active torsions:
REMARK  status: ('A' for Active; 'I' for Inactive)
REMARK    1  A    between atoms: C_2  and  O_3
REMARK    2  A    between atoms: C_2  and  C_4
REMARK    3  A    between atoms: C_7  and  C_8
REMARK    4  A    between atoms: N_15  and  C_16
REMARK    5  A    between atoms: C_16  and  C_17
REMARK                            x       y       z     vdW  Elec       q    Type
REMARK                         _______ _______ _______ _____ _____    ______ ____
ROOT
ATOM      1  C   UNL     1      17.167  39.151  53.281  0.00  0.00    +0.000 A 
ATOM      2  C   UNL     1      17.019  38.186  54.286  0.00  0.00    +0.000 A 
ATOM      3  C   UNL     1      17.598  36.914  54.189  0.00  0.00    +0.000 A 
ATOM      4  C   UNL     1      18.345  36.613  53.041  0.00  0.00    +0.000 A 
ATOM      5  C   UNL     1      18.518  37.547  52.015  0.00  0.00    +0.000 A 
ATOM      6  C   UNL     1      19.317  36.937  51.012  0.00  0.00    +0.000 A 
ATOM      7  C   UNL     1      19.618  35.664  51.435  0.00  0.00    +0.000 A 
ATOM      8  N   UNL     1      19.019  35.469  52.657  0.00  0.00    +0.000 N 
ATOM      9  C   UNL     1      17.923  38.821  52.140  0.00  0.00    +0.000 A 
ENDROOT
BRANCH   1  13
ATOM     10  C   UNL     1      15.359  43.033  53.661  0.00  0.00    +0.000 A 
ATOM     11  C   UNL     1      16.089  42.706  52.515  0.00  0.00    +0.000 A 
ATOM     12  C   UNL     1      16.676  41.441  52.394  0.00  0.00    +0.000 A 
ATOM     13  C   UNL     1      16.548  40.480  53.411  0.00  0.00    +0.000 A 
ATOM     14  C   UNL     1      15.812  40.826  54.557  0.00  0.00    +0.000 A 
ATOM     15  C   UNL     1      15.222  42.088  54.683  0.00  0.00    +0.000 A 
BRANCH  10  17
ATOM     16  O   UNL     1      13.527  44.561  53.983  0.00  0.00    +0.000 OA
ATOM     17  C   UNL     1      14.718  44.358  53.837  0.00  0.00    +0.000 C 
BRANCH  17  18
ATOM     18  O   UNL     1      15.600  45.373  53.820  0.00  0.00    +0.000 OA
ATOM     19  H   UNL     1      15.055  46.159  54.030  0.00  0.00    +0.000 HD
ENDBRANCH  17  18
ENDBRANCH  10  17
ENDBRANCH   1  13
BRANCH   8  20
ATOM     20  C   UNL     1      19.143  34.241  53.437  0.00  0.00    +0.000 C 
BRANCH  20  21
ATOM     21  C   UNL     1      20.276  34.312  54.430  0.00  0.00    +0.000 A 
ATOM     22  C   UNL     1      20.035  34.617  55.778  0.00  0.00    +0.000 A 
ATOM     23  C   UNL     1      21.090  34.689  56.690  0.00  0.00    +0.000 A 
ATOM     24  C   UNL     1      22.396  34.459  56.266  0.00  0.00    +0.000 A 
ATOM     25  C   UNL     1      22.650  34.155  54.929  0.00  0.00    +0.000 A 
ATOM     26  C   UNL     1      21.598  34.083  54.016  0.00  0.00    +0.000 A 
ENDBRANCH  20  21
ENDBRANCH   8  20
TORSDOF 5
ENDMDL
MODEL 2
REMARK VINA RESULT:    -6.433      5.031      9.098
REMARK INTER + INTRA:          -8.998
REMARK INTER:                  -8.111
REMARK INTRA:                  -0.886
REMARK UNBOUND:                -0.872
REMARK  Name = 
REMARK  5 active torsions:
REMARK  status: ('A' for Active; 'I' for Inactive)
REMARK    1  A    between atoms: C_2  and  O_3
REMARK    2  A    between atoms: C_2  and  C_4
REMARK    3  A    between atoms: C_7  and  C_8
REMARK    4  A    between atoms: N_15  and  C_16
REMARK    5  A    between atoms: C_16  and  C_17
REMARK                            x       y       z     vdW  Elec       q    Type
REMARK                         _______ _______ _______ _____ _____    ______ ____
ROOT
ATOM      1  C   UNL     1      18.538  37.290  51.141  0.00  0.00    +0.000 A 
ATOM      2  C   UNL     1      17.635  37.963  50.306  0.00  0.00    +0.000 A 
ATOM      3  C   UNL     1      16.582  38.735  50.816  0.00  0.00    +0.000 A 
ATOM      4  C   UNL     1      16.442  38.824  52.208  0.00  0.00    +0.000 A 
ATOM      5  C   UNL     1      17.322  38.170  53.076  0.00  0.00    +0.000 A 
ATOM      6  C   UNL     1      16.910  38.463  54.403  0.00  0.00    +0.000 A 
ATOM      7  C   UNL     1      15.808  39.282  54.327  0.00  0.00    +0.000 A 
ATOM      8  N   UNL     1      15.522  39.488  52.999  0.00  0.00    +0.000 N 
ATOM      9  C   UNL     1      18.372  37.399  52.534  0.00  0.00    +0.000 A 
ENDROOT
BRANCH   1  13
ATOM     10  C   UNL     1      21.742  34.945  49.494  0.00  0.00    +0.000 A 
ATOM     11  C   UNL     1      21.904  35.594  50.721  0.00  0.00    +0.000 A 
ATOM     12  C   UNL     1      20.859  36.356  51.255  0.00  0.00    +0.000 A 
ATOM     13  C   UNL     1      19.635  36.487  50.576  0.00  0.00    +0.000 A 
ATOM     14  C   UNL     1      19.489  35.829  49.344  0.00  0.00    +0.000 A 
ATOM     15  C   UNL     1      20.531  35.065  48.805  0.00  0.00    +0.000 A 
BRANCH  10  17
ATOM     16  O   UNL     1      22.755  32.937  48.634  0.00  0.00    +0.000 OA
ATOM     17  C   UNL     1      22.819  34.126  48.886  0.00  0.00    +0.000 C 
BRANCH  17  18
ATOM     18  O   UNL     1      23.930  34.835  48.621  0.00  0.00    +0.000 OA
ATOM     19  H   UNL     1      23.747  35.236  47.747  0.00  0.00    +0.000 HD
ENDBRANCH  17  18
ENDBRANCH  10  17
ENDBRANCH   1  13
BRANCH   8  20
ATOM     20  C   UNL     1      14.434  40.337  52.523  0.00  0.00    +0.000 C 
BRANCH  20  21
ATOM     21  C   UNL     1      14.664  41.791  52.850  0.00  0.00    +0.000 A 
ATOM     22  C   UNL     1      13.644  42.574  53.412  0.00  0.00    +0.000 A 
ATOM     23  C   UNL     1      13.861  43.921  53.704  0.00  0.00    +0.000 A 
ATOM     24  C   UNL     1      15.098  44.503  53.438  0.00  0.00    +0.000 A 
ATOM     25  C   UNL     1      16.120  43.738  52.879  0.00  0.00    +0.000 A 
ATOM     26  C   UNL     1      15.905  42.391  52.585  0.00  0.00    +0.000 A 
ENDBRANCH  20  21
ENDBRANCH   8  20
TORSDOF 5
ENDMDL
MODEL 3
REMARK VINA RESULT:    -6.289      5.065      9.045
REMARK INTER + INTRA:          -8.816
REMARK INTER:                  -7.944
REMARK INTRA:                  -0.872
REMARK UNBOUND:                -0.872
REMARK  Name = 
REMARK  5 active torsions:
REMARK  status: ('A' for Active; 'I' for Inactive)
REMARK    1  A    between atoms: C_2  and  O_3
REMARK    2  A    between atoms: C_2  and  C_4
REMARK    3  A    between atoms: C_7  and  C_8
REMARK    4  A    between atoms: N_15  and  C_16
REMARK    5  A    between atoms: C_16  and  C_17
REMARK                            x       y       z     vdW  Elec       q    Type
REMARK                         _______ _______ _______ _____ _____    ______ ____
ROOT
ATOM      1  C   UNL     1      18.256  37.496  50.967  0.00  0.00    +0.000 A 
ATOM      2  C   UNL     1      17.988  37.833  52.300  0.00  0.00    +0.000 A 
ATOM      3  C   UNL     1      16.893  38.629  52.662  0.00  0.00    +0.000 A 
ATOM      4  C   UNL     1      16.049  39.095  51.644  0.00  0.00    +0.000 A 
ATOM      5  C   UNL     1      16.279  38.780  50.301  0.00  0.00    +0.000 A 
ATOM      6  C   UNL     1      15.254  39.396  49.536  0.00  0.00    +0.000 A 
ATOM      7  C   UNL     1      14.425  40.062  50.408  0.00  0.00    +0.000 A 
ATOM      8  N   UNL     1      14.916  39.887  51.680  0.00  0.00    +0.000 N 
ATOM      9  C   UNL     1      17.390  37.977  49.967  0.00  0.00    +0.000 A 
ENDROOT
BRANCH   1  13
ATOM     10  C   UNL     1      21.638  35.047  49.944  0.00  0.00    +0.000 A 
ATOM     11  C   UNL     1      20.507  35.064  49.122  0.00  0.00    +0.000 A 
ATOM     12  C   UNL     1      19.408  35.863  49.458  0.00  0.00    +0.000 A 
ATOM     13  C   UNL     1      19.414  36.657  50.617  0.00  0.00    +0.000 A 
ATOM     14  C   UNL     1      20.558  36.627  51.432  0.00  0.00    +0.000 A 
ATOM     15  C   UNL     1      21.660  35.831  51.102  0.00  0.00    +0.000 A 
BRANCH  10  17
ATOM     16  O   UNL     1      23.889  34.627  49.200  0.00  0.00    +0.000 OA
ATOM     17  C   UNL     1      22.827  34.218  49.632  0.00  0.00    +0.000 C 
BRANCH  17  18
ATOM     18  O   UNL     1      22.632  32.910  49.875  0.00  0.00    +0.000 OA
ATOM     19  H   UNL     1      22.573  32.861  50.852  0.00  0.00    +0.000 HD
ENDBRANCH  17  18
ENDBRANCH  10  17
ENDBRANCH   1  13
BRANCH   8  20
ATOM     20  C   UNL     1      14.279  40.422  52.879  0.00  0.00    +0.000 C 
BRANCH  20  21
ATOM     21  C   UNL     1      14.573  41.889  53.072  0.00  0.00    +0.000 A 
ATOM     22  C   UNL     1      13.582  42.769  53.529  0.00  0.00    +0.000 A 
ATOM     23  C   UNL     1      13.859  44.127  53.697  0.00  0.00    +0.000 A 
ATOM     24  C   UNL     1      15.129  44.620  53.409  0.00  0.00    +0.000 A 
ATOM     25  C   UNL     1      16.124  43.758  52.953  0.00  0.00    +0.000 A 
ATOM     26  C   UNL     1      15.849  42.400  52.784  0.00  0.00    +0.000 A 
ENDBRANCH  20  21
ENDBRANCH   8  20
TORSDOF 5
ENDMDL
