MODEL 1
REMARK VINA RESULT:    -6.290      0.000      0.000
REMARK INTER + INTRA:         -12.078
REMARK INTER:                 -10.209
REMARK INTRA:                  -1.869
REMARK UNBOUND:                -2.662
REMARK  Name = 
REMARK  9 active torsions:
REMARK  status: ('A' for Active; 'I' for Inactive)
REMARK    1  A    between atoms: C_2  and  O_3
REMARK    2  A    between atoms: C_2  and  C_4
REMARK    3  A    between atoms: C_7  and  C_8
REMARK    4  A    between atoms: C_8  and  O_9
REMARK    5  A    between atoms: O_9  and  C_10
REMARK    6  A    between atoms: C_10  and  C_12
REMARK    7  A    between atoms: C_13  and  C_14
REMARK    8  A    between atoms: C_14  and  C_15
REMARK    9  A    between atoms: C_24  and  C_26
REMARK                            x       y       z     vdW  Elec       q    Type
REMARK                         _______ _______ _______ _____ _____    ______ ____
ROOT
ATOM      1  C   UNL     1      16.634  37.380  53.152  0.00  0.00    +0.000 C 
ATOM      2  C   UNL     1      17.378  37.655  51.822  0.00  0.00    +0.000 C 
ATOM      3  C   UNL     1      16.490  38.913  51.759  0.00  0.00    +0.000 C 
ATOM      4  O   UNL     1      16.285  39.787  50.948  0.00  0.00    +0.000 OA
ATOM      5  N   UNL     1      16.073  38.756  53.053  0.00  0.00    +0.000 N 
ATOM      6  C   UNL     1      14.779  39.052  53.435  0.00  0.00    +0.000 C 
ATOM      7  O   UNL     1      13.980  38.177  53.764  0.00  0.00    +0.000 OA
ENDROOT
BRANCH   6   8
ATOM      8  C   UNL     1      14.374  40.488  53.457  0.00  0.00    +0.000 A 
ATOM      9  C   UNL     1      15.217  41.406  54.099  0.00  0.00    +0.000 A 
ATOM     10  C   UNL     1      14.893  42.763  54.126  0.00  0.00    +0.000 A 
ATOM     11  C   UNL     1      13.728  43.213  53.507  0.00  0.00    +0.000 A 
ATOM     12  C   UNL     1      12.888  42.309  52.857  0.00  0.00    +0.000 A 
ATOM     13  C   UNL     1      13.212  40.950  52.826  0.00  0.00    +0.000 A 
ENDBRANCH   6   8
BRANCH   1  14
ATOM     14  C   UNL     1      17.444  37.132  54.455  0.00  0.00    +0.000 C 
ATOM     15  O   UNL     1      17.554  37.932  55.382  0.00  0.00    +0.000 OA
BRANCH  14  16
ATOM     16  O   UNL     1      18.040  35.903  54.445  0.00  0.00    +0.000 OA
BRANCH  16  17
ATOM     17  C   UNL     1      18.458  35.397  55.719  0.00  0.00    +0.000 C 
BRANCH  17  21
ATOM     18  C   UNL     1      22.550  34.040  55.447  0.00  0.00    +0.000 A 
ATOM     19  C   UNL     1      21.771  34.167  54.290  0.00  0.00    +0.000 A 
ATOM     20  C   UNL     1      20.446  34.601  54.378  0.00  0.00    +0.000 A 
ATOM     21  C   UNL     1      19.880  34.908  55.624  0.00  0.00    +0.000 A 
ATOM     22  C   UNL     1      20.667  34.789  56.778  0.00  0.00    +0.000 A 
ATOM     23  C   UNL     1      21.994  34.356  56.691  0.00  0.00    +0.000 A 
BRANCH  18  25
ATOM     24  O   UNL     1      24.547  33.416  54.255  0.00  0.00    +0.000 OA
ATOM     25  C   UNL     1      23.952  33.578  55.304  0.00  0.00    +0.000 C 
BRANCH  25  26
ATOM     26  O   UNL     1      24.545  33.335  56.486  0.00  0.00    +0.000 OA
ATOM     27  H   UNL     1      24.459  34.183  56.969  0.00  0.00    +0.000 HD
ENDBRANCH  25  26
ENDBRANCH  18  25
ENDBRANCH  17  21
ENDBRANCH  16  17
ENDBRANCH  14  16
ENDBRANCH   1  14
BRANCH   2  28
ATOM     28  C   UNL     1      18.878  37.915  51.871  0.00  0.00    +0.000 C 
BRANCH  28  29
ATOM     29  C   UNL     1      19.613  36.862  51.079  0.00  0.00    +0.000 A 
ATOM     30  C   UNL     1      20.935  36.521  51.397  0.00  0.00    +0.000 A 
ATOM     31  C   UNL     1      21.618  35.562  50.648  0.00  0.00    +0.000 A 
ATOM     32  C   UNL     1      20.988  34.933  49.576  0.00  0.00    +0.000 A 
ATOM     33  C   UNL     1      19.675  35.265  49.250  0.00  0.00    +0.000 A 
ATOM     34  C   UNL     1      18.991  36.226  49.995  0.00  0.00    +0.000 A 
ENDBRANCH  28  29
ENDBRANCH   2  28
TORSDOF 9
ENDMDL
MODEL 2
REMARK VINA RESULT:    -6.137     11.565     14.570
REMARK INTER + INTRA:         -11.849
REMARK INTER:                  -8.311
REMARK INTRA:                  -3.539
REMARK UNBOUND:                -2.662
REMARK  Name = 
REMARK  9 active torsions:
REMARK  status: ('A' for Active; 'I' for Inactive)
REMARK    1  A    between atoms: C_2  and  O_3
REMARK    2  A    between atoms: C_2  and  C_4
REMARK    3  A    between atoms: C_7  and  C_8
REMARK    4  A    between atoms: C_8  and  O_9
REMARK    5  A    between atoms: O_9  and  C_10
REMARK    6  A    between atoms: C_10  and  C_12
REMARK    7  A    between atoms: C_13  and  C_14
REMARK    8  A    between atoms: C_14  and  C_15
REMARK    9  A    between atoms: C_24  and  C_26
REMARK                            x       y       z     vdW  Elec       q    Type
REMARK                         _______ _______ _______ _____ _____    ______ ____
ROOT
ATOM      1  C   UNL     1      13.064  47.387  44.129  0.00  0.00    +0.000 C 
ATOM      2  C   UNL     1      14.257  46.492  44.546  0.00  0.00    +0.000 C 
ATOM      3  C   UNL     1      14.863  47.803  45.079  0.00  0.00    +0.000 C 
ATOM      4  O   UNL     1      15.926  48.136  45.551  0.00  0.00    +0.000 OA
ATOM      5  N   UNL     1      13.681  48.478  44.934  0.00  0.00    +0.000 N 
ATOM      6  C   UNL     1      13.649  49.798  44.528  0.00  0.00    +0.000 C 
ATOM      7  O   UNL     1      13.216  50.132  43.427  0.00  0.00    +0.000 OA
ENDROOT
BRANCH   6   8
ATOM      8  C   UNL     1      14.142  50.830  45.488  0.00  0.00    +0.000 A 
ATOM      9  C   UNL     1      13.329  51.163  46.580  0.00  0.00    +0.000 A 
ATOM     10  C   UNL     1      13.757  52.105  47.517  0.00  0.00    +0.000 A 
ATOM     11  C   UNL     1      15.002  52.715  47.372  0.00  0.00    +0.000 A 
ATOM     12  C   UNL     1      15.823  52.381  46.295  0.00  0.00    +0.000 A 
ATOM     13  C   UNL     1      15.398  51.437  45.357  0.00  0.00    +0.000 A 
ENDBRANCH   6   8
BRANCH   1  14
ATOM     14  C   UNL     1      11.625  47.017  44.583  0.00  0.00    +0.000 C 
ATOM     15  O   UNL     1      11.129  47.311  45.670  0.00  0.00    +0.000 OA
BRANCH  14  16
ATOM     16  O   UNL     1      10.965  46.307  43.621  0.00  0.00    +0.000 OA
BRANCH  16  17
ATOM     17  C   UNL     1      10.718  44.927  43.919  0.00  0.00    +0.000 C 
BRANCH  17  21
ATOM     18  C   UNL     1      13.337  42.452  41.537  0.00  0.00    +0.000 A 
ATOM     19  C   UNL     1      13.164  43.804  41.219  0.00  0.00    +0.000 A 
ATOM     20  C   UNL     1      12.313  44.604  41.986  0.00  0.00    +0.000 A 
ATOM     21  C   UNL     1      11.619  44.061  43.077  0.00  0.00    +0.000 A 
ATOM     22  C   UNL     1      11.804  42.708  43.397  0.00  0.00    +0.000 A 
ATOM     23  C   UNL     1      12.656  41.907  42.631  0.00  0.00    +0.000 A 
BRANCH  18  25
ATOM     24  O   UNL     1      14.792  40.603  41.023  0.00  0.00    +0.000 OA
ATOM     25  C   UNL     1      14.251  41.643  40.695  0.00  0.00    +0.000 C 
BRANCH  25  26
ATOM     26  O   UNL     1      14.450  42.177  39.477  0.00  0.00    +0.000 OA
ATOM     27  H   UNL     1      13.652  42.725  39.329  0.00  0.00    +0.000 HD
ENDBRANCH  25  26
ENDBRANCH  18  25
ENDBRANCH  17  21
ENDBRANCH  16  17
ENDBRANCH  14  16
ENDBRANCH   1  14
BRANCH   2  28
ATOM     28  C   UNL     1      14.020  45.407  45.589  0.00  0.00    +0.000 C 
BRANCH  28  29
ATOM     29  C   UNL     1      14.684  44.121  45.163  0.00  0.00    +0.000 A 
ATOM     30  C   UNL     1      14.511  42.946  45.906  0.00  0.00    +0.000 A 
ATOM     31  C   UNL     1      15.144  41.764  45.519  0.00  0.00    +0.000 A 
ATOM     32  C   UNL     1      15.956  41.744  44.387  0.00  0.00    +0.000 A 
ATOM     33  C   UNL     1      16.137  42.907  43.641  0.00  0.00    +0.000 A 
ATOM     34  C   UNL     1      15.508  44.091  44.028  0.00  0.00    +0.000 A 
ENDBRANCH  28  29
ENDBRANCH   2  28
TORSDOF 9
ENDMDL
MODEL 3
REMARK VINA RESULT:    -6.111      3.592      4.843
REMARK INTER + INTRA:         -11.810
REMARK INTER:                  -9.148
REMARK INTRA:                  -2.662
REMARK UNBOUND:                -2.662
REMARK  Name = 
REMARK  9 active torsions:
REMARK  status: ('A' for Active; 'I' for Inactive)
REMARK    1  A    between atoms: C_2  and  O_3
REMARK    2  A    between atoms: C_2  and  C_4
REMARK    3  A    between atoms: C_7  and  C_8
REMARK    4  A    between atoms: C_8  and  O_9
REMARK    5  A    between atoms: O_9  and  C_10
REMARK    6  A    between atoms: C_10  and  C_12
REMARK    7  A    between atoms: C_13  and  C_14
REMARK    8  A    between atoms: C_14  and  C_15
REMARK    9  A    between atoms: C_24  and  C_26
REMARK                            x       y       z     vdW  Elec       q    Type
REMARK                         _______ _______ _______ _____ _____    ______ ____
ROOT
ATOM      1  C   UNL     1      16.360  37.756  50.994  0.00  0.00    +0.000 C 
ATOM      2  C   UNL     1      17.893  37.943  50.883  0.00  0.00    +0.000 C 
ATOM      3  C   UNL     1      17.612  39.354  51.431  0.00  0.00    +0.000 C 
ATOM      4  O   UNL     1      18.264  40.355  51.619  0.00  0.00    +0.000 OA
ATOM      5  N   UNL     1      16.321  39.035  51.756  0.00  0.00    +0.000 N 
ATOM      6  C   UNL     1      15.293  39.946  51.610  0.00  0.00    +0.000 C 
ATOM      7  O   UNL     1      14.417  39.810  50.759  0.00  0.00    +0.000 OA
ENDROOT
BRANCH   6   8
ATOM      8  C   UNL     1      15.261  41.110  52.544  0.00  0.00    +0.000 A 
ATOM      9  C   UNL     1      15.833  42.318  52.119  0.00  0.00    +0.000 A 
ATOM     10  C   UNL     1      15.808  43.440  52.948  0.00  0.00    +0.000 A 
ATOM     11  C   UNL     1      15.205  43.366  54.202  0.00  0.00    +0.000 A 
ATOM     12  C   UNL     1      14.623  42.173  54.629  0.00  0.00    +0.000 A 
ATOM     13  C   UNL     1      14.646  41.047  53.800  0.00  0.00    +0.000 A 
ENDBRANCH   6   8
BRANCH   1  14
ATOM     14  C   UNL     1      15.784  36.546  51.781  0.00  0.00    +0.000 C 
ATOM     15  O   UNL     1      15.773  35.383  51.381  0.00  0.00    +0.000 OA
BRANCH  14  16
ATOM     16  O   UNL     1      15.272  36.933  52.987  0.00  0.00    +0.000 OA
BRANCH  16  17
ATOM     17  C   UNL     1      15.988  36.487  54.146  0.00  0.00    +0.000 C 
BRANCH  17  21
ATOM     18  C   UNL     1      16.402  39.796  56.890  0.00  0.00    +0.000 A 
ATOM     19  C   UNL     1      17.388  39.553  55.927  0.00  0.00    +0.000 A 
ATOM     20  C   UNL     1      17.257  38.480  55.042  0.00  0.00    +0.000 A 
ATOM     21  C   UNL     1      16.143  37.632  55.113  0.00  0.00    +0.000 A 
ATOM     22  C   UNL     1      15.153  37.886  56.074  0.00  0.00    +0.000 A 
ATOM     23  C   UNL     1      15.283  38.960  56.959  0.00  0.00    +0.000 A 
BRANCH  18  25
ATOM     24  O   UNL     1      15.800  41.866  57.964  0.00  0.00    +0.000 OA
ATOM     25  C   UNL     1      16.583  40.948  57.807  0.00  0.00    +0.000 C 
BRANCH  25  26
ATOM     26  O   UNL     1      17.743  40.899  58.486  0.00  0.00    +0.000 OA
ATOM     27  H   UNL     1      18.140  41.781  58.333  0.00  0.00    +0.000 HD
ENDBRANCH  25  26
ENDBRANCH  18  25
ENDBRANCH  17  21
ENDBRANCH  16  17
ENDBRANCH  14  16
ENDBRANCH   1  14
BRANCH   2  28
ATOM     28  C   UNL     1      18.795  37.072  51.749  0.00  0.00    +0.000 C 
BRANCH  28  29
ATOM     29  C   UNL     1      19.797  36.343  50.888  0.00  0.00    +0.000 A 
ATOM     30  C   UNL     1      21.119  36.172  51.318  0.00  0.00    +0.000 A 
ATOM     31  C   UNL     1      22.048  35.516  50.509  0.00  0.00    +0.000 A 
ATOM     32  C   UNL     1      21.665  35.024  49.263  0.00  0.00    +0.000 A 
ATOM     33  C   UNL     1      20.353  35.190  48.823  0.00  0.00    +0.000 A 
ATOM     34  C   UNL     1      19.424  35.848  49.629  0.00  0.00    +0.000 A 
ENDBRANCH  28  29
ENDBRANCH   2  28
TORSDOF 9
ENDMDL
