MODEL 1
REMARK VINA RESULT:    -5.599      0.000      0.000
REMARK INTER + INTRA:          -8.105
REMARK INTER:                  -7.469
REMARK INTRA:                  -0.636
REMARK UNBOUND:                -0.705
REMARK  Name = 
REMARK  6 active torsions:
REMARK  status: ('A' for Active; 'I' for Inactive)
REMARK    1  A    between atoms: N_1  and  C_2
REMARK    2  A    between atoms: N_5  and  C_6
REMARK    3  A    between atoms: C_6  and  C_7
REMARK    4  A    between atoms: C_10  and  O_11
REMARK    5  A    between atoms: O_11  and  C_12
REMARK    6  A    between atoms: C_12  and  C_13
REMARK                            x       y       z     vdW  Elec       q    Type
REMARK                         _______ _______ _______ _____ _____    ______ ____
ROOT
ATOM      1  C   UNL     1      17.603  37.009  54.265  0.00  0.00    +0.000 A 
ATOM      2  C   UNL     1      17.343  37.966  55.254  0.00  0.00    +0.000 A 
ATOM      3  C   UNL     1      17.287  39.322  54.925  0.00  0.00    +0.000 A 
ATOM      4  C   UNL     1      17.480  39.749  53.611  0.00  0.00    +0.000 A 
ATOM      5  C   UNL     1      17.730  38.803  52.619  0.00  0.00    +0.000 A 
ATOM      6  C   UNL     1      17.789  37.442  52.942  0.00  0.00    +0.000 A 
ENDROOT
BRANCH   1   7
ATOM      7  C   UNL     1      17.678  35.547  54.622  0.00  0.00    +0.000 C 
BRANCH   7  11
ATOM      8  C   UNL     1      21.627  34.371  55.708  0.00  0.00    +0.000 A 
ATOM      9  C   UNL     1      21.256  34.474  54.372  0.00  0.00    +0.000 A 
ATOM     10  C   UNL     1      19.960  34.850  54.036  0.00  0.00    +0.000 A 
ATOM     11  N   UNL     1      19.060  35.154  54.997  0.00  0.00    +0.000 N 
ATOM     12  C   UNL     1      19.412  35.106  56.303  0.00  0.00    +0.000 A 
ATOM     13  C   UNL     1      20.700  34.737  56.676  0.00  0.00    +0.000 A 
BRANCH   8  14
ATOM     14  N   UNL     1      22.952  34.136  56.055  0.00  0.00    +0.000 N 
ATOM     15  H   UNL     1      23.120  33.422  56.761  0.00  0.00    +0.000 HD
ATOM     16  H   UNL     1      23.536  34.955  56.207  0.00  0.00    +0.000 HD
ENDBRANCH   8  14
ENDBRANCH   7  11
ENDBRANCH   1   7
BRANCH   4  17
ATOM     17  O   UNL     1      17.401  41.100  53.439  0.00  0.00    +0.000 OA
BRANCH  17  18
ATOM     18  C   UNL     1      16.677  41.582  52.309  0.00  0.00    +0.000 C 
BRANCH  18  19
ATOM     19  C   UNL     1      15.617  42.535  52.802  0.00  0.00    +0.000 A 
ATOM     20  C   UNL     1      14.302  42.097  53.007  0.00  0.00    +0.000 A 
ATOM     21  C   UNL     1      13.322  42.986  53.454  0.00  0.00    +0.000 A 
ATOM     22  C   UNL     1      13.646  44.321  53.692  0.00  0.00    +0.000 A 
ATOM     23  C   UNL     1      14.948  44.770  53.478  0.00  0.00    +0.000 A 
ATOM     24  C   UNL     1      15.929  43.882  53.032  0.00  0.00    +0.000 A 
ENDBRANCH  18  19
ENDBRANCH  17  18
ENDBRANCH   4  17
TORSDOF 6
ENDMDL
MODEL 2
REMARK VINA RESULT:    -5.456     11.507     13.392
REMARK INTER + INTRA:          -7.916
REMARK INTER:                  -7.138
REMARK INTRA:                  -0.777
REMARK UNBOUND:                -0.705
REMARK  Name = 
REMARK  6 active torsions:
REMARK  status: ('A' for Active; 'I' for Inactive)
REMARK    1  A    between atoms: N_1  and  C_2
REMARK    2  A    between atoms: N_5  and  C_6
REMARK    3  A    between atoms: C_6  and  C_7
REMARK    4  A    between atoms: C_10  and  O_11
REMARK    5  A    between atoms: O_11  and  C_12
REMARK    6  A    between atoms: C_12  and  C_13
REMARK                            x       y       z     vdW  Elec       q    Type
REMARK                         _______ _______ _______ _____ _____    ______ ____
ROOT
ATOM      1  C   UNL     1      13.674  45.090  45.876  0.00  0.00    +0.000 A 
ATOM      2  C   UNL     1      12.451  45.332  46.515  0.00  0.00    +0.000 A 
ATOM      3  C   UNL     1      11.977  46.637  46.655  0.00  0.00    +0.000 A 
ATOM      4  C   UNL     1      12.702  47.721  46.158  0.00  0.00    +0.000 A 
ATOM      5  C   UNL     1      13.915  47.488  45.513  0.00  0.00    +0.000 A 
ATOM      6  C   UNL     1      14.398  46.181  45.370  0.00  0.00    +0.000 A 
ENDROOT
BRANCH   1   7
ATOM      7  C   UNL     1      14.194  43.681  45.738  0.00  0.00    +0.000 C 
BRANCH   7  11
ATOM      8  C   UNL     1      14.630  42.644  41.629  0.00  0.00    +0.000 A 
ATOM      9  C   UNL     1      15.734  42.694  42.471  0.00  0.00    +0.000 A 
ATOM     10  C   UNL     1      15.575  43.044  43.808  0.00  0.00    +0.000 A 
ATOM     11  N   UNL     1      14.347  43.302  44.311  0.00  0.00    +0.000 N 
ATOM     12  C   UNL     1      13.252  43.213  43.520  0.00  0.00    +0.000 A 
ATOM     13  C   UNL     1      13.374  42.864  42.179  0.00  0.00    +0.000 A 
BRANCH   8  14
ATOM     14  N   UNL     1      14.755  42.160  40.332  0.00  0.00    +0.000 N 
ATOM     15  H   UNL     1      13.986  41.594  39.979  0.00  0.00    +0.000 HD
ATOM     16  H   UNL     1      15.657  41.762  40.078  0.00  0.00    +0.000 HD
ENDBRANCH   8  14
ENDBRANCH   7  11
ENDBRANCH   1   7
BRANCH   4  17
ATOM     17  O   UNL     1      12.119  48.936  46.370  0.00  0.00    +0.000 OA
BRANCH  17  18
ATOM     18  C   UNL     1      12.405  49.979  45.440  0.00  0.00    +0.000 C 
BRANCH  18  19
ATOM     19  C   UNL     1      13.359  50.944  46.097  0.00  0.00    +0.000 A 
ATOM     20  C   UNL     1      14.626  51.184  45.548  0.00  0.00    +0.000 A 
ATOM     21  C   UNL     1      15.509  52.071  46.167  0.00  0.00    +0.000 A 
ATOM     22  C   UNL     1      15.137  52.720  47.344  0.00  0.00    +0.000 A 
ATOM     23  C   UNL     1      13.885  52.478  47.906  0.00  0.00    +0.000 A 
ATOM     24  C   UNL     1      13.001  51.592  47.288  0.00  0.00    +0.000 A 
ENDBRANCH  18  19
ENDBRANCH  17  18
ENDBRANCH   4  17
TORSDOF 6
ENDMDL
MODEL 3
REMARK VINA RESULT:    -5.384      6.308      8.386
REMARK INTER + INTRA:          -7.821
REMARK INTER:                  -7.116
REMARK INTRA:                  -0.705
REMARK UNBOUND:                -0.705
REMARK  Name = 
REMARK  6 active torsions:
REMARK  status: ('A' for Active; 'I' for Inactive)
REMARK    1  A    between atoms: N_1  and  C_2
REMARK    2  A    between atoms: N_5  and  C_6
REMARK    3  A    between atoms: C_6  and  C_7
REMARK    4  A    between atoms: C_10  and  O_11
REMARK    5  A    between atoms: O_11  and  C_12
REMARK    6  A    between atoms: C_12  and  C_13
REMARK                            x       y       z     vdW  Elec       q    Type
REMARK                         _______ _______ _______ _____ _____    ______ ____
ROOT
ATOM      1  C   UNL     1      13.758  40.599  48.406  0.00  0.00    +0.000 A 
ATOM      2  C   UNL     1      14.788  40.960  47.528  0.00  0.00    +0.000 A 
ATOM      3  C   UNL     1      14.582  41.957  46.574  0.00  0.00    +0.000 A 
ATOM      4  C   UNL     1      13.356  42.617  46.479  0.00  0.00    +0.000 A 
ATOM      5  C   UNL     1      12.330  42.271  47.355  0.00  0.00    +0.000 A 
ATOM      6  C   UNL     1      12.528  41.270  48.314  0.00  0.00    +0.000 A 
ENDROOT
BRANCH   1   7
ATOM      7  C   UNL     1      13.975  39.511  49.427  0.00  0.00    +0.000 C 
BRANCH   7  11
ATOM      8  C   UNL     1      17.305  40.432  51.920  0.00  0.00    +0.000 A 
ATOM      9  C   UNL     1      16.173  41.238  51.918  0.00  0.00    +0.000 A 
ATOM     10  C   UNL     1      15.099  40.928  51.091  0.00  0.00    +0.000 A 
ATOM     11  N   UNL     1      15.126  39.825  50.310  0.00  0.00    +0.000 N 
ATOM     12  C   UNL     1      16.199  39.000  50.331  0.00  0.00    +0.000 A 
ATOM     13  C   UNL     1      17.290  39.278  51.148  0.00  0.00    +0.000 A 
BRANCH   8  14
ATOM     14  N   UNL     1      18.323  40.649  52.842  0.00  0.00    +0.000 N 
ATOM     15  H   UNL     1      19.082  41.261  52.550  0.00  0.00    +0.000 HD
ATOM     16  H   UNL     1      18.672  39.832  53.337  0.00  0.00    +0.000 HD
ENDBRANCH   8  14
ENDBRANCH   7  11
ENDBRANCH   1   7
BRANCH   4  17
ATOM     17  O   UNL     1      13.299  43.564  45.499  0.00  0.00    +0.000 OA
BRANCH  17  18
ATOM     18  C   UNL     1      14.328  44.551  45.471  0.00  0.00    +0.000 C 
BRANCH  18  19
ATOM     19  C   UNL     1      13.692  45.898  45.704  0.00  0.00    +0.000 A 
ATOM     20  C   UNL     1      14.313  47.070  45.249  0.00  0.00    +0.000 A 
ATOM     21  C   UNL     1      13.726  48.316  45.477  0.00  0.00    +0.000 A 
ATOM     22  C   UNL     1      12.517  48.403  46.166  0.00  0.00    +0.000 A 
ATOM     23  C   UNL     1      11.898  47.245  46.634  0.00  0.00    +0.000 A 
ATOM     24  C   UNL     1      12.484  45.999  46.408  0.00  0.00    +0.000 A 
ENDBRANCH  18  19
ENDBRANCH  17  18
ENDBRANCH   4  17
TORSDOF 6
ENDMDL
