MODEL 1
REMARK VINA RESULT:    -7.321      0.000      0.000
REMARK INTER + INTRA:         -10.741
REMARK INTER:                  -9.396
REMARK INTRA:                  -1.345
REMARK UNBOUND:                -1.280
REMARK  Name = 
REMARK  5 active torsions:
REMARK  status: ('A' for Active; 'I' for Inactive)
REMARK    1  A    between atoms: C_4  and  C_5
REMARK    2  A    between atoms: C_7  and  C_8
REMARK    3  A    between atoms: C_8  and  N_9
REMARK    4  A    between atoms: C_25  and  C_26
REMARK    5  A    between atoms: C_26  and  N_27
REMARK                            x       y       z     vdW  Elec       q    Type
REMARK                         _______ _______ _______ _____ _____    ______ ____
ROOT
ATOM      1  C   UNL     1      15.843  40.759  51.515  0.00  0.00    +0.000 A 
ATOM      2  C   UNL     1      15.324  40.470  50.236  0.00  0.00    +0.000 A 
ATOM      3  C   UNL     1      15.840  39.432  49.447  0.00  0.00    +0.000 A 
ATOM      4  C   UNL     1      16.888  38.660  49.954  0.00  0.00    +0.000 A 
ATOM      5  C   UNL     1      17.421  38.932  51.213  0.00  0.00    +0.000 A 
ATOM      6  C   UNL     1      16.919  39.983  52.005  0.00  0.00    +0.000 A 
ENDROOT
BRANCH   1  10
ATOM      7  C   UNL     1      14.013  43.906  53.770  0.00  0.00    +0.000 A 
ATOM      8  C   UNL     1      13.291  42.755  53.462  0.00  0.00    +0.000 A 
ATOM      9  C   UNL     1      13.890  41.729  52.728  0.00  0.00    +0.000 A 
ATOM     10  C   UNL     1      15.222  41.839  52.295  0.00  0.00    +0.000 A 
ATOM     11  C   UNL     1      15.932  43.007  52.609  0.00  0.00    +0.000 A 
ATOM     12  C   UNL     1      15.334  44.033  53.344  0.00  0.00    +0.000 A 
ENDBRANCH   1  10
BRANCH   3  13
ATOM     13  C   UNL     1      15.278  39.146  48.071  0.00  0.00    +0.000 C 
BRANCH  13  14
ATOM     14  N   UNL     1      14.436  40.237  47.555  0.00  0.00    +0.000 NA
ATOM     15  C   UNL     1      15.182  41.160  46.671  0.00  0.00    +0.000 C 
ATOM     16  C   UNL     1      15.769  40.581  45.370  0.00  0.00    +0.000 C 
ATOM     17  C   UNL     1      15.572  41.521  44.174  0.00  0.00    +0.000 C 
ATOM     18  N   UNL     1      16.202  42.826  44.385  0.00  0.00    +0.000 NA
ATOM     19  C   UNL     1      15.621  43.871  43.528  0.00  0.00    +0.000 C 
ATOM     20  C   UNL     1      14.461  44.669  44.184  0.00  0.00    +0.000 C 
ATOM     21  N   UNL     1      13.292  43.851  44.508  0.00  0.00    +0.000 NA
ATOM     22  C   UNL     1      12.214  44.601  45.150  0.00  0.00    +0.000 C 
ATOM     23  C   UNL     1      11.299  43.631  45.915  0.00  0.00    +0.000 C 
ATOM     24  C   UNL     1      11.987  43.086  47.178  0.00  0.00    +0.000 C 
ATOM     25  N   UNL     1      11.715  41.676  47.496  0.00  0.00    +0.000 NA
ATOM     26  C   UNL     1      12.180  40.755  46.442  0.00  0.00    +0.000 C 
ATOM     27  C   UNL     1      13.203  39.700  46.942  0.00  0.00    +0.000 C 
ATOM     28  H   UNL     1      17.198  42.738  44.191  0.00  0.00    +0.000 HD
ATOM     29  H   UNL     1      12.947  43.378  43.677  0.00  0.00    +0.000 HD
ATOM     30  H   UNL     1      12.261  41.458  48.335  0.00  0.00    +0.000 HD
ENDBRANCH  13  14
ENDBRANCH   3  13
BRANCH   6  31
ATOM     31  C   UNL     1      17.551  40.231  53.366  0.00  0.00    +0.000 C 
BRANCH  31  32
ATOM     32  N   UNL     1      17.141  39.254  54.393  0.00  0.00    +0.000 NA
ATOM     33  C   UNL     1      15.924  38.509  54.026  0.00  0.00    +0.000 C 
ATOM     34  C   UNL     1      15.851  37.067  54.560  0.00  0.00    +0.000 C 
ATOM     35  C   UNL     1      15.591  36.841  56.053  0.00  0.00    +0.000 C 
ATOM     36  N   UNL     1      14.403  37.554  56.532  0.00  0.00    +0.000 NA
ATOM     37  C   UNL     1      14.025  37.149  57.897  0.00  0.00    +0.000 C 
ATOM     38  C   UNL     1      14.307  38.232  58.966  0.00  0.00    +0.000 C 
ATOM     39  N   UNL     1      15.737  38.535  59.068  0.00  0.00    +0.000 NA
ATOM     40  C   UNL     1      16.032  39.603  60.018  0.00  0.00    +0.000 C 
ATOM     41  C   UNL     1      15.632  41.025  59.589  0.00  0.00    +0.000 C 
ATOM     42  C   UNL     1      16.232  41.474  58.249  0.00  0.00    +0.000 C 
ATOM     43  N   UNL     1      15.352  41.113  57.139  0.00  0.00    +0.000 NA
ATOM     44  C   UNL     1      16.030  41.087  55.842  0.00  0.00    +0.000 C 
ATOM     45  C   UNL     1      17.035  39.911  55.710  0.00  0.00    +0.000 C 
ATOM     46  H   UNL     1      14.636  38.553  56.574  0.00  0.00    +0.000 HD
ATOM     47  H   UNL     1      16.239  37.688  59.326  0.00  0.00    +0.000 HD
ATOM     48  H   UNL     1      14.563  41.758  57.106  0.00  0.00    +0.000 HD
ENDBRANCH  31  32
ENDBRANCH   6  31
TORSDOF 5
ENDMDL
MODEL 2
REMARK VINA RESULT:    -7.177      3.413     11.997
REMARK INTER + INTRA:         -10.555
REMARK INTER:                  -9.750
REMARK INTRA:                  -0.805
REMARK UNBOUND:                -1.280
REMARK  Name = 
REMARK  5 active torsions:
REMARK  status: ('A' for Active; 'I' for Inactive)
REMARK    1  A    between atoms: C_4  and  C_5
REMARK    2  A    between atoms: C_7  and  C_8
REMARK    3  A    between atoms: C_8  and  N_9
REMARK    4  A    between atoms: C_25  and  C_26
REMARK    5  A    between atoms: C_26  and  N_27
REMARK                            x       y       z     vdW  Elec       q    Type
REMARK                         _______ _______ _______ _____ _____    ______ ____
ROOT
ATOM      1  C   UNL     1      14.865  41.731  45.994  0.00  0.00    +0.000 A 
ATOM      2  C   UNL     1      14.864  40.912  47.143  0.00  0.00    +0.000 A 
ATOM      3  C   UNL     1      15.571  39.703  47.188  0.00  0.00    +0.000 A 
ATOM      4  C   UNL     1      16.304  39.310  46.066  0.00  0.00    +0.000 A 
ATOM      5  C   UNL     1      16.315  40.100  44.917  0.00  0.00    +0.000 A 
ATOM      6  C   UNL     1      15.593  41.308  44.858  0.00  0.00    +0.000 A 
ENDROOT
BRANCH   1  10
ATOM      7  C   UNL     1      12.701  45.424  46.115  0.00  0.00    +0.000 A 
ATOM      8  C   UNL     1      12.126  44.259  46.619  0.00  0.00    +0.000 A 
ATOM      9  C   UNL     1      12.834  43.056  46.580  0.00  0.00    +0.000 A 
ATOM     10  C   UNL     1      14.130  43.002  46.040  0.00  0.00    +0.000 A 
ATOM     11  C   UNL     1      14.692  44.183  45.532  0.00  0.00    +0.000 A 
ATOM     12  C   UNL     1      13.984  45.387  45.572  0.00  0.00    +0.000 A 
ENDBRANCH   1  10
BRANCH   3  13
ATOM     13  C   UNL     1      15.547  38.832  48.426  0.00  0.00    +0.000 C 
BRANCH  13  14
ATOM     14  N   UNL     1      15.532  39.609  49.676  0.00  0.00    +0.000 NA
ATOM     15  C   UNL     1      14.189  39.666  50.293  0.00  0.00    +0.000 C 
ATOM     16  C   UNL     1      13.558  38.338  50.749  0.00  0.00    +0.000 C 
ATOM     17  C   UNL     1      12.866  38.459  52.113  0.00  0.00    +0.000 C 
ATOM     18  N   UNL     1      11.798  39.461  52.105  0.00  0.00    +0.000 NA
ATOM     19  C   UNL     1      11.480  39.948  53.457  0.00  0.00    +0.000 C 
ATOM     20  C   UNL     1      12.256  41.226  53.878  0.00  0.00    +0.000 C 
ATOM     21  N   UNL     1      13.705  41.039  53.950  0.00  0.00    +0.000 NA
ATOM     22  C   UNL     1      14.432  42.252  54.320  0.00  0.00    +0.000 C 
ATOM     23  C   UNL     1      15.896  42.132  53.867  0.00  0.00    +0.000 C 
ATOM     24  C   UNL     1      16.022  42.243  52.337  0.00  0.00    +0.000 C 
ATOM     25  N   UNL     1      17.027  41.369  51.713  0.00  0.00    +0.000 NA
ATOM     26  C   UNL     1      16.741  39.936  51.919  0.00  0.00    +0.000 C 
ATOM     27  C   UNL     1      16.586  39.135  50.597  0.00  0.00    +0.000 C 
ATOM     28  H   UNL     1      10.968  39.044  51.687  0.00  0.00    +0.000 HD
ATOM     29  H   UNL     1      13.935  40.281  54.587  0.00  0.00    +0.000 HD
ATOM     30  H   UNL     1      16.968  41.536  50.704  0.00  0.00    +0.000 HD
ENDBRANCH  13  14
ENDBRANCH   3  13
BRANCH   6  31
ATOM     31  C   UNL     1      15.641  42.119  43.572  0.00  0.00    +0.000 C 
BRANCH  31  32
ATOM     32  N   UNL     1      14.871  41.519  42.466  0.00  0.00    +0.000 NA
ATOM     33  C   UNL     1      15.685  40.643  41.605  0.00  0.00    +0.000 C 
ATOM     34  C   UNL     1      14.934  39.456  40.977  0.00  0.00    +0.000 C 
ATOM     35  C   UNL     1      13.942  39.724  39.840  0.00  0.00    +0.000 C 
ATOM     36  N   UNL     1      14.535  40.502  38.749  0.00  0.00    +0.000 NA
ATOM     37  C   UNL     1      13.659  40.554  37.565  0.00  0.00    +0.000 C 
ATOM     38  C   UNL     1      13.011  41.940  37.333  0.00  0.00    +0.000 C 
ATOM     39  N   UNL     1      12.132  42.321  38.441  0.00  0.00    +0.000 NA
ATOM     40  C   UNL     1      11.557  43.653  38.289  0.00  0.00    +0.000 C 
ATOM     41  C   UNL     1      12.522  44.836  38.480  0.00  0.00    +0.000 C 
ATOM     42  C   UNL     1      13.253  44.844  39.831  0.00  0.00    +0.000 C 
ATOM     43  N   UNL     1      14.509  44.101  39.745  0.00  0.00    +0.000 NA
ATOM     44  C   UNL     1      15.025  43.677  41.049  0.00  0.00    +0.000 C 
ATOM     45  C   UNL     1      14.162  42.568  41.708  0.00  0.00    +0.000 C 
ATOM     46  H   UNL     1      14.641  41.469  39.080  0.00  0.00    +0.000 HD
ATOM     47  H   UNL     1      11.391  41.629  38.532  0.00  0.00    +0.000 HD
ATOM     48  H   UNL     1      15.206  44.663  39.261  0.00  0.00    +0.000 HD
ENDBRANCH  31  32
ENDBRANCH   6  31
TORSDOF 5
ENDMDL
MODEL 3
REMARK VINA RESULT:    -7.051      6.281     11.078
REMARK INTER + INTRA:         -10.391
REMARK INTER:                  -9.111
REMARK INTRA:                  -1.280
REMARK UNBOUND:                -1.280
REMARK  Name = 
REMARK  5 active torsions:
REMARK  status: ('A' for Active; 'I' for Inactive)
REMARK    1  A    between atoms: C_4  and  C_5
REMARK    2  A    between atoms: C_7  and  C_8
REMARK    3  A    between atoms: C_8  and  N_9
REMARK    4  A    between atoms: C_25  and  C_26
REMARK    5  A    between atoms: C_26  and  N_27
REMARK                            x       y       z     vdW  Elec       q    Type
REMARK                         _______ _______ _______ _____ _____    ______ ____
ROOT
ATOM      1  C   UNL     1      18.627  37.232  51.404  0.00  0.00    +0.000 A 
ATOM      2  C   UNL     1      20.000  36.912  51.421  0.00  0.00    +0.000 A 
ATOM      3  C   UNL     1      20.569  36.049  50.473  0.00  0.00    +0.000 A 
ATOM      4  C   UNL     1      19.749  35.504  49.483  0.00  0.00    +0.000 A 
ATOM      5  C   UNL     1      18.387  35.800  49.451  0.00  0.00    +0.000 A 
ATOM      6  C   UNL     1      17.805  36.653  50.409  0.00  0.00    +0.000 A 
ENDROOT
BRANCH   1  10
ATOM      7  C   UNL     1      17.113  39.966  54.331  0.00  0.00    +0.000 A 
ATOM      8  C   UNL     1      17.057  38.593  54.561  0.00  0.00    +0.000 A 
ATOM      9  C   UNL     1      17.552  37.703  53.606  0.00  0.00    +0.000 A 
ATOM     10  C   UNL     1      18.115  38.175  52.408  0.00  0.00    +0.000 A 
ATOM     11  C   UNL     1      18.160  39.560  52.191  0.00  0.00    +0.000 A 
ATOM     12  C   UNL     1      17.665  40.450  53.147  0.00  0.00    +0.000 A 
ENDBRANCH   1  10
BRANCH   3  13
ATOM     13  C   UNL     1      22.043  35.708  50.516  0.00  0.00    +0.000 C 
BRANCH  13  14
ATOM     14  N   UNL     1      22.297  34.263  50.629  0.00  0.00    +0.000 NA
ATOM     15  C   UNL     1      23.474  33.830  49.845  0.00  0.00    +0.000 C 
ATOM     16  C   UNL     1      24.844  34.415  50.234  0.00  0.00    +0.000 C 
ATOM     17  C   UNL     1      25.955  33.357  50.218  0.00  0.00    +0.000 C 
ATOM     18  N   UNL     1      26.112  32.737  48.901  0.00  0.00    +0.000 NA
ATOM     19  C   UNL     1      26.774  31.426  48.976  0.00  0.00    +0.000 C 
ATOM     20  C   UNL     1      25.801  30.220  49.086  0.00  0.00    +0.000 C 
ATOM     21  N   UNL     1      24.991  30.226  50.304  0.00  0.00    +0.000 NA
ATOM     22  C   UNL     1      24.057  29.104  50.390  0.00  0.00    +0.000 C 
ATOM     23  C   UNL     1      22.922  29.454  51.366  0.00  0.00    +0.000 C 
ATOM     24  C   UNL     1      21.969  30.504  50.768  0.00  0.00    +0.000 C 
ATOM     25  N   UNL     1      21.450  31.507  51.710  0.00  0.00    +0.000 NA
ATOM     26  C   UNL     1      22.518  32.331  52.308  0.00  0.00    +0.000 C 
ATOM     27  C   UNL     1      22.350  33.853  52.049  0.00  0.00    +0.000 C 
ATOM     28  H   UNL     1      26.659  33.364  48.313  0.00  0.00    +0.000 HD
ATOM     29  H   UNL     1      25.586  30.255  51.128  0.00  0.00    +0.000 HD
ATOM     30  H   UNL     1      20.864  32.143  51.161  0.00  0.00    +0.000 HD
ENDBRANCH  13  14
ENDBRANCH   3  13
BRANCH   6  31
ATOM     31  C   UNL     1      16.312  36.930  50.321  0.00  0.00    +0.000 C 
BRANCH  31  32
ATOM     32  N   UNL     1      15.919  37.666  49.105  0.00  0.00    +0.000 NA
ATOM     33  C   UNL     1      16.948  38.617  48.648  0.00  0.00    +0.000 C 
ATOM     34  C   UNL     1      17.012  38.833  47.126  0.00  0.00    +0.000 C 
ATOM     35  C   UNL     1      15.902  39.641  46.444  0.00  0.00    +0.000 C 
ATOM     36  N   UNL     1      15.692  40.949  47.071  0.00  0.00    +0.000 NA
ATOM     37  C   UNL     1      14.798  41.808  46.275  0.00  0.00    +0.000 C 
ATOM     38  C   UNL     1      13.400  42.004  46.909  0.00  0.00    +0.000 C 
ATOM     39  N   UNL     1      12.670  40.738  47.017  0.00  0.00    +0.000 NA
ATOM     40  C   UNL     1      11.374  40.875  47.675  0.00  0.00    +0.000 C 
ATOM     41  C   UNL     1      11.405  41.134  49.191  0.00  0.00    +0.000 C 
ATOM     42  C   UNL     1      12.178  40.081  49.997  0.00  0.00    +0.000 C 
ATOM     43  N   UNL     1      13.587  40.449  50.115  0.00  0.00    +0.000 NA
ATOM     44  C   UNL     1      14.458  39.322  50.453  0.00  0.00    +0.000 C 
ATOM     45  C   UNL     1      14.598  38.298  49.295  0.00  0.00    +0.000 C 
ATOM     46  H   UNL     1      15.223  40.789  47.971  0.00  0.00    +0.000 HD
ATOM     47  H   UNL     1      12.551  40.341  46.088  0.00  0.00    +0.000 HD
ATOM     48  H   UNL     1      13.691  41.189  50.808  0.00  0.00    +0.000 HD
ENDBRANCH  31  32
ENDBRANCH   6  31
TORSDOF 5
ENDMDL
