MODEL 1
REMARK VINA RESULT:    -5.880      0.000      0.000
REMARK INTER + INTRA:          -9.869
REMARK INTER:                  -9.148
REMARK INTRA:                  -0.721
REMARK UNBOUND:                -2.099
REMARK  Name = 
REMARK  6 active torsions:
REMARK  status: ('A' for Active; 'I' for Inactive)
REMARK    1  A    between atoms: N_10  and  C_11
REMARK    2  A    between atoms: C_11  and  C_12
REMARK    3  A    between atoms: C_12  and  N_13
REMARK    4  A    between atoms: C_18  and  C_19
REMARK    5  A    between atoms: N_20  and  O_21
REMARK    6  A    between atoms: N_22  and  C_23
REMARK                            x       y       z     vdW  Elec       q    Type
REMARK                         _______ _______ _______ _____ _____    ______ ____
ROOT
ATOM      1  N   UNL     1      17.509  36.849  52.873  0.00  0.00    +0.000 N 
ATOM      2  C   UNL     1      17.346  37.288  51.530  0.00  0.00    +0.000 A 
ATOM      3  N   UNL     1      17.232  36.555  50.430  0.00  0.00    +0.000 NA
ATOM      4  O   UNL     1      17.102  37.344  49.420  0.00  0.00    +0.000 OA
ATOM      5  N   UNL     1      17.122  38.604  49.785  0.00  0.00    +0.000 NA
ATOM      6  C   UNL     1      17.275  38.607  51.113  0.00  0.00    +0.000 A 
ATOM      7  H   UNL     1      17.585  37.593  53.634  0.00  0.00    +0.000 HD
ENDROOT
BRANCH   6   8
ATOM      8  C   UNL     1      17.361  39.733  52.047  0.00  0.00    +0.000 C 
ATOM      9  N   UNL     1      17.718  39.577  53.292  0.00  0.00    +0.000 NA
ATOM     10  N   UNL     1      17.054  41.058  51.626  0.00  0.00    +0.000 N 
ATOM     11  H   UNL     1      17.603  41.417  50.809  0.00  0.00    +0.000 HD
BRANCH  10  12
ATOM     12  C   UNL     1      16.045  41.809  52.287  0.00  0.00    +0.000 A 
ATOM     13  C   UNL     1      16.326  43.065  52.795  0.00  0.00    +0.000 A 
ATOM     14  C   UNL     1      15.360  43.834  53.426  0.00  0.00    +0.000 A 
ATOM     15  C   UNL     1      14.071  43.329  53.551  0.00  0.00    +0.000 A 
ATOM     16  F   UNL     1      13.145  44.098  54.169  0.00  0.00    +0.000 F 
ATOM     17  C   UNL     1      13.776  42.086  53.052  0.00  0.00    +0.000 A 
ATOM     18 BR   UNL     1      12.007  41.407  53.229  0.00  0.00    +0.000 Br
ATOM     19  C   UNL     1      14.764  41.332  52.423  0.00  0.00    +0.000 A 
ENDBRANCH  10  12
BRANCH   9  20
ATOM     20  O   UNL     1      17.814  40.603  54.194  0.00  0.00    +0.000 OA
ATOM     21  H   UNL     1      17.033  41.248  54.376  0.00  0.00    +0.000 HD
ENDBRANCH   9  20
ENDBRANCH   6   8
BRANCH   1  22
ATOM     22  C   UNL     1      17.577  35.459  53.265  0.00  0.00    +0.000 C 
BRANCH  22  23
ATOM     23  C   UNL     1      18.075  35.379  54.688  0.00  0.00    +0.000 C 
BRANCH  23  33
ATOM     24  O   UNL     1      19.768  35.188  56.997  0.00  0.00    +0.000 OA
ATOM     25  C   UNL     1      20.246  34.879  55.814  0.00  0.00    +0.000 A 
ATOM     26  C   UNL     1      21.509  34.474  55.676  0.00  0.00    +0.000 A 
ATOM     27  C   UNL     1      22.481  34.318  56.715  0.00  0.00    +0.000 A 
ATOM     28  C   UNL     1      23.729  33.887  56.372  0.00  0.00    +0.000 A 
ATOM     29  C   UNL     1      24.164  33.580  55.101  0.00  0.00    +0.000 A 
ATOM     30  C   UNL     1      23.223  33.726  54.056  0.00  0.00    +0.000 A 
ATOM     31  C   UNL     1      22.017  34.153  54.463  0.00  0.00    +0.000 A 
ATOM     32 SE   UNL     1      20.372  34.489  53.264  0.00  0.00    +0.000 Se
ATOM     33  N   UNL     1      19.414  34.990  54.783  0.00  0.00    +0.000 N 
ENDBRANCH  23  33
ENDBRANCH  22  23
ENDBRANCH   1  22
TORSDOF 6
ENDMDL
MODEL 2
REMARK VINA RESULT:    -5.868      3.047      3.638
REMARK INTER + INTRA:          -9.853
REMARK INTER:                  -8.602
REMARK INTRA:                  -1.251
REMARK UNBOUND:                -2.099
REMARK  Name = 
REMARK  6 active torsions:
REMARK  status: ('A' for Active; 'I' for Inactive)
REMARK    1  A    between atoms: N_10  and  C_11
REMARK    2  A    between atoms: C_11  and  C_12
REMARK    3  A    between atoms: C_12  and  N_13
REMARK    4  A    between atoms: C_18  and  C_19
REMARK    5  A    between atoms: N_20  and  O_21
REMARK    6  A    between atoms: N_22  and  C_23
REMARK                            x       y       z     vdW  Elec       q    Type
REMARK                         _______ _______ _______ _____ _____    ______ ____
ROOT
ATOM      1  N   UNL     1      19.073  37.110  51.193  0.00  0.00    +0.000 N 
ATOM      2  C   UNL     1      17.842  37.473  50.580  0.00  0.00    +0.000 A 
ATOM      3  N   UNL     1      17.270  36.951  49.503  0.00  0.00    +0.000 NA
ATOM      4  O   UNL     1      16.161  37.569  49.284  0.00  0.00    +0.000 OA
ATOM      5  N   UNL     1      15.945  38.505  50.177  0.00  0.00    +0.000 NA
ATOM      6  C   UNL     1      16.987  38.474  51.012  0.00  0.00    +0.000 A 
ATOM      7  H   UNL     1      19.375  37.650  52.062  0.00  0.00    +0.000 HD
ENDROOT
BRANCH   6   8
ATOM      8  C   UNL     1      17.270  39.294  52.193  0.00  0.00    +0.000 C 
ATOM      9  N   UNL     1      18.390  39.950  52.332  0.00  0.00    +0.000 NA
ATOM     10  N   UNL     1      16.323  39.408  53.250  0.00  0.00    +0.000 N 
ATOM     11  H   UNL     1      15.371  39.751  52.976  0.00  0.00    +0.000 HD
BRANCH  10  12
ATOM     12  C   UNL     1      16.677  39.050  54.578  0.00  0.00    +0.000 A 
ATOM     13  C   UNL     1      17.137  37.777  54.863  0.00  0.00    +0.000 A 
ATOM     14  C   UNL     1      17.512  37.401  56.144  0.00  0.00    +0.000 A 
ATOM     15  C   UNL     1      17.425  38.332  57.173  0.00  0.00    +0.000 A 
ATOM     16  F   UNL     1      17.798  37.943  58.413  0.00  0.00    +0.000 F 
ATOM     17  C   UNL     1      16.972  39.599  56.907  0.00  0.00    +0.000 A 
ATOM     18 BR   UNL     1      16.859  40.863  58.325  0.00  0.00    +0.000 Br
ATOM     19  C   UNL     1      16.601  39.951  55.613  0.00  0.00    +0.000 A 
ENDBRANCH  10  12
BRANCH   9  20
ATOM     20  O   UNL     1      18.690  40.729  53.417  0.00  0.00    +0.000 OA
ATOM     21  H   UNL     1      19.659  40.955  53.679  0.00  0.00    +0.000 HD
ENDBRANCH   9  20
ENDBRANCH   6   8
BRANCH   1  22
ATOM     22  C   UNL     1      19.936  36.056  50.707  0.00  0.00    +0.000 C 
BRANCH  22  23
ATOM     23  C   UNL     1      19.664  34.801  51.503  0.00  0.00    +0.000 C 
BRANCH  23  33
ATOM     24  O   UNL     1      19.505  35.146  54.347  0.00  0.00    +0.000 OA
ATOM     25  C   UNL     1      20.612  34.689  53.809  0.00  0.00    +0.000 A 
ATOM     26  C   UNL     1      21.662  34.380  54.572  0.00  0.00    +0.000 A 
ATOM     27  C   UNL     1      21.749  34.484  55.997  0.00  0.00    +0.000 A 
ATOM     28  C   UNL     1      22.916  34.115  56.601  0.00  0.00    +0.000 A 
ATOM     29  C   UNL     1      24.045  33.641  55.969  0.00  0.00    +0.000 A 
ATOM     30  C   UNL     1      23.984  33.529  54.561  0.00  0.00    +0.000 A 
ATOM     31  C   UNL     1      22.809  33.908  54.033  0.00  0.00    +0.000 A 
ATOM     32 SE   UNL     1      22.310  33.895  52.032  0.00  0.00    +0.000 Se
ATOM     33  N   UNL     1      20.626  34.554  52.486  0.00  0.00    +0.000 N 
ENDBRANCH  23  33
ENDBRANCH  22  23
ENDBRANCH   1  22
TORSDOF 6
ENDMDL
MODEL 3
REMARK VINA RESULT:    -5.688      4.907      7.001
REMARK INTER + INTRA:          -9.616
REMARK INTER:                  -7.517
REMARK INTRA:                  -2.099
REMARK UNBOUND:                -2.099
REMARK  Name = 
REMARK  6 active torsions:
REMARK  status: ('A' for Active; 'I' for Inactive)
REMARK    1  A    between atoms: N_10  and  C_11
REMARK    2  A    between atoms: C_11  and  C_12
REMARK    3  A    between atoms: C_12  and  N_13
REMARK    4  A    between atoms: C_18  and  C_19
REMARK    5  A    between atoms: N_20  and  O_21
REMARK    6  A    between atoms: N_22  and  C_23
REMARK                            x       y       z     vdW  Elec       q    Type
REMARK                         _______ _______ _______ _____ _____    ______ ____
ROOT
ATOM      1  N   UNL     1      13.690  41.456  53.691  0.00  0.00    +0.000 N 
ATOM      2  C   UNL     1      14.519  42.608  53.591  0.00  0.00    +0.000 A 
ATOM      3  N   UNL     1      14.371  43.785  54.184  0.00  0.00    +0.000 NA
ATOM      4  O   UNL     1      15.341  44.552  53.824  0.00  0.00    +0.000 OA
ATOM      5  N   UNL     1      16.161  43.943  53.001  0.00  0.00    +0.000 NA
ATOM      6  C   UNL     1      15.672  42.711  52.830  0.00  0.00    +0.000 A 
ATOM      7  H   UNL     1      13.971  40.591  53.134  0.00  0.00    +0.000 HD
ENDROOT
BRANCH   6   8
ATOM      8  C   UNL     1      16.180  41.602  52.018  0.00  0.00    +0.000 C 
ATOM      9  N   UNL     1      15.488  41.082  51.042  0.00  0.00    +0.000 NA
ATOM     10  N   UNL     1      17.465  41.042  52.266  0.00  0.00    +0.000 N 
ATOM     11  H   UNL     1      18.269  41.713  52.237  0.00  0.00    +0.000 HD
BRANCH  10  12
ATOM     12  C   UNL     1      17.605  39.657  52.550  0.00  0.00    +0.000 A 
ATOM     13  C   UNL     1      16.883  39.075  53.577  0.00  0.00    +0.000 A 
ATOM     14  C   UNL     1      16.979  37.723  53.868  0.00  0.00    +0.000 A 
ATOM     15  C   UNL     1      17.826  36.928  53.104  0.00  0.00    +0.000 A 
ATOM     16  F   UNL     1      17.903  35.611  53.405  0.00  0.00    +0.000 F 
ATOM     17  C   UNL     1      18.548  37.489  52.082  0.00  0.00    +0.000 A 
ATOM     18 BR   UNL     1      19.703  36.388  51.044  0.00  0.00    +0.000 Br
ATOM     19  C   UNL     1      18.435  38.850  51.811  0.00  0.00    +0.000 A 
ENDBRANCH  10  12
BRANCH   9  20
ATOM     20  O   UNL     1      15.929  40.048  50.258  0.00  0.00    +0.000 OA
ATOM     21  H   UNL     1      16.289  40.197  49.306  0.00  0.00    +0.000 HD
ENDBRANCH   9  20
ENDBRANCH   6   8
BRANCH   1  22
ATOM     22  C   UNL     1      12.493  41.392  54.500  0.00  0.00    +0.000 C 
BRANCH  22  23
ATOM     23  C   UNL     1      12.887  41.463  55.956  0.00  0.00    +0.000 C 
BRANCH  23  33
ATOM     24  O   UNL     1      15.589  41.707  56.890  0.00  0.00    +0.000 OA
ATOM     25  C   UNL     1      15.048  40.516  56.772  0.00  0.00    +0.000 A 
ATOM     26  C   UNL     1      15.741  39.420  57.085  0.00  0.00    +0.000 A 
ATOM     27  C   UNL     1      17.087  39.362  57.568  0.00  0.00    +0.000 A 
ATOM     28  C   UNL     1      17.624  38.137  57.836  0.00  0.00    +0.000 A 
ATOM     29  C   UNL     1      16.994  36.921  57.686  0.00  0.00    +0.000 A 
ATOM     30  C   UNL     1      15.663  36.951  57.210  0.00  0.00    +0.000 A 
ATOM     31  C   UNL     1      15.198  38.187  56.967  0.00  0.00    +0.000 A 
ATOM     32 SE   UNL     1      13.316  38.667  56.271  0.00  0.00    +0.000 Se
ATOM     33  N   UNL     1      13.794  40.468  56.331  0.00  0.00    +0.000 N 
ENDBRANCH  23  33
ENDBRANCH  22  23
ENDBRANCH   1  22
TORSDOF 6
ENDMDL
