MODEL 1
REMARK VINA RESULT:    -7.101      0.000      0.000
REMARK INTER + INTRA:         -11.062
REMARK INTER:                  -8.069
REMARK INTRA:                  -2.993
REMARK UNBOUND:                -1.056
REMARK  Name = 
REMARK  8 active torsions:
REMARK  status: ('A' for Active; 'I' for Inactive)
REMARK    1  A    between atoms: C_7  and  O_8
REMARK    2  A    between atoms: C_12  and  C_13
REMARK    3  A    between atoms: C_16  and  O_17
REMARK    4  A    between atoms: O_17  and  C_18
REMARK    5  A    between atoms: C_18  and  C_19
REMARK    6  A    between atoms: C_19  and  N_20
REMARK    7  A    between atoms: C_28  and  C_29
REMARK    8  A    between atoms: C_32  and  O_33
REMARK                            x       y       z     vdW  Elec       q    Type
REMARK                         _______ _______ _______ _____ _____    ______ ____
ROOT
ATOM      1  O   UNL     1      11.148  47.363  43.752  0.00  0.00    +0.000 OA
ATOM      2  C   UNL     1      12.270  46.982  44.070  0.00  0.00    +0.000 C 
ATOM      3  C   UNL     1      13.374  47.926  44.368  0.00  0.00    +0.000 A 
ATOM      4  C   UNL     1      13.393  49.265  43.949  0.00  0.00    +0.000 A 
ATOM      5 CL   UNL     1      12.147  50.000  43.004  0.00  0.00    +0.000 Cl
ATOM      6  C   UNL     1      14.489  50.082  44.263  0.00  0.00    +0.000 A 
ATOM      7  C   UNL     1      15.557  49.559  44.982  0.00  0.00    +0.000 A 
ATOM      8  C   UNL     1      15.550  48.234  45.394  0.00  0.00    +0.000 A 
ATOM      9  C   UNL     1      14.457  47.420  45.097  0.00  0.00    +0.000 A 
ATOM     10  O   UNL     1      14.558  46.130  45.543  0.00  0.00    +0.000 OA
ATOM     11  C   UNL     1      13.325  45.382  45.550  0.00  0.00    +0.000 C 
ATOM     12  C   UNL     1      12.598  45.507  44.195  0.00  0.00    +0.000 C 
ENDROOT
BRANCH  11  13
ATOM     13  C   UNL     1      13.614  43.975  46.068  0.00  0.00    +0.000 A 
ATOM     14  C   UNL     1      12.568  43.218  46.628  0.00  0.00    +0.000 A 
ATOM     15  C   UNL     1      12.774  41.911  47.088  0.00  0.00    +0.000 A 
ATOM     16  C   UNL     1      14.028  41.321  46.986  0.00  0.00    +0.000 A 
ATOM     17  C   UNL     1      15.070  42.055  46.418  0.00  0.00    +0.000 A 
ATOM     18  C   UNL     1      14.869  43.362  45.958  0.00  0.00    +0.000 A 
BRANCH  16  19
ATOM     19  O   UNL     1      14.377  40.065  47.388  0.00  0.00    +0.000 OA
BRANCH  19  20
ATOM     20  C   UNL     1      14.770  39.101  46.411  0.00  0.00    +0.000 C 
BRANCH  20  21
ATOM     21  C   UNL     1      13.588  38.599  45.554  0.00  0.00    +0.000 C 
BRANCH  21  22
ATOM     22  N   UNL     1      13.769  38.639  44.089  0.00  0.00    +0.000 NA
ATOM     23  C   UNL     1      14.822  39.596  43.706  0.00  0.00    +0.000 C 
ATOM     24  C   UNL     1      14.347  40.782  42.856  0.00  0.00    +0.000 C 
ATOM     25  C   UNL     1      13.028  41.337  43.377  0.00  0.00    +0.000 C 
ATOM     26  C   UNL     1      11.957  40.248  43.467  0.00  0.00    +0.000 C 
ATOM     27  C   UNL     1      12.536  38.837  43.328  0.00  0.00    +0.000 C 
ENDBRANCH  21  22
ENDBRANCH  20  21
ENDBRANCH  19  20
ENDBRANCH  16  19
ENDBRANCH  11  13
BRANCH  12  28
ATOM     28  C   UNL     1      13.251  44.990  42.918  0.00  0.00    +0.000 A 
ATOM     29  C   UNL     1      14.591  44.580  42.836  0.00  0.00    +0.000 A 
ATOM     30  C   UNL     1      15.128  44.112  41.632  0.00  0.00    +0.000 A 
ATOM     31  C   UNL     1      14.329  44.055  40.498  0.00  0.00    +0.000 A 
ATOM     32  C   UNL     1      13.002  44.455  40.548  0.00  0.00    +0.000 A 
ATOM     33  C   UNL     1      12.466  44.917  41.751  0.00  0.00    +0.000 A 
BRANCH  31  34
ATOM     34  O   UNL     1      14.815  43.605  39.307  0.00  0.00    +0.000 OA
ATOM     35  H   UNL     1      14.065  43.370  38.737  0.00  0.00    +0.000 HD
ENDBRANCH  31  34
ENDBRANCH  12  28
BRANCH   7  36
ATOM     36  O   UNL     1      16.642  50.318  45.301  0.00  0.00    +0.000 OA
ATOM     37  H   UNL     1      17.068  49.955  46.096  0.00  0.00    +0.000 HD
ENDBRANCH   7  36
TORSDOF 8
ENDMDL
MODEL 2
REMARK VINA RESULT:    -7.088      3.498      7.258
REMARK INTER + INTRA:         -11.045
REMARK INTER:                  -7.821
REMARK INTRA:                  -3.224
REMARK UNBOUND:                -1.056
REMARK  Name = 
REMARK  8 active torsions:
REMARK  status: ('A' for Active; 'I' for Inactive)
REMARK    1  A    between atoms: C_7  and  O_8
REMARK    2  A    between atoms: C_12  and  C_13
REMARK    3  A    between atoms: C_16  and  O_17
REMARK    4  A    between atoms: O_17  and  C_18
REMARK    5  A    between atoms: C_18  and  C_19
REMARK    6  A    between atoms: C_19  and  N_20
REMARK    7  A    between atoms: C_28  and  C_29
REMARK    8  A    between atoms: C_32  and  O_33
REMARK                            x       y       z     vdW  Elec       q    Type
REMARK                         _______ _______ _______ _____ _____    ______ ____
ROOT
ATOM      1  O   UNL     1      16.301  43.728  42.476  0.00  0.00    +0.000 OA
ATOM      2  C   UNL     1      15.499  43.697  43.404  0.00  0.00    +0.000 C 
ATOM      3  C   UNL     1      15.493  42.609  44.410  0.00  0.00    +0.000 A 
ATOM      4  C   UNL     1      16.085  41.353  44.210  0.00  0.00    +0.000 A 
ATOM      5 CL   UNL     1      16.884  40.882  42.752  0.00  0.00    +0.000 Cl
ATOM      6  C   UNL     1      16.015  40.377  45.215  0.00  0.00    +0.000 A 
ATOM      7  C   UNL     1      15.351  40.656  46.404  0.00  0.00    +0.000 A 
ATOM      8  C   UNL     1      14.757  41.893  46.608  0.00  0.00    +0.000 A 
ATOM      9  C   UNL     1      14.834  42.872  45.618  0.00  0.00    +0.000 A 
ATOM     10  O   UNL     1      14.207  44.051  45.920  0.00  0.00    +0.000 OA
ATOM     11  C   UNL     1      14.558  45.169  45.080  0.00  0.00    +0.000 C 
ATOM     12  C   UNL     1      14.463  44.787  43.588  0.00  0.00    +0.000 C 
ENDROOT
BRANCH  11  13
ATOM     13  C   UNL     1      13.773  46.392  45.547  0.00  0.00    +0.000 A 
ATOM     14  C   UNL     1      14.200  47.675  45.158  0.00  0.00    +0.000 A 
ATOM     15  C   UNL     1      13.497  48.828  45.533  0.00  0.00    +0.000 A 
ATOM     16  C   UNL     1      12.339  48.725  46.295  0.00  0.00    +0.000 A 
ATOM     17  C   UNL     1      11.895  47.457  46.673  0.00  0.00    +0.000 A 
ATOM     18  C   UNL     1      12.596  46.304  46.302  0.00  0.00    +0.000 A 
BRANCH  16  19
ATOM     19  O   UNL     1      11.553  49.751  46.732  0.00  0.00    +0.000 OA
BRANCH  19  20
ATOM     20  C   UNL     1      10.208  49.852  46.265  0.00  0.00    +0.000 C 
BRANCH  20  21
ATOM     21  C   UNL     1      10.116  50.332  44.801  0.00  0.00    +0.000 C 
BRANCH  21  22
ATOM     22  N   UNL     1       9.314  49.500  43.881  0.00  0.00    +0.000 NA
ATOM     23  C   UNL     1       9.169  48.125  44.391  0.00  0.00    +0.000 C 
ATOM     24  C   UNL     1       9.801  47.035  43.515  0.00  0.00    +0.000 C 
ATOM     25  C   UNL     1      11.166  47.469  42.999  0.00  0.00    +0.000 C 
ATOM     26  C   UNL     1      11.088  48.806  42.259  0.00  0.00    +0.000 C 
ATOM     27  C   UNL     1       9.759  49.530  42.487  0.00  0.00    +0.000 C 
ENDBRANCH  21  22
ENDBRANCH  20  21
ENDBRANCH  19  20
ENDBRANCH  16  19
ENDBRANCH  11  13
BRANCH  12  28
ATOM     28  C   UNL     1      13.127  44.370  42.982  0.00  0.00    +0.000 A 
ATOM     29  C   UNL     1      12.077  43.801  43.722  0.00  0.00    +0.000 A 
ATOM     30  C   UNL     1      10.875  43.442  43.104  0.00  0.00    +0.000 A 
ATOM     31  C   UNL     1      10.713  43.646  41.739  0.00  0.00    +0.000 A 
ATOM     32  C   UNL     1      11.733  44.204  40.984  0.00  0.00    +0.000 A 
ATOM     33  C   UNL     1      12.931  44.566  41.601  0.00  0.00    +0.000 A 
BRANCH  31  34
ATOM     34  O   UNL     1       9.557  43.310  41.101  0.00  0.00    +0.000 OA
ATOM     35  H   UNL     1       9.023  42.763  41.701  0.00  0.00    +0.000 HD
ENDBRANCH  31  34
ENDBRANCH  12  28
BRANCH   7  36
ATOM     36  O   UNL     1      15.257  39.733  47.401  0.00  0.00    +0.000 OA
ATOM     37  H   UNL     1      14.838  38.926  47.057  0.00  0.00    +0.000 HD
ENDBRANCH   7  36
TORSDOF 8
ENDMDL
MODEL 3
REMARK VINA RESULT:    -6.870      2.550      3.821
REMARK INTER + INTRA:         -10.737
REMARK INTER:                  -9.681
REMARK INTRA:                  -1.056
REMARK UNBOUND:                -1.056
REMARK  Name = 
REMARK  8 active torsions:
REMARK  status: ('A' for Active; 'I' for Inactive)
REMARK    1  A    between atoms: C_7  and  O_8
REMARK    2  A    between atoms: C_12  and  C_13
REMARK    3  A    between atoms: C_16  and  O_17
REMARK    4  A    between atoms: O_17  and  C_18
REMARK    5  A    between atoms: C_18  and  C_19
REMARK    6  A    between atoms: C_19  and  N_20
REMARK    7  A    between atoms: C_28  and  C_29
REMARK    8  A    between atoms: C_32  and  O_33
REMARK                            x       y       z     vdW  Elec       q    Type
REMARK                         _______ _______ _______ _____ _____    ______ ____
ROOT
ATOM      1  O   UNL     1      11.136  47.321  43.767  0.00  0.00    +0.000 OA
ATOM      2  C   UNL     1      12.254  46.922  44.077  0.00  0.00    +0.000 C 
ATOM      3  C   UNL     1      13.369  47.847  44.389  0.00  0.00    +0.000 A 
ATOM      4  C   UNL     1      13.404  49.193  43.995  0.00  0.00    +0.000 A 
ATOM      5 CL   UNL     1      12.165  49.960  43.065  0.00  0.00    +0.000 Cl
ATOM      6  C   UNL     1      14.510  49.992  44.322  0.00  0.00    +0.000 A 
ATOM      7  C   UNL     1      15.572  49.443  45.029  0.00  0.00    +0.000 A 
ATOM      8  C   UNL     1      15.550  48.111  45.418  0.00  0.00    +0.000 A 
ATOM      9  C   UNL     1      14.447  47.315  45.108  0.00  0.00    +0.000 A 
ATOM     10  O   UNL     1      14.534  46.017  45.530  0.00  0.00    +0.000 OA
ATOM     11  C   UNL     1      13.292  45.283  45.526  0.00  0.00    +0.000 C 
ATOM     12  C   UNL     1      12.565  45.441  44.175  0.00  0.00    +0.000 C 
ENDROOT
BRANCH  11  13
ATOM     13  C   UNL     1      13.565  43.864  46.018  0.00  0.00    +0.000 A 
ATOM     14  C   UNL     1      12.524  43.129  46.616  0.00  0.00    +0.000 A 
ATOM     15  C   UNL     1      12.714  41.812  47.055  0.00  0.00    +0.000 A 
ATOM     16  C   UNL     1      13.947  41.191  46.894  0.00  0.00    +0.000 A 
ATOM     17  C   UNL     1      14.983  41.902  46.287  0.00  0.00    +0.000 A 
ATOM     18  C   UNL     1      14.797  43.218  45.849  0.00  0.00    +0.000 A 
BRANCH  16  19
ATOM     19  O   UNL     1      14.279  39.922  47.268  0.00  0.00    +0.000 OA
BRANCH  19  20
ATOM     20  C   UNL     1      14.084  39.517  48.623  0.00  0.00    +0.000 C 
BRANCH  20  21
ATOM     21  C   UNL     1      15.375  39.598  49.465  0.00  0.00    +0.000 C 
BRANCH  21  22
ATOM     22  N   UNL     1      15.205  39.709  50.928  0.00  0.00    +0.000 NA
ATOM     23  C   UNL     1      15.495  41.076  51.398  0.00  0.00    +0.000 C 
ATOM     24  C   UNL     1      16.691  41.198  52.352  0.00  0.00    +0.000 C 
ATOM     25  C   UNL     1      17.857  40.338  51.881  0.00  0.00    +0.000 C 
ATOM     26  C   UNL     1      17.439  38.879  51.692  0.00  0.00    +0.000 C 
ATOM     27  C   UNL     1      15.919  38.694  51.703  0.00  0.00    +0.000 C 
ENDBRANCH  21  22
ENDBRANCH  20  21
ENDBRANCH  19  20
ENDBRANCH  16  19
ENDBRANCH  11  13
BRANCH  12  28
ATOM     28  C   UNL     1      13.210  44.939  42.887  0.00  0.00    +0.000 A 
ATOM     29  C   UNL     1      14.517  44.432  42.815  0.00  0.00    +0.000 A 
ATOM     30  C   UNL     1      15.049  43.985  41.601  0.00  0.00    +0.000 A 
ATOM     31  C   UNL     1      14.277  44.045  40.447  0.00  0.00    +0.000 A 
ATOM     32  C   UNL     1      12.984  44.543  40.488  0.00  0.00    +0.000 A 
ATOM     33  C   UNL     1      12.452  44.985  41.701  0.00  0.00    +0.000 A 
BRANCH  31  34
ATOM     34  O   UNL     1      14.759  43.619  39.246  0.00  0.00    +0.000 OA
ATOM     35  H   UNL     1      14.570  42.671  39.158  0.00  0.00    +0.000 HD
ENDBRANCH  31  34
ENDBRANCH  12  28
BRANCH   7  36
ATOM     36  O   UNL     1      16.666  50.183  45.361  0.00  0.00    +0.000 OA
ATOM     37  H   UNL     1      16.620  50.428  46.301  0.00  0.00    +0.000 HD
ENDBRANCH   7  36
TORSDOF 8
ENDMDL
