MODEL 1
REMARK VINA RESULT:    -6.497      0.000      0.000
REMARK INTER + INTRA:          -9.250
REMARK INTER:                  -8.190
REMARK INTRA:                  -1.061
REMARK UNBOUND:                -1.234
REMARK  Name = 
REMARK  5 active torsions:
REMARK  status: ('A' for Active; 'I' for Inactive)
REMARK    1  A    between atoms: C_1  and  C_2
REMARK    2  A    between atoms: C_8  and  C_9
REMARK    3  A    between atoms: C_13  and  C_14
REMARK    4  A    between atoms: C_25  and  C_26
REMARK    5  A    between atoms: C_30  and  C_31
REMARK                            x       y       z     vdW  Elec       q    Type
REMARK                         _______ _______ _______ _____ _____    ______ ____
ROOT
ATOM      1  C   UNL     1      14.253  43.605  53.899  0.00  0.00    +0.000 C 
ATOM      2  C   UNL     1      15.427  42.842  53.338  0.00  0.00    +0.000 C 
ATOM      3  O   UNL     1      16.363  43.454  52.820  0.00  0.00    +0.000 OA
ATOM      4  N   UNL     1      15.373  41.459  53.450  0.00  0.00    +0.000 N 
ATOM      5  N   UNL     1      16.382  40.703  52.898  0.00  0.00    +0.000 NA
ATOM      6  C   UNL     1      16.021  39.464  52.963  0.00  0.00    +0.000 C 
ATOM      7  C   UNL     1      16.817  38.324  52.439  0.00  0.00    +0.000 C 
ATOM      8  C   UNL     1      17.359  38.508  51.222  0.00  0.00    +0.000 C 
ATOM      9  C   UNL     1      16.914  37.098  53.296  0.00  0.00    +0.000 C 
ATOM     10  S   UNL     1      15.272  36.594  53.781  0.00  0.00    +0.000 S 
ATOM     11  O   UNL     1      14.483  36.335  52.593  0.00  0.00    +0.000 OA
ATOM     12  O   UNL     1      15.398  35.592  54.821  0.00  0.00    +0.000 OA
ATOM     13  C   UNL     1      14.649  38.078  54.543  0.00  0.00    +0.000 C 
ATOM     14  C   UNL     1      14.650  39.221  53.547  0.00  0.00    +0.000 C 
ATOM     15  C   UNL     1      14.322  40.630  54.062  0.00  0.00    +0.000 C 
ENDROOT
BRANCH   8  16
ATOM     16  C   UNL     1      18.145  37.500  50.510  0.00  0.00    +0.000 A 
ATOM     17  C   UNL     1      17.751  37.053  49.244  0.00  0.00    +0.000 A 
ATOM     18  C   UNL     1      18.508  36.092  48.574  0.00  0.00    +0.000 A 
ATOM     19  C   UNL     1      19.662  35.576  49.163  0.00  0.00    +0.000 A 
ATOM     20  C   UNL     1      20.070  36.010  50.433  0.00  0.00    +0.000 A 
ATOM     21  C   UNL     1      19.305  36.985  51.097  0.00  0.00    +0.000 A 
BRANCH  20  22
ATOM     22  C   UNL     1      21.329  35.473  51.069  0.00  0.00    +0.000 C 
ATOM     23  F   UNL     1      21.451  34.123  50.937  0.00  0.00    +0.000 F 
ATOM     24  F   UNL     1      21.386  35.727  52.404  0.00  0.00    +0.000 F 
ATOM     25  F   UNL     1      22.467  36.001  50.537  0.00  0.00    +0.000 F 
ENDBRANCH  20  22
ENDBRANCH   8  16
BRANCH  15  26
ATOM     26  C   UNL     1      14.272  40.767  55.576  0.00  0.00    +0.000 A 
ATOM     27  C   UNL     1      13.059  40.879  56.273  0.00  0.00    +0.000 A 
ATOM     28  C   UNL     1      13.043  41.022  57.661  0.00  0.00    +0.000 A 
ATOM     29  C   UNL     1      14.241  41.060  58.374  0.00  0.00    +0.000 A 
ATOM     30  C   UNL     1      15.468  40.955  57.706  0.00  0.00    +0.000 A 
ATOM     31  C   UNL     1      15.472  40.810  56.307  0.00  0.00    +0.000 A 
BRANCH  30  32
ATOM     32  C   UNL     1      16.775  40.988  58.464  0.00  0.00    +0.000 C 
ATOM     33  F   UNL     1      17.180  42.241  58.806  0.00  0.00    +0.000 F 
ATOM     34  F   UNL     1      17.798  40.444  57.747  0.00  0.00    +0.000 F 
ATOM     35  F   UNL     1      16.715  40.280  59.624  0.00  0.00    +0.000 F 
ENDBRANCH  30  32
ENDBRANCH  15  26
TORSDOF 4
ENDMDL
MODEL 2
REMARK VINA RESULT:    -6.437      3.735      5.220
REMARK INTER + INTRA:          -9.177
REMARK INTER:                  -8.090
REMARK INTRA:                  -1.087
REMARK UNBOUND:                -1.234
REMARK  Name = 
REMARK  5 active torsions:
REMARK  status: ('A' for Active; 'I' for Inactive)
REMARK    1  A    between atoms: C_1  and  C_2
REMARK    2  A    between atoms: C_8  and  C_9
REMARK    3  A    between atoms: C_13  and  C_14
REMARK    4  A    between atoms: C_25  and  C_26
REMARK    5  A    between atoms: C_30  and  C_31
REMARK                            x       y       z     vdW  Elec       q    Type
REMARK                         _______ _______ _______ _____ _____    ______ ____
ROOT
ATOM      1  C   UNL     1      15.069  40.055  49.861  0.00  0.00    +0.000 C 
ATOM      2  C   UNL     1      16.184  39.286  50.526  0.00  0.00    +0.000 C 
ATOM      3  O   UNL     1      17.114  38.848  49.847  0.00  0.00    +0.000 OA
ATOM      4  N   UNL     1      16.083  39.122  51.901  0.00  0.00    +0.000 N 
ATOM      5  N   UNL     1      17.034  38.373  52.556  0.00  0.00    +0.000 NA
ATOM      6  C   UNL     1      16.630  38.209  53.773  0.00  0.00    +0.000 C 
ATOM      7  C   UNL     1      17.355  37.422  54.805  0.00  0.00    +0.000 C 
ATOM      8  C   UNL     1      17.840  36.237  54.393  0.00  0.00    +0.000 C 
ATOM      9  C   UNL     1      17.449  38.009  56.180  0.00  0.00    +0.000 C 
ATOM     10  S   UNL     1      15.817  38.477  56.728  0.00  0.00    +0.000 S 
ATOM     11  O   UNL     1      14.958  37.309  56.720  0.00  0.00    +0.000 OA
ATOM     12  O   UNL     1      15.958  39.287  57.923  0.00  0.00    +0.000 OA
ATOM     13  C   UNL     1      15.290  39.555  55.412  0.00  0.00    +0.000 C 
ATOM     14  C   UNL     1      15.282  38.810  54.093  0.00  0.00    +0.000 C 
ATOM     15  C   UNL     1      15.035  39.615  52.808  0.00  0.00    +0.000 C 
ENDROOT
BRANCH   8  16
ATOM     16  C   UNL     1      18.550  35.293  55.256  0.00  0.00    +0.000 A 
ATOM     17  C   UNL     1      17.876  34.618  56.279  0.00  0.00    +0.000 A 
ATOM     18  C   UNL     1      18.562  33.720  57.097  0.00  0.00    +0.000 A 
ATOM     19  C   UNL     1      19.924  33.491  56.895  0.00  0.00    +0.000 A 
ATOM     20  C   UNL     1      20.616  34.163  55.876  0.00  0.00    +0.000 A 
ATOM     21  C   UNL     1      19.914  35.059  55.052  0.00  0.00    +0.000 A 
BRANCH  20  22
ATOM     22  C   UNL     1      22.084  33.905  55.637  0.00  0.00    +0.000 C 
ATOM     23  F   UNL     1      22.839  35.035  55.729  0.00  0.00    +0.000 F 
ATOM     24  F   UNL     1      22.326  33.390  54.401  0.00  0.00    +0.000 F 
ATOM     25  F   UNL     1      22.626  33.025  56.524  0.00  0.00    +0.000 F 
ENDBRANCH  20  22
ENDBRANCH   8  16
BRANCH  15  26
ATOM     26  C   UNL     1      15.067  41.126  52.979  0.00  0.00    +0.000 A 
ATOM     27  C   UNL     1      16.258  41.862  52.880  0.00  0.00    +0.000 A 
ATOM     28  C   UNL     1      16.260  43.245  53.059  0.00  0.00    +0.000 A 
ATOM     29  C   UNL     1      15.072  43.916  53.345  0.00  0.00    +0.000 A 
ATOM     30  C   UNL     1      13.868  43.209  53.455  0.00  0.00    +0.000 A 
ATOM     31  C   UNL     1      13.876  41.814  53.270  0.00  0.00    +0.000 A 
BRANCH  30  32
ATOM     32  C   UNL     1      12.569  43.921  53.757  0.00  0.00    +0.000 C 
ATOM     33  F   UNL     1      12.037  43.601  54.968  0.00  0.00    +0.000 F 
ATOM     34  F   UNL     1      11.604  43.643  52.837  0.00  0.00    +0.000 F 
ATOM     35  F   UNL     1      12.711  45.275  53.752  0.00  0.00    +0.000 F 
ENDBRANCH  30  32
ENDBRANCH  15  26
TORSDOF 4
ENDMDL
MODEL 3
REMARK VINA RESULT:    -6.409      4.699      5.914
REMARK INTER + INTRA:          -9.142
REMARK INTER:                  -7.908
REMARK INTRA:                  -1.234
REMARK UNBOUND:                -1.234
REMARK  Name = 
REMARK  5 active torsions:
REMARK  status: ('A' for Active; 'I' for Inactive)
REMARK    1  A    between atoms: C_1  and  C_2
REMARK    2  A    between atoms: C_8  and  C_9
REMARK    3  A    between atoms: C_13  and  C_14
REMARK    4  A    between atoms: C_25  and  C_26
REMARK    5  A    between atoms: C_30  and  C_31
REMARK                            x       y       z     vdW  Elec       q    Type
REMARK                         _______ _______ _______ _____ _____    ______ ____
ROOT
ATOM      1  C   UNL     1      16.029  42.248  52.249  0.00  0.00    +0.000 C 
ATOM      2  C   UNL     1      16.863  41.072  52.698  0.00  0.00    +0.000 C 
ATOM      3  O   UNL     1      17.420  41.103  53.797  0.00  0.00    +0.000 OA
ATOM      4  N   UNL     1      16.943  40.003  51.817  0.00  0.00    +0.000 N 
ATOM      5  N   UNL     1      17.741  38.929  52.140  0.00  0.00    +0.000 NA
ATOM      6  C   UNL     1      17.802  38.162  51.102  0.00  0.00    +0.000 C 
ATOM      7  C   UNL     1      18.596  36.908  51.023  0.00  0.00    +0.000 C 
ATOM      8  C   UNL     1      19.842  36.981  51.526  0.00  0.00    +0.000 C 
ATOM      9  C   UNL     1      17.948  35.720  50.380  0.00  0.00    +0.000 C 
ATOM     10  S   UNL     1      17.302  36.197  48.788  0.00  0.00    +0.000 S 
ATOM     11  O   UNL     1      18.384  36.704  47.967  0.00  0.00    +0.000 OA
ATOM     12  O   UNL     1      16.446  35.128  48.310  0.00  0.00    +0.000 OA
ATOM     13  C   UNL     1      16.251  37.568  49.220  0.00  0.00    +0.000 C 
ATOM     14  C   UNL     1      17.061  38.663  49.885  0.00  0.00    +0.000 C 
ATOM     15  C   UNL     1      16.306  39.851  50.499  0.00  0.00    +0.000 C 
ENDROOT
BRANCH   8  16
ATOM     16  C   UNL     1      20.800  35.875  51.514  0.00  0.00    +0.000 A 
ATOM     17  C   UNL     1      20.783  34.907  52.524  0.00  0.00    +0.000 A 
ATOM     18  C   UNL     1      21.700  33.856  52.502  0.00  0.00    +0.000 A 
ATOM     19  C   UNL     1      22.637  33.768  51.472  0.00  0.00    +0.000 A 
ATOM     20  C   UNL     1      22.670  34.732  50.454  0.00  0.00    +0.000 A 
ATOM     21  C   UNL     1      21.736  35.781  50.479  0.00  0.00    +0.000 A 
BRANCH  20  22
ATOM     22  C   UNL     1      23.666  34.631  49.324  0.00  0.00    +0.000 C 
ATOM     23  F   UNL     1      24.804  35.342  49.559  0.00  0.00    +0.000 F 
ATOM     24  F   UNL     1      23.166  35.100  48.148  0.00  0.00    +0.000 F 
ATOM     25  F   UNL     1      24.072  33.354  49.078  0.00  0.00    +0.000 F 
ENDBRANCH  20  22
ENDBRANCH   8  16
BRANCH  15  26
ATOM     26  C   UNL     1      14.798  39.679  50.590  0.00  0.00    +0.000 A 
ATOM     27  C   UNL     1      14.205  38.759  51.469  0.00  0.00    +0.000 A 
ATOM     28  C   UNL     1      12.819  38.609  51.517  0.00  0.00    +0.000 A 
ATOM     29  C   UNL     1      12.003  39.373  50.684  0.00  0.00    +0.000 A 
ATOM     30  C   UNL     1      12.565  40.296  49.793  0.00  0.00    +0.000 A 
ATOM     31  C   UNL     1      13.964  40.441  49.753  0.00  0.00    +0.000 A 
BRANCH  30  32
ATOM     32  C   UNL     1      11.695  41.137  48.887  0.00  0.00    +0.000 C 
ATOM     33  F   UNL     1      10.678  40.445  48.306  0.00  0.00    +0.000 F 
ATOM     34  F   UNL     1      12.404  41.693  47.865  0.00  0.00    +0.000 F 
ATOM     35  F   UNL     1      11.117  42.176  49.549  0.00  0.00    +0.000 F 
ENDBRANCH  30  32
ENDBRANCH  15  26
TORSDOF 4
ENDMDL
