MODEL 1
REMARK VINA RESULT:    -6.818      0.000      0.000
REMARK INTER + INTRA:         -12.331
REMARK INTER:                 -10.092
REMARK INTRA:                  -2.240
REMARK UNBOUND:                -1.926
REMARK  Name = 
REMARK  10 active torsions:
REMARK  status: ('A' for Active; 'I' for Inactive)
REMARK    1  A    between atoms: C_1  and  S_2
REMARK    2  A    between atoms: S_2  and  N_5
REMARK    3  A    between atoms: N_5  and  C_6
REMARK    4  A    between atoms: C_9  and  C_10
REMARK    5  A    between atoms: C_10  and  C_11
REMARK    6  A    between atoms: C_11  and  N_12
REMARK    7  A    between atoms: C_11  and  C_28
REMARK    8  A    between atoms: C_13  and  C_15
REMARK    9  A    between atoms: C_15  and  C_16
REMARK   10  A    between atoms: C_15  and  C_22
REMARK                            x       y       z     vdW  Elec       q    Type
REMARK                         _______ _______ _______ _____ _____    ______ ____
ROOT
ATOM      1  C   UNL     1      21.176  34.808  52.991  0.00  0.00    +0.000 C 
ENDROOT
BRANCH   1   2
ATOM      2  C   UNL     1      21.914  34.457  54.277  0.00  0.00    +0.000 A 
ATOM      3  C   UNL     1      23.214  33.924  54.254  0.00  0.00    +0.000 A 
ATOM      4  C   UNL     1      23.876  33.609  55.443  0.00  0.00    +0.000 A 
ATOM      5  C   UNL     1      23.246  33.820  56.668  0.00  0.00    +0.000 A 
ATOM      6  C   UNL     1      21.956  34.346  56.706  0.00  0.00    +0.000 A 
ATOM      7  C   UNL     1      21.294  34.664  55.519  0.00  0.00    +0.000 A 
ENDBRANCH   1   2
BRANCH   1   8
ATOM      8  N   UNL     1      21.787  34.088  51.877  0.00  0.00    +0.000 N 
ATOM      9  C   UNL     1      22.228  34.747  50.746  0.00  0.00    +0.000 C 
ATOM     10  O   UNL     1      22.008  35.947  50.569  0.00  0.00    +0.000 OA
ATOM     11  H   UNL     1      22.196  33.185  52.086  0.00  0.00    +0.000 HD
BRANCH   9  12
ATOM     12  C   UNL     1      22.950  33.889  49.683  0.00  0.00    +0.000 C 
BRANCH  12  13
ATOM     13  C   UNL     1      24.242  33.244  50.189  0.00  0.00    +0.000 A 
ATOM     14  C   UNL     1      25.169  33.926  50.993  0.00  0.00    +0.000 A 
ATOM     15  C   UNL     1      26.348  33.302  51.410  0.00  0.00    +0.000 A 
ATOM     16  C   UNL     1      26.622  31.992  51.025  0.00  0.00    +0.000 A 
ATOM     17  C   UNL     1      25.717  31.301  50.224  0.00  0.00    +0.000 A 
ATOM     18  C   UNL     1      24.537  31.921  49.808  0.00  0.00    +0.000 A 
ENDBRANCH  12  13
BRANCH  12  19
ATOM     19  C   UNL     1      23.085  34.598  48.329  0.00  0.00    +0.000 A 
ATOM     20  C   UNL     1      24.302  35.227  48.005  0.00  0.00    +0.000 A 
ATOM     21  C   UNL     1      24.479  35.839  46.762  0.00  0.00    +0.000 A 
ATOM     22  C   UNL     1      23.448  35.828  45.824  0.00  0.00    +0.000 A 
ATOM     23  C   UNL     1      22.237  35.206  46.126  0.00  0.00    +0.000 A 
ATOM     24  C   UNL     1      22.056  34.592  47.369  0.00  0.00    +0.000 A 
ENDBRANCH  12  19
ENDBRANCH   9  12
ENDBRANCH   1   8
BRANCH   1  25
ATOM     25  C   UNL     1      19.656  34.522  53.095  0.00  0.00    +0.000 C 
BRANCH  25  29
ATOM     26  C   UNL     1      17.277  38.099  52.628  0.00  0.00    +0.000 A 
ATOM     27  C   UNL     1      17.170  37.336  53.793  0.00  0.00    +0.000 A 
ATOM     28  C   UNL     1      17.928  36.171  53.943  0.00  0.00    +0.000 A 
ATOM     29  C   UNL     1      18.807  35.764  52.932  0.00  0.00    +0.000 A 
ATOM     30  C   UNL     1      18.920  36.545  51.774  0.00  0.00    +0.000 A 
ATOM     31  C   UNL     1      18.162  37.709  51.627  0.00  0.00    +0.000 A 
BRANCH  26  32
ATOM     32  N   UNL     1      16.494  39.285  52.524  0.00  0.00    +0.000 N 
ATOM     33  H   UNL     1      15.984  39.437  51.655  0.00  0.00    +0.000 HD
BRANCH  32  35
ATOM     34  C   UNL     1      16.038  40.825  54.702  0.00  0.00    +0.000 C 
ATOM     35  S   UNL     1      17.019  40.725  53.215  0.00  0.00    +0.000 S 
ATOM     36  O   UNL     1      18.389  40.482  53.617  0.00  0.00    +0.000 OA
ATOM     37  O   UNL     1      16.681  41.841  52.361  0.00  0.00    +0.000 OA
ENDBRANCH  32  35
ENDBRANCH  26  32
ENDBRANCH  25  29
ENDBRANCH   1  25
TORSDOF 9
ENDMDL
MODEL 2
REMARK VINA RESULT:    -6.753      3.003      7.270
REMARK INTER + INTRA:         -12.233
REMARK INTER:                  -9.652
REMARK INTRA:                  -2.581
REMARK UNBOUND:                -1.926
REMARK  Name = 
REMARK  10 active torsions:
REMARK  status: ('A' for Active; 'I' for Inactive)
REMARK    1  A    between atoms: C_1  and  S_2
REMARK    2  A    between atoms: S_2  and  N_5
REMARK    3  A    between atoms: N_5  and  C_6
REMARK    4  A    between atoms: C_9  and  C_10
REMARK    5  A    between atoms: C_10  and  C_11
REMARK    6  A    between atoms: C_11  and  N_12
REMARK    7  A    between atoms: C_11  and  C_28
REMARK    8  A    between atoms: C_13  and  C_15
REMARK    9  A    between atoms: C_15  and  C_16
REMARK   10  A    between atoms: C_15  and  C_22
REMARK                            x       y       z     vdW  Elec       q    Type
REMARK                         _______ _______ _______ _____ _____    ______ ____
ROOT
ATOM      1  C   UNL     1      18.329  36.771  51.320  0.00  0.00    +0.000 C 
ENDROOT
BRANCH   1   2
ATOM      2  C   UNL     1      19.573  36.194  50.655  0.00  0.00    +0.000 A 
ATOM      3  C   UNL     1      19.504  35.536  49.416  0.00  0.00    +0.000 A 
ATOM      4  C   UNL     1      20.655  35.014  48.821  0.00  0.00    +0.000 A 
ATOM      5  C   UNL     1      21.887  35.141  49.458  0.00  0.00    +0.000 A 
ATOM      6  C   UNL     1      21.970  35.789  50.689  0.00  0.00    +0.000 A 
ATOM      7  C   UNL     1      20.822  36.314  51.284  0.00  0.00    +0.000 A 
ENDBRANCH   1   2
BRANCH   1   8
ATOM      8  N   UNL     1      18.376  36.487  52.751  0.00  0.00    +0.000 N 
ATOM      9  C   UNL     1      17.822  35.336  53.279  0.00  0.00    +0.000 C 
ATOM     10  O   UNL     1      17.153  34.566  52.588  0.00  0.00    +0.000 OA
ATOM     11  H   UNL     1      19.104  36.947  53.285  0.00  0.00    +0.000 HD
BRANCH   9  12
ATOM     12  C   UNL     1      18.027  35.100  54.792  0.00  0.00    +0.000 C 
BRANCH  12  13
ATOM     13  C   UNL     1      17.340  36.145  55.674  0.00  0.00    +0.000 A 
ATOM     14  C   UNL     1      17.702  37.501  55.668  0.00  0.00    +0.000 A 
ATOM     15  C   UNL     1      17.061  38.414  56.512  0.00  0.00    +0.000 A 
ATOM     16  C   UNL     1      16.058  37.985  57.378  0.00  0.00    +0.000 A 
ATOM     17  C   UNL     1      15.691  36.642  57.402  0.00  0.00    +0.000 A 
ATOM     18  C   UNL     1      16.326  35.729  56.558  0.00  0.00    +0.000 A 
ENDBRANCH  12  13
BRANCH  12  19
ATOM     19  C   UNL     1      19.489  34.819  55.164  0.00  0.00    +0.000 A 
ATOM     20  C   UNL     1      20.410  34.522  54.142  0.00  0.00    +0.000 A 
ATOM     21  C   UNL     1      21.759  34.309  54.437  0.00  0.00    +0.000 A 
ATOM     22  C   UNL     1      22.208  34.396  55.754  0.00  0.00    +0.000 A 
ATOM     23  C   UNL     1      21.310  34.694  56.779  0.00  0.00    +0.000 A 
ATOM     24  C   UNL     1      19.960  34.907  56.488  0.00  0.00    +0.000 A 
ENDBRANCH  12  19
ENDBRANCH   9  12
ENDBRANCH   1   8
BRANCH   1  25
ATOM     25  C   UNL     1      18.169  38.287  51.040  0.00  0.00    +0.000 C 
BRANCH  25  29
ATOM     26  C   UNL     1      15.683  40.312  53.937  0.00  0.00    +0.000 A 
ATOM     27  C   UNL     1      16.963  40.794  53.656  0.00  0.00    +0.000 A 
ATOM     28  C   UNL     1      17.776  40.135  52.730  0.00  0.00    +0.000 A 
ATOM     29  C   UNL     1      17.311  38.992  52.068  0.00  0.00    +0.000 A 
ATOM     30  C   UNL     1      16.018  38.526  52.343  0.00  0.00    +0.000 A 
ATOM     31  C   UNL     1      15.208  39.187  53.270  0.00  0.00    +0.000 A 
BRANCH  26  32
ATOM     32  N   UNL     1      14.886  41.024  54.880  0.00  0.00    +0.000 N 
ATOM     33  H   UNL     1      14.329  40.475  55.534  0.00  0.00    +0.000 HD
BRANCH  32  35
ATOM     34  C   UNL     1      13.500  42.107  52.824  0.00  0.00    +0.000 C 
ATOM     35  S   UNL     1      14.131  42.465  54.454  0.00  0.00    +0.000 S 
ATOM     36  O   UNL     1      12.994  42.581  55.342  0.00  0.00    +0.000 OA
ATOM     37  O   UNL     1      15.107  43.526  54.351  0.00  0.00    +0.000 OA
ENDBRANCH  32  35
ENDBRANCH  26  32
ENDBRANCH  25  29
ENDBRANCH   1  25
TORSDOF 9
ENDMDL
MODEL 3
REMARK VINA RESULT:    -6.740      3.463     10.459
REMARK INTER + INTRA:         -12.213
REMARK INTER:                 -10.287
REMARK INTRA:                  -1.926
REMARK UNBOUND:                -1.926
REMARK  Name = 
REMARK  10 active torsions:
REMARK  status: ('A' for Active; 'I' for Inactive)
REMARK    1  A    between atoms: C_1  and  S_2
REMARK    2  A    between atoms: S_2  and  N_5
REMARK    3  A    between atoms: N_5  and  C_6
REMARK    4  A    between atoms: C_9  and  C_10
REMARK    5  A    between atoms: C_10  and  C_11
REMARK    6  A    between atoms: C_11  and  N_12
REMARK    7  A    between atoms: C_11  and  C_28
REMARK    8  A    between atoms: C_13  and  C_15
REMARK    9  A    between atoms: C_15  and  C_16
REMARK   10  A    between atoms: C_15  and  C_22
REMARK                            x       y       z     vdW  Elec       q    Type
REMARK                         _______ _______ _______ _____ _____    ______ ____
ROOT
ATOM      1  C   UNL     1      17.386  38.194  50.144  0.00  0.00    +0.000 C 
ENDROOT
BRANCH   1   2
ATOM      2  C   UNL     1      16.711  38.757  48.899  0.00  0.00    +0.000 A 
ATOM      3  C   UNL     1      17.276  38.598  47.622  0.00  0.00    +0.000 A 
ATOM      4  C   UNL     1      16.643  39.120  46.493  0.00  0.00    +0.000 A 
ATOM      5  C   UNL     1      15.440  39.810  46.625  0.00  0.00    +0.000 A 
ATOM      6  C   UNL     1      14.868  39.978  47.885  0.00  0.00    +0.000 A 
ATOM      7  C   UNL     1      15.498  39.454  49.015  0.00  0.00    +0.000 A 
ENDBRANCH   1   2
BRANCH   1   8
ATOM      8  N   UNL     1      16.593  38.545  51.318  0.00  0.00    +0.000 N 
ATOM      9  C   UNL     1      17.122  39.295  52.351  0.00  0.00    +0.000 C 
ATOM     10  O   UNL     1      18.318  39.589  52.388  0.00  0.00    +0.000 OA
ATOM     11  H   UNL     1      15.586  38.540  51.208  0.00  0.00    +0.000 HD
BRANCH   9  12
ATOM     12  C   UNL     1      16.154  39.688  53.489  0.00  0.00    +0.000 C 
BRANCH  12  13
ATOM     13  C   UNL     1      15.690  41.144  53.423  0.00  0.00    +0.000 A 
ATOM     14  C   UNL     1      16.528  42.192  53.010  0.00  0.00    +0.000 A 
ATOM     15  C   UNL     1      16.066  43.511  52.992  0.00  0.00    +0.000 A 
ATOM     16  C   UNL     1      14.764  43.805  53.393  0.00  0.00    +0.000 A 
ATOM     17  C   UNL     1      13.920  42.779  53.811  0.00  0.00    +0.000 A 
ATOM     18  C   UNL     1      14.378  41.460  53.827  0.00  0.00    +0.000 A 
ENDBRANCH  12  13
BRANCH  12  19
ATOM     19  C   UNL     1      16.639  39.239  54.873  0.00  0.00    +0.000 A 
ATOM     20  C   UNL     1      16.672  40.177  55.923  0.00  0.00    +0.000 A 
ATOM     21  C   UNL     1      17.060  39.794  57.209  0.00  0.00    +0.000 A 
ATOM     22  C   UNL     1      17.416  38.471  57.467  0.00  0.00    +0.000 A 
ATOM     23  C   UNL     1      17.386  37.527  56.439  0.00  0.00    +0.000 A 
ATOM     24  C   UNL     1      16.998  37.907  55.151  0.00  0.00    +0.000 A 
ENDBRANCH  12  19
ENDBRANCH   9  12
ENDBRANCH   1   8
BRANCH   1  25
ATOM     25  C   UNL     1      17.615  36.665  50.041  0.00  0.00    +0.000 C 
BRANCH  25  29
ATOM     26  C   UNL     1      21.778  35.514  50.174  0.00  0.00    +0.000 A 
ATOM     27  C   UNL     1      21.227  36.265  51.214  0.00  0.00    +0.000 A 
ATOM     28  C   UNL     1      19.885  36.650  51.169  0.00  0.00    +0.000 A 
ATOM     29  C   UNL     1      19.078  36.280  50.087  0.00  0.00    +0.000 A 
ATOM     30  C   UNL     1      19.635  35.512  49.056  0.00  0.00    +0.000 A 
ATOM     31  C   UNL     1      20.977  35.127  49.103  0.00  0.00    +0.000 A 
BRANCH  26  32
ATOM     32  N   UNL     1      23.148  35.133  50.268  0.00  0.00    +0.000 N 
ATOM     33  H   UNL     1      23.782  35.474  49.547  0.00  0.00    +0.000 HD
BRANCH  32  35
ATOM     34  C   UNL     1      23.832  32.696  49.312  0.00  0.00    +0.000 C 
ATOM     35  S   UNL     1      23.579  33.606  50.825  0.00  0.00    +0.000 S 
ATOM     36  O   UNL     1      24.875  33.776  51.449  0.00  0.00    +0.000 OA
ATOM     37  O   UNL     1      22.478  33.010  51.547  0.00  0.00    +0.000 OA
ENDBRANCH  32  35
ENDBRANCH  26  32
ENDBRANCH  25  29
ENDBRANCH   1  25
TORSDOF 9
ENDMDL
