MODEL 1
REMARK VINA RESULT:    -7.086      0.000      0.000
REMARK INTER + INTRA:          -8.618
REMARK INTER:                  -8.258
REMARK INTRA:                  -0.360
REMARK UNBOUND:                -0.497
REMARK  Name = 
REMARK  8 active torsions:
REMARK  status: ('A' for Active; 'I' for Inactive)
REMARK    1  A    between atoms: C_1  and  C_2
REMARK    2  A    between atoms: C_7  and  C_8
REMARK    3  A    between atoms: C_13  and  C_14
REMARK    4  A    between atoms: C_14  and  O_16
REMARK    5  A    between atoms: C_21  and  C_22
REMARK    6  A    between atoms: C_21  and  C_23
REMARK    7  A    between atoms: C_26  and  C_27
REMARK    8  A    between atoms: C_26  and  C_28
REMARK                            x       y       z     vdW  Elec       q    Type
REMARK                         _______ _______ _______ _____ _____    ______ ____
ROOT
ATOM      1  C   UNL     1      14.724  41.098  48.173  0.00  0.00    +0.000 C 
ATOM      2  C   UNL     1      15.093  40.789  46.746  0.00  0.00    +0.000 A 
ATOM      3  C   UNL     1      15.789  39.603  46.459  0.00  0.00    +0.000 A 
ATOM      4  C   UNL     1      16.177  39.247  45.147  0.00  0.00    +0.000 A 
ATOM      5  C   UNL     1      15.812  40.099  44.083  0.00  0.00    +0.000 A 
ATOM      6  C   UNL     1      15.133  41.301  44.389  0.00  0.00    +0.000 A 
ATOM      7  C   UNL     1      14.770  41.661  45.698  0.00  0.00    +0.000 A 
ATOM      8  C   UNL     1      16.160  39.790  42.621  0.00  0.00    +0.000 C 
ATOM      9  C   UNL     1      17.303  40.729  42.174  0.00  0.00    +0.000 C 
ATOM     10  C   UNL     1      14.952  40.013  41.680  0.00  0.00    +0.000 C 
ATOM     11  C   UNL     1      16.589  38.318  42.437  0.00  0.00    +0.000 C 
ATOM     12  C   UNL     1      17.566  37.871  43.512  0.00  0.00    +0.000 C 
ATOM     13  C   UNL     1      16.941  37.934  44.924  0.00  0.00    +0.000 C 
ATOM     14  C   UNL     1      15.964  36.753  45.119  0.00  0.00    +0.000 C 
ATOM     15  C   UNL     1      18.109  37.769  45.925  0.00  0.00    +0.000 C 
ENDROOT
BRANCH   7  16
ATOM     16  C   UNL     1      14.063  42.929  45.919  0.00  0.00    +0.000 A 
ATOM     17  C   UNL     1      12.817  42.953  46.556  0.00  0.00    +0.000 A 
ATOM     18  C   UNL     1      12.147  44.160  46.770  0.00  0.00    +0.000 A 
ATOM     19  C   UNL     1      12.710  45.374  46.350  0.00  0.00    +0.000 A 
ATOM     20  C   UNL     1      12.048  46.596  46.557  0.00  0.00    +0.000 A 
ATOM     21  C   UNL     1      12.621  47.802  46.136  0.00  0.00    +0.000 A 
ATOM     22  C   UNL     1      13.867  47.792  45.501  0.00  0.00    +0.000 A 
ATOM     23  C   UNL     1      14.534  46.583  45.289  0.00  0.00    +0.000 A 
ATOM     24  C   UNL     1      13.969  45.368  45.708  0.00  0.00    +0.000 A 
ATOM     25  C   UNL     1      14.629  44.145  45.502  0.00  0.00    +0.000 A 
BRANCH  21  26
ATOM     26  C   UNL     1      11.874  49.058  46.383  0.00  0.00    +0.000 C 
ATOM     27  O   UNL     1      10.663  49.176  46.401  0.00  0.00    +0.000 OA
BRANCH  26  28
ATOM     28  O   UNL     1      12.680  50.113  46.597  0.00  0.00    +0.000 OA
ATOM     29  H   UNL     1      13.564  49.710  46.725  0.00  0.00    +0.000 HD
ENDBRANCH  26  28
ENDBRANCH  21  26
ENDBRANCH   7  16
TORSDOF 3
ENDMDL
MODEL 2
REMARK VINA RESULT:    -6.912      7.932     10.361
REMARK INTER + INTRA:          -8.419
REMARK INTER:                  -7.922
REMARK INTRA:                  -0.497
REMARK UNBOUND:                -0.497
REMARK  Name = 
REMARK  8 active torsions:
REMARK  status: ('A' for Active; 'I' for Inactive)
REMARK    1  A    between atoms: C_1  and  C_2
REMARK    2  A    between atoms: C_7  and  C_8
REMARK    3  A    between atoms: C_13  and  C_14
REMARK    4  A    between atoms: C_14  and  O_16
REMARK    5  A    between atoms: C_21  and  C_22
REMARK    6  A    between atoms: C_21  and  C_23
REMARK    7  A    between atoms: C_26  and  C_27
REMARK    8  A    between atoms: C_26  and  C_28
REMARK                            x       y       z     vdW  Elec       q    Type
REMARK                         _______ _______ _______ _____ _____    ______ ____
ROOT
ATOM      1  C   UNL     1      16.261  38.493  49.819  0.00  0.00    +0.000 C 
ATOM      2  C   UNL     1      17.453  37.574  49.812  0.00  0.00    +0.000 A 
ATOM      3  C   UNL     1      17.764  36.861  48.642  0.00  0.00    +0.000 A 
ATOM      4  C   UNL     1      18.861  35.973  48.560  0.00  0.00    +0.000 A 
ATOM      5  C   UNL     1      19.699  35.834  49.687  0.00  0.00    +0.000 A 
ATOM      6  C   UNL     1      19.361  36.538  50.865  0.00  0.00    +0.000 A 
ATOM      7  C   UNL     1      18.256  37.403  50.948  0.00  0.00    +0.000 A 
ATOM      8  C   UNL     1      20.930  34.918  49.691  0.00  0.00    +0.000 C 
ATOM      9  C   UNL     1      20.612  33.664  50.535  0.00  0.00    +0.000 C 
ATOM     10  C   UNL     1      22.166  35.617  50.308  0.00  0.00    +0.000 C 
ATOM     11  C   UNL     1      21.334  34.500  48.261  0.00  0.00    +0.000 C 
ATOM     12  C   UNL     1      20.133  34.075  47.432  0.00  0.00    +0.000 C 
ATOM     13  C   UNL     1      19.123  35.229  47.243  0.00  0.00    +0.000 C 
ATOM     14  C   UNL     1      19.665  36.237  46.204  0.00  0.00    +0.000 C 
ATOM     15  C   UNL     1      17.833  34.591  46.674  0.00  0.00    +0.000 C 
ENDROOT
BRANCH   7  16
ATOM     16  C   UNL     1      17.986  38.095  52.215  0.00  0.00    +0.000 A 
ATOM     17  C   UNL     1      18.105  39.486  52.309  0.00  0.00    +0.000 A 
ATOM     18  C   UNL     1      17.844  40.146  53.513  0.00  0.00    +0.000 A 
ATOM     19  C   UNL     1      17.455  39.426  54.653  0.00  0.00    +0.000 A 
ATOM     20  C   UNL     1      17.190  40.074  55.870  0.00  0.00    +0.000 A 
ATOM     21  C   UNL     1      16.801  39.345  57.001  0.00  0.00    +0.000 A 
ATOM     22  C   UNL     1      16.675  37.955  56.919  0.00  0.00    +0.000 A 
ATOM     23  C   UNL     1      16.936  37.299  55.713  0.00  0.00    +0.000 A 
ATOM     24  C   UNL     1      17.327  38.021  54.573  0.00  0.00    +0.000 A 
ATOM     25  C   UNL     1      17.592  37.374  53.354  0.00  0.00    +0.000 A 
BRANCH  21  26
ATOM     26  C   UNL     1      16.534  40.086  58.257  0.00  0.00    +0.000 C 
ATOM     27  O   UNL     1      15.440  40.274  58.755  0.00  0.00    +0.000 OA
BRANCH  26  28
ATOM     28  O   UNL     1      17.653  40.560  58.831  0.00  0.00    +0.000 OA
ATOM     29  H   UNL     1      17.784  41.432  58.405  0.00  0.00    +0.000 HD
ENDBRANCH  26  28
ENDBRANCH  21  26
ENDBRANCH   7  16
TORSDOF 3
ENDMDL
MODEL 3
REMARK VINA RESULT:    -6.784      8.704     13.300
REMARK INTER + INTRA:          -8.272
REMARK INTER:                  -7.748
REMARK INTRA:                  -0.524
REMARK UNBOUND:                -0.497
REMARK  Name = 
REMARK  8 active torsions:
REMARK  status: ('A' for Active; 'I' for Inactive)
REMARK    1  A    between atoms: C_1  and  C_2
REMARK    2  A    between atoms: C_7  and  C_8
REMARK    3  A    between atoms: C_13  and  C_14
REMARK    4  A    between atoms: C_14  and  O_16
REMARK    5  A    between atoms: C_21  and  C_22
REMARK    6  A    between atoms: C_21  and  C_23
REMARK    7  A    between atoms: C_26  and  C_27
REMARK    8  A    between atoms: C_26  and  C_28
REMARK                            x       y       z     vdW  Elec       q    Type
REMARK                         _______ _______ _______ _____ _____    ______ ____
ROOT
ATOM      1  C   UNL     1      18.690  35.321  48.654  0.00  0.00    +0.000 C 
ATOM      2  C   UNL     1      18.344  36.306  49.738  0.00  0.00    +0.000 A 
ATOM      3  C   UNL     1      17.200  37.109  49.598  0.00  0.00    +0.000 A 
ATOM      4  C   UNL     1      16.814  38.061  50.568  0.00  0.00    +0.000 A 
ATOM      5  C   UNL     1      17.588  38.176  51.743  0.00  0.00    +0.000 A 
ATOM      6  C   UNL     1      18.750  37.380  51.860  0.00  0.00    +0.000 A 
ATOM      7  C   UNL     1      19.142  36.450  50.882  0.00  0.00    +0.000 A 
ATOM      8  C   UNL     1      17.239  39.159  52.868  0.00  0.00    +0.000 C 
ATOM      9  C   UNL     1      18.237  40.337  52.825  0.00  0.00    +0.000 C 
ATOM     10  C   UNL     1      17.331  38.495  54.263  0.00  0.00    +0.000 C 
ATOM     11  C   UNL     1      15.795  39.690  52.732  0.00  0.00    +0.000 C 
ATOM     12  C   UNL     1      15.470  40.097  51.304  0.00  0.00    +0.000 C 
ATOM     13  C   UNL     1      15.551  38.901  50.329  0.00  0.00    +0.000 C 
ATOM     14  C   UNL     1      14.312  37.994  50.506  0.00  0.00    +0.000 C 
ATOM     15  C   UNL     1      15.517  39.499  48.903  0.00  0.00    +0.000 C 
ENDROOT
BRANCH   7  16
ATOM     16  C   UNL     1      20.365  35.664  51.094  0.00  0.00    +0.000 A 
ATOM     17  C   UNL     1      20.426  34.696  52.102  0.00  0.00    +0.000 A 
ATOM     18  C   UNL     1      21.588  33.945  52.301  0.00  0.00    +0.000 A 
ATOM     19  C   UNL     1      22.716  34.145  51.493  0.00  0.00    +0.000 A 
ATOM     20  C   UNL     1      23.891  33.399  51.681  0.00  0.00    +0.000 A 
ATOM     21  C   UNL     1      25.010  33.607  50.865  0.00  0.00    +0.000 A 
ATOM     22  C   UNL     1      24.960  34.569  49.852  0.00  0.00    +0.000 A 
ATOM     23  C   UNL     1      23.797  35.318  49.656  0.00  0.00    +0.000 A 
ATOM     24  C   UNL     1      22.668  35.117  50.467  0.00  0.00    +0.000 A 
ATOM     25  C   UNL     1      21.492  35.863  50.281  0.00  0.00    +0.000 A 
BRANCH  21  26
ATOM     26  C   UNL     1      26.221  32.788  51.113  0.00  0.00    +0.000 C 
ATOM     27  O   UNL     1      26.239  31.672  51.597  0.00  0.00    +0.000 OA
BRANCH  26  28
ATOM     28  O   UNL     1      27.356  33.406  50.742  0.00  0.00    +0.000 OA
ATOM     29  H   UNL     1      27.061  34.306  50.492  0.00  0.00    +0.000 HD
ENDBRANCH  26  28
ENDBRANCH  21  26
ENDBRANCH   7  16
TORSDOF 3
ENDMDL
