MODEL 1
REMARK VINA RESULT:    -7.008      0.000      0.000
REMARK INTER + INTRA:         -12.127
REMARK INTER:                 -10.285
REMARK INTRA:                  -1.842
REMARK UNBOUND:                -1.842
REMARK  Name = 
REMARK  9 active torsions:
REMARK  status: ('A' for Active; 'I' for Inactive)
REMARK    1  A    between atoms: C_1  and  C_2
REMARK    2  A    between atoms: C_2  and  C_3
REMARK    3  A    between atoms: C_3  and  C_4
REMARK    4  A    between atoms: C_4  and  C_5
REMARK    5  A    between atoms: C_10  and  C_11
REMARK    6  A    between atoms: N_21  and  C_22
REMARK    7  A    between atoms: C_22  and  C_23
REMARK    8  A    between atoms: C_26  and  C_27
REMARK    9  A    between atoms: C_32  and  C_33
REMARK                            x       y       z     vdW  Elec       q    Type
REMARK                         _______ _______ _______ _____ _____    ______ ____
ROOT
ATOM      1  C   UNL     1      18.320  35.433  53.221  0.00  0.00    +0.000 A 
ATOM      2  N   UNL     1      18.100  36.177  54.260  0.00  0.00    +0.000 NA
ATOM      3  C   UNL     1      17.568  37.454  54.085  0.00  0.00    +0.000 A 
ATOM      4  C   UNL     1      17.337  38.251  55.204  0.00  0.00    +0.000 A 
ATOM      5  C   UNL     1      16.802  39.538  55.065  0.00  0.00    +0.000 A 
ATOM      6  C   UNL     1      16.477  40.069  53.802  0.00  0.00    +0.000 A 
ATOM      7  C   UNL     1      16.726  39.257  52.684  0.00  0.00    +0.000 A 
ATOM      8  C   UNL     1      17.263  37.968  52.834  0.00  0.00    +0.000 A 
ATOM      9  C   UNL     1      17.526  37.110  51.667  0.00  0.00    +0.000 A 
ATOM     10  O   UNL     1      17.269  37.542  50.545  0.00  0.00    +0.000 OA
ATOM     11  N   UNL     1      18.051  35.843  51.923  0.00  0.00    +0.000 N 
ENDROOT
BRANCH   6  12
ATOM     12  C   UNL     1      15.908  41.427  53.680  0.00  0.00    +0.000 A 
ATOM     13  C   UNL     1      16.539  42.459  52.984  0.00  0.00    +0.000 A 
ATOM     14  C   UNL     1      15.933  43.712  52.919  0.00  0.00    +0.000 A 
ATOM     15  C   UNL     1      14.713  43.912  53.546  0.00  0.00    +0.000 A 
ATOM     16  C   UNL     1      14.145  42.842  54.210  0.00  0.00    +0.000 A 
ATOM     17  N   UNL     1      14.708  41.616  54.285  0.00  0.00    +0.000 NA
ENDBRANCH   6  12
BRANCH   1  18
ATOM     18  C   UNL     1      18.907  34.041  53.445  0.00  0.00    +0.000 C 
BRANCH  18  19
ATOM     19  C   UNL     1      19.934  33.965  54.578  0.00  0.00    +0.000 C 
BRANCH  19  21
ATOM     20  C   UNL     1      22.320  34.601  55.229  0.00  0.00    +0.000 C 
ATOM     21  C   UNL     1      21.370  34.210  54.108  0.00  0.00    +0.000 C 
ENDBRANCH  19  21
ENDBRANCH  18  19
ENDBRANCH   1  18
BRANCH  11  22
ATOM     22  C   UNL     1      18.292  34.994  50.750  0.00  0.00    +0.000 C 
BRANCH  22  23
ATOM     23  C   UNL     1      19.740  34.988  50.306  0.00  0.00    +0.000 A 
ATOM     24  C   UNL     1      20.672  35.846  50.908  0.00  0.00    +0.000 A 
ATOM     25  C   UNL     1      22.018  35.811  50.534  0.00  0.00    +0.000 A 
ATOM     26  C   UNL     1      22.466  34.929  49.541  0.00  0.00    +0.000 A 
ATOM     27  C   UNL     1      21.522  34.108  48.906  0.00  0.00    +0.000 A 
ATOM     28  C   UNL     1      20.177  34.137  49.283  0.00  0.00    +0.000 A 
BRANCH  26  29
ATOM     29  C   UNL     1      23.891  34.869  49.171  0.00  0.00    +0.000 A 
ATOM     30  C   UNL     1      24.328  35.621  48.060  0.00  0.00    +0.000 A 
ATOM     31  C   UNL     1      25.654  35.574  47.627  0.00  0.00    +0.000 A 
ATOM     32  C   UNL     1      26.573  34.770  48.292  0.00  0.00    +0.000 A 
ATOM     33  C   UNL     1      26.166  34.019  49.396  0.00  0.00    +0.000 A 
ATOM     34  C   UNL     1      24.836  34.068  49.854  0.00  0.00    +0.000 A 
BRANCH  34  35
ATOM     35  C   UNL     1      24.494  33.275  51.027  0.00  0.00    +0.000 A 
ATOM     36  N   UNL     1      25.032  33.533  52.269  0.00  0.00    +0.000 NA
ATOM     37  N   UNL     1      24.515  32.640  53.102  0.00  0.00    +0.000 NA
ATOM     38  N   UNL     1      23.691  31.910  52.341  0.00  0.00    +0.000 N 
ATOM     39  N   UNL     1      23.605  32.267  51.054  0.00  0.00    +0.000 NA
ATOM     40  H   UNL     1      23.161  31.133  52.725  0.00  0.00    +0.000 HD
ENDBRANCH  34  35
ENDBRANCH  26  29
ENDBRANCH  22  23
ENDBRANCH  11  22
TORSDOF 8
ENDMDL
MODEL 2
REMARK VINA RESULT:    -6.986      6.226      8.685
REMARK INTER + INTRA:         -12.094
REMARK INTER:                  -9.559
REMARK INTRA:                  -2.535
REMARK UNBOUND:                -1.842
REMARK  Name = 
REMARK  9 active torsions:
REMARK  status: ('A' for Active; 'I' for Inactive)
REMARK    1  A    between atoms: C_1  and  C_2
REMARK    2  A    between atoms: C_2  and  C_3
REMARK    3  A    between atoms: C_3  and  C_4
REMARK    4  A    between atoms: C_4  and  C_5
REMARK    5  A    between atoms: C_10  and  C_11
REMARK    6  A    between atoms: N_21  and  C_22
REMARK    7  A    between atoms: C_22  and  C_23
REMARK    8  A    between atoms: C_26  and  C_27
REMARK    9  A    between atoms: C_32  and  C_33
REMARK                            x       y       z     vdW  Elec       q    Type
REMARK                         _______ _______ _______ _____ _____    ______ ____
ROOT
ATOM      1  C   UNL     1      15.031  39.776  45.068  0.00  0.00    +0.000 A 
ATOM      2  N   UNL     1      15.331  40.765  44.285  0.00  0.00    +0.000 NA
ATOM      3  C   UNL     1      14.896  42.049  44.609  0.00  0.00    +0.000 A 
ATOM      4  C   UNL     1      15.217  43.107  43.762  0.00  0.00    +0.000 A 
ATOM      5  C   UNL     1      14.798  44.411  44.058  0.00  0.00    +0.000 A 
ATOM      6  C   UNL     1      14.048  44.700  45.213  0.00  0.00    +0.000 A 
ATOM      7  C   UNL     1      13.723  43.620  46.051  0.00  0.00    +0.000 A 
ATOM      8  C   UNL     1      14.147  42.317  45.745  0.00  0.00    +0.000 A 
ATOM      9  C   UNL     1      13.812  41.181  46.618  0.00  0.00    +0.000 A 
ATOM     10  O   UNL     1      13.146  41.388  47.630  0.00  0.00    +0.000 OA
ATOM     11  N   UNL     1      14.290  39.928  46.232  0.00  0.00    +0.000 N 
ENDROOT
BRANCH   6  12
ATOM     12  C   UNL     1      13.622  46.084  45.509  0.00  0.00    +0.000 A 
ATOM     13  C   UNL     1      12.496  46.388  46.276  0.00  0.00    +0.000 A 
ATOM     14  C   UNL     1      12.164  47.722  46.505  0.00  0.00    +0.000 A 
ATOM     15  C   UNL     1      12.959  48.723  45.969  0.00  0.00    +0.000 A 
ATOM     16  C   UNL     1      14.061  48.346  45.227  0.00  0.00    +0.000 A 
ATOM     17  N   UNL     1      14.408  47.061  44.992  0.00  0.00    +0.000 NA
ENDBRANCH   6  12
BRANCH   1  18
ATOM     18  C   UNL     1      15.517  38.380  44.684  0.00  0.00    +0.000 C 
BRANCH  18  19
ATOM     19  C   UNL     1      17.041  38.228  44.665  0.00  0.00    +0.000 C 
BRANCH  19  21
ATOM     20  C   UNL     1      19.015  36.964  45.679  0.00  0.00    +0.000 C 
ATOM     21  C   UNL     1      17.528  36.955  45.363  0.00  0.00    +0.000 C 
ENDBRANCH  19  21
ENDBRANCH  18  19
ENDBRANCH   1  18
BRANCH  11  22
ATOM     22  C   UNL     1      13.961  38.808  47.122  0.00  0.00    +0.000 C 
BRANCH  22  23
ATOM     23  C   UNL     1      15.163  38.267  47.868  0.00  0.00    +0.000 A 
ATOM     24  C   UNL     1      15.207  36.923  48.266  0.00  0.00    +0.000 A 
ATOM     25  C   UNL     1      16.333  36.409  48.914  0.00  0.00    +0.000 A 
ATOM     26  C   UNL     1      17.438  37.224  49.193  0.00  0.00    +0.000 A 
ATOM     27  C   UNL     1      17.370  38.580  48.838  0.00  0.00    +0.000 A 
ATOM     28  C   UNL     1      16.248  39.095  48.185  0.00  0.00    +0.000 A 
BRANCH  26  29
ATOM     29  C   UNL     1      18.638  36.673  49.846  0.00  0.00    +0.000 A 
ATOM     30  C   UNL     1      19.479  35.823  49.098  0.00  0.00    +0.000 A 
ATOM     31  C   UNL     1      20.607  35.231  49.669  0.00  0.00    +0.000 A 
ATOM     32  C   UNL     1      20.917  35.470  51.002  0.00  0.00    +0.000 A 
ATOM     33  C   UNL     1      20.102  36.310  51.763  0.00  0.00    +0.000 A 
ATOM     34  C   UNL     1      18.971  36.927  51.198  0.00  0.00    +0.000 A 
BRANCH  34  35
ATOM     35  C   UNL     1      18.184  37.809  52.049  0.00  0.00    +0.000 A 
ATOM     36  N   UNL     1      17.169  37.339  52.853  0.00  0.00    +0.000 NA
ATOM     37  N   UNL     1      16.667  38.390  53.488  0.00  0.00    +0.000 NA
ATOM     38  N   UNL     1      17.401  39.423  53.059  0.00  0.00    +0.000 N 
ATOM     39  N   UNL     1      18.379  39.131  52.191  0.00  0.00    +0.000 NA
ATOM     40  H   UNL     1      17.226  40.370  53.380  0.00  0.00    +0.000 HD
ENDBRANCH  34  35
ENDBRANCH  26  29
ENDBRANCH  22  23
ENDBRANCH  11  22
TORSDOF 8
ENDMDL
MODEL 3
REMARK VINA RESULT:    -6.895      6.011     10.558
REMARK INTER + INTRA:         -11.961
REMARK INTER:                  -9.357
REMARK INTRA:                  -2.604
REMARK UNBOUND:                -1.842
REMARK  Name = 
REMARK  9 active torsions:
REMARK  status: ('A' for Active; 'I' for Inactive)
REMARK    1  A    between atoms: C_1  and  C_2
REMARK    2  A    between atoms: C_2  and  C_3
REMARK    3  A    between atoms: C_3  and  C_4
REMARK    4  A    between atoms: C_4  and  C_5
REMARK    5  A    between atoms: C_10  and  C_11
REMARK    6  A    between atoms: N_21  and  C_22
REMARK    7  A    between atoms: C_22  and  C_23
REMARK    8  A    between atoms: C_26  and  C_27
REMARK    9  A    between atoms: C_32  and  C_33
REMARK                            x       y       z     vdW  Elec       q    Type
REMARK                         _______ _______ _______ _____ _____    ______ ____
ROOT
ATOM      1  C   UNL     1      16.763  37.106  49.707  0.00  0.00    +0.000 A 
ATOM      2  N   UNL     1      17.601  37.161  50.694  0.00  0.00    +0.000 NA
ATOM      3  C   UNL     1      18.870  36.603  50.545  0.00  0.00    +0.000 A 
ATOM      4  C   UNL     1      19.766  36.661  51.611  0.00  0.00    +0.000 A 
ATOM      5  C   UNL     1      21.049  36.113  51.495  0.00  0.00    +0.000 A 
ATOM      6  C   UNL     1      21.481  35.492  50.307  0.00  0.00    +0.000 A 
ATOM      7  C   UNL     1      20.563  35.432  49.246  0.00  0.00    +0.000 A 
ATOM      8  C   UNL     1      19.278  35.984  49.373  0.00  0.00    +0.000 A 
ATOM      9  C   UNL     1      18.310  35.927  48.266  0.00  0.00    +0.000 A 
ATOM     10  O   UNL     1      18.643  35.381  47.216  0.00  0.00    +0.000 OA
ATOM     11  N   UNL     1      17.064  36.514  48.488  0.00  0.00    +0.000 N 
ENDROOT
BRANCH   6  12
ATOM     12  C   UNL     1      22.843  34.925  50.206  0.00  0.00    +0.000 A 
ATOM     13  C   UNL     1      23.769  35.335  49.247  0.00  0.00    +0.000 A 
ATOM     14  C   UNL     1      25.033  34.747  49.220  0.00  0.00    +0.000 A 
ATOM     15  C   UNL     1      25.347  33.767  50.148  0.00  0.00    +0.000 A 
ATOM     16  C   UNL     1      24.381  33.418  51.072  0.00  0.00    +0.000 A 
ATOM     17  N   UNL     1      23.151  33.974  51.123  0.00  0.00    +0.000 NA
ENDBRANCH   6  12
BRANCH   1  18
ATOM     18  C   UNL     1      15.379  37.722  49.902  0.00  0.00    +0.000 C 
BRANCH  18  19
ATOM     19  C   UNL     1      15.397  39.148  50.460  0.00  0.00    +0.000 C 
BRANCH  19  21
ATOM     20  C   UNL     1      13.426  40.271  49.288  0.00  0.00    +0.000 C 
ATOM     21  C   UNL     1      14.937  40.198  49.446  0.00  0.00    +0.000 C 
ENDBRANCH  19  21
ENDBRANCH  18  19
ENDBRANCH   1  18
BRANCH  11  22
ATOM     22  C   UNL     1      16.116  36.463  47.368  0.00  0.00    +0.000 C 
BRANCH  22  23
ATOM     23  C   UNL     1      15.862  37.818  46.740  0.00  0.00    +0.000 A 
ATOM     24  C   UNL     1      14.577  38.168  46.302  0.00  0.00    +0.000 A 
ATOM     25  C   UNL     1      14.328  39.434  45.765  0.00  0.00    +0.000 A 
ATOM     26  C   UNL     1      15.357  40.378  45.639  0.00  0.00    +0.000 A 
ATOM     27  C   UNL     1      16.651  40.005  46.032  0.00  0.00    +0.000 A 
ATOM     28  C   UNL     1      16.901  38.743  46.575  0.00  0.00    +0.000 A 
BRANCH  26  29
ATOM     29  C   UNL     1      15.087  41.723  45.103  0.00  0.00    +0.000 A 
ATOM     30  C   UNL     1      14.610  42.714  45.986  0.00  0.00    +0.000 A 
ATOM     31  C   UNL     1      14.290  43.996  45.536  0.00  0.00    +0.000 A 
ATOM     32  C   UNL     1      14.436  44.315  44.191  0.00  0.00    +0.000 A 
ATOM     33  C   UNL     1      14.909  43.353  43.298  0.00  0.00    +0.000 A 
ATOM     34  C   UNL     1      15.250  42.061  43.739  0.00  0.00    +0.000 A 
BRANCH  34  35
ATOM     35  C   UNL     1      15.760  41.121  42.751  0.00  0.00    +0.000 A 
ATOM     36  N   UNL     1      14.925  40.352  41.969  0.00  0.00    +0.000 NA
ATOM     37  N   UNL     1      15.703  39.617  41.187  0.00  0.00    +0.000 NA
ATOM     38  N   UNL     1      16.948  39.983  41.513  0.00  0.00    +0.000 N 
ATOM     39  N   UNL     1      17.057  40.932  42.452  0.00  0.00    +0.000 NA
ATOM     40  H   UNL     1      17.760  39.565  41.069  0.00  0.00    +0.000 HD
ENDBRANCH  34  35
ENDBRANCH  26  29
ENDBRANCH  22  23
ENDBRANCH  11  22
TORSDOF 8
ENDMDL
