MODEL 1
REMARK VINA RESULT:    -6.331      0.000      0.000
REMARK INTER + INTRA:          -6.702
REMARK INTER:                  -6.702
REMARK INTRA:                   0.000
REMARK UNBOUND:                 0.000
REMARK  Name = 
REMARK  3 active torsions:
REMARK  status: ('A' for Active; 'I' for Inactive)
REMARK    1  A    between atoms: C_1  and  C_2
REMARK    2  A    between atoms: C_5  and  O_6
REMARK    3  A    between atoms: C_20  and  O_21
REMARK                            x       y       z     vdW  Elec       q    Type
REMARK                         _______ _______ _______ _____ _____    ______ ____
ROOT
ATOM      1  C   UNL     1      21.286  33.351  49.747  0.00  0.00    +0.000 C 
ATOM      2  C   UNL     1      21.989  34.296  50.749  0.00  0.00    +0.000 C 
ATOM      3  C   UNL     1      21.516  35.771  50.526  0.00  0.00    +0.000 C 
ATOM      4  C   UNL     1      20.559  36.338  51.596  0.00  0.00    +0.000 C 
ATOM      5  C   UNL     1      19.528  35.316  52.088  0.00  0.00    +0.000 C 
ATOM      6  C   UNL     1      20.208  34.067  52.656  0.00  0.00    +0.000 C 
ATOM      7  C   UNL     1      20.525  34.081  54.156  0.00  0.00    +0.000 C 
ATOM      8  O   UNL     1      21.740  33.313  54.343  0.00  0.00    +0.000 OA
ATOM      9  C   UNL     1      22.369  33.472  53.111  0.00  0.00    +0.000 C 
ATOM     10  C   UNL     1      21.583  33.887  52.125  0.00  0.00    +0.000 C 
ATOM     11  C   UNL     1      23.817  33.271  52.907  0.00  0.00    +0.000 C 
ATOM     12  O   UNL     1      24.545  32.817  53.780  0.00  0.00    +0.000 OA
ATOM     13  C   UNL     1      24.348  33.677  51.573  0.00  0.00    +0.000 A 
ATOM     14  C   UNL     1      25.731  33.575  51.364  0.00  0.00    +0.000 A 
ATOM     15  C   UNL     1      26.313  33.955  50.146  0.00  0.00    +0.000 A 
ATOM     16  C   UNL     1      27.704  33.865  49.968  0.00  0.00    +0.000 A 
ATOM     17  C   UNL     1      28.300  34.255  48.768  0.00  0.00    +0.000 A 
ATOM     18  C   UNL     1      27.511  34.725  47.726  0.00  0.00    +0.000 A 
ATOM     19  C   UNL     1      26.129  34.799  47.885  0.00  0.00    +0.000 A 
ATOM     20  C   UNL     1      25.497  34.438  49.097  0.00  0.00    +0.000 A 
ATOM     21  C   UNL     1      24.103  34.549  49.333  0.00  0.00    +0.000 A 
ATOM     22  C   UNL     1      23.508  34.171  50.556  0.00  0.00    +0.000 A 
ENDROOT
BRANCH   5  23
ATOM     23  O   UNL     1      18.684  35.936  53.050  0.00  0.00    +0.000 OA
ATOM     24  H   UNL     1      19.246  36.452  53.655  0.00  0.00    +0.000 HD
ENDBRANCH   5  23
BRANCH  19  25
ATOM     25  O   UNL     1      25.434  35.231  46.787  0.00  0.00    +0.000 OA
ATOM     26  H   UNL     1      24.650  35.712  47.095  0.00  0.00    +0.000 HD
ENDBRANCH  19  25
TORSDOF 2
ENDMDL
MODEL 2
REMARK VINA RESULT:    -6.103     11.572     14.976
REMARK INTER + INTRA:          -6.460
REMARK INTER:                  -6.460
REMARK INTRA:                   0.000
REMARK UNBOUND:                 0.000
REMARK  Name = 
REMARK  3 active torsions:
REMARK  status: ('A' for Active; 'I' for Inactive)
REMARK    1  A    between atoms: C_1  and  C_2
REMARK    2  A    between atoms: C_5  and  O_6
REMARK    3  A    between atoms: C_20  and  O_21
REMARK                            x       y       z     vdW  Elec       q    Type
REMARK                         _______ _______ _______ _____ _____    ______ ____
ROOT
ATOM      1  C   UNL     1      12.036  41.230  45.689  0.00  0.00    +0.000 C 
ATOM      2  C   UNL     1      13.386  41.736  46.248  0.00  0.00    +0.000 C 
ATOM      3  C   UNL     1      13.478  41.448  47.784  0.00  0.00    +0.000 C 
ATOM      4  C   UNL     1      14.430  40.305  48.196  0.00  0.00    +0.000 C 
ATOM      5  C   UNL     1      14.389  39.109  47.239  0.00  0.00    +0.000 C 
ATOM      6  C   UNL     1      14.725  39.529  45.806  0.00  0.00    +0.000 C 
ATOM      7  C   UNL     1      16.203  39.468  45.402  0.00  0.00    +0.000 C 
ATOM      8  O   UNL     1      16.431  40.537  44.450  0.00  0.00    +0.000 OA
ATOM      9  C   UNL     1      15.456  41.460  44.820  0.00  0.00    +0.000 C 
ATOM     10  C   UNL     1      14.476  40.975  45.572  0.00  0.00    +0.000 C 
ATOM     11  C   UNL     1      15.523  42.893  44.475  0.00  0.00    +0.000 C 
ATOM     12  O   UNL     1      16.374  43.347  43.722  0.00  0.00    +0.000 OA
ATOM     13  C   UNL     1      14.498  43.766  45.121  0.00  0.00    +0.000 A 
ATOM     14  C   UNL     1      14.573  45.145  44.881  0.00  0.00    +0.000 A 
ATOM     15  C   UNL     1      13.662  46.036  45.466  0.00  0.00    +0.000 A 
ATOM     16  C   UNL     1      13.770  47.417  45.230  0.00  0.00    +0.000 A 
ATOM     17  C   UNL     1      12.882  48.318  45.818  0.00  0.00    +0.000 A 
ATOM     18  C   UNL     1      11.863  47.848  46.636  0.00  0.00    +0.000 A 
ATOM     19  C   UNL     1      11.734  46.479  46.861  0.00  0.00    +0.000 A 
ATOM     20  C   UNL     1      12.635  45.542  46.304  0.00  0.00    +0.000 A 
ATOM     21  C   UNL     1      12.585  44.147  46.546  0.00  0.00    +0.000 A 
ATOM     22  C   UNL     1      13.499  43.242  45.964  0.00  0.00    +0.000 A 
ENDROOT
BRANCH   5  23
ATOM     23  O   UNL     1      15.277  38.106  47.712  0.00  0.00    +0.000 OA
ATOM     24  H   UNL     1      15.499  38.312  48.637  0.00  0.00    +0.000 HD
ENDBRANCH   5  23
BRANCH  19  25
ATOM     25  O   UNL     1      10.673  46.110  47.645  0.00  0.00    +0.000 OA
ATOM     26  H   UNL     1       9.897  46.616  47.360  0.00  0.00    +0.000 HD
ENDBRANCH  19  25
TORSDOF 2
ENDMDL
MODEL 3
REMARK VINA RESULT:    -5.719      2.097      3.283
REMARK INTER + INTRA:          -6.054
REMARK INTER:                  -6.054
REMARK INTRA:                   0.000
REMARK UNBOUND:                 0.000
REMARK  Name = 
REMARK  3 active torsions:
REMARK  status: ('A' for Active; 'I' for Inactive)
REMARK    1  A    between atoms: C_1  and  C_2
REMARK    2  A    between atoms: C_5  and  O_6
REMARK    3  A    between atoms: C_20  and  O_21
REMARK                            x       y       z     vdW  Elec       q    Type
REMARK                         _______ _______ _______ _____ _____    ______ ____
ROOT
ATOM      1  C   UNL     1      22.045  32.808  49.266  0.00  0.00    +0.000 C 
ATOM      2  C   UNL     1      22.785  34.000  49.915  0.00  0.00    +0.000 C 
ATOM      3  C   UNL     1      21.757  35.073  50.407  0.00  0.00    +0.000 C 
ATOM      4  C   UNL     1      21.551  35.154  51.935  0.00  0.00    +0.000 C 
ATOM      5  C   UNL     1      21.544  33.782  52.618  0.00  0.00    +0.000 C 
ATOM      6  C   UNL     1      22.841  33.015  52.342  0.00  0.00    +0.000 C 
ATOM      7  C   UNL     1      23.984  33.218  53.343  0.00  0.00    +0.000 C 
ATOM      8  O   UNL     1      25.225  33.117  52.600  0.00  0.00    +0.000 OA
ATOM      9  C   UNL     1      24.829  33.519  51.328  0.00  0.00    +0.000 C 
ATOM     10  C   UNL     1      23.520  33.488  51.108  0.00  0.00    +0.000 C 
ATOM     11  C   UNL     1      25.768  34.016  50.304  0.00  0.00    +0.000 C 
ATOM     12  O   UNL     1      26.982  33.982  50.457  0.00  0.00    +0.000 OA
ATOM     13  C   UNL     1      25.147  34.586  49.073  0.00  0.00    +0.000 A 
ATOM     14  C   UNL     1      26.000  35.140  48.108  0.00  0.00    +0.000 A 
ATOM     15  C   UNL     1      25.496  35.715  46.933  0.00  0.00    +0.000 A 
ATOM     16  C   UNL     1      26.369  36.284  45.992  0.00  0.00    +0.000 A 
ATOM     17  C   UNL     1      25.882  36.875  44.826  0.00  0.00    +0.000 A 
ATOM     18  C   UNL     1      24.515  36.889  44.579  0.00  0.00    +0.000 A 
ATOM     19  C   UNL     1      23.641  36.309  45.496  0.00  0.00    +0.000 A 
ATOM     20  C   UNL     1      24.101  35.728  46.700  0.00  0.00    +0.000 A 
ATOM     21  C   UNL     1      23.253  35.178  47.694  0.00  0.00    +0.000 A 
ATOM     22  C   UNL     1      23.751  34.599  48.881  0.00  0.00    +0.000 A 
ENDROOT
BRANCH   5  23
ATOM     23  O   UNL     1      21.328  33.959  54.011  0.00  0.00    +0.000 OA
ATOM     24  H   UNL     1      21.013  33.113  54.377  0.00  0.00    +0.000 HD
ENDBRANCH   5  23
BRANCH  19  25
ATOM     25  O   UNL     1      22.318  36.333  45.142  0.00  0.00    +0.000 OA
ATOM     26  H   UNL     1      22.163  35.618  44.505  0.00  0.00    +0.000 HD
ENDBRANCH  19  25
TORSDOF 2
ENDMDL
