MODEL 1
REMARK VINA RESULT:    -7.156      0.000      0.000
REMARK INTER + INTRA:          -9.068
REMARK INTER:                  -8.610
REMARK INTRA:                  -0.458
REMARK UNBOUND:                -0.448
REMARK  Name = 
REMARK  4 active torsions:
REMARK  status: ('A' for Active; 'I' for Inactive)
REMARK    1  A    between atoms: C_4  and  N_5
REMARK    2  A    between atoms: C_8  and  N_9
REMARK    3  A    between atoms: C_10  and  C_12
REMARK    4  A    between atoms: C_12  and  C_13
REMARK                            x       y       z     vdW  Elec       q    Type
REMARK                         _______ _______ _______ _____ _____    ______ ____
ROOT
ATOM      1  N   UNL     1      15.097  44.580  53.495  0.00  0.00    +0.000 N 
ATOM      2  C   UNL     1      15.547  43.291  53.696  0.00  0.00    +0.000 A 
ATOM      3  N   UNL     1      16.283  42.740  52.735  0.00  0.00    +0.000 NA
ATOM      4  C   UNL     1      16.702  41.485  52.931  0.00  0.00    +0.000 A 
ATOM      5  C   UNL     1      16.387  40.749  54.082  0.00  0.00    +0.000 A 
ATOM      6  C   UNL     1      16.802  39.416  54.350  0.00  0.00    +0.000 A 
ATOM      7  C   UNL     1      16.430  38.763  55.529  0.00  0.00    +0.000 A 
ATOM      8  C   UNL     1      15.635  39.449  56.440  0.00  0.00    +0.000 A 
ATOM      9  C   UNL     1      15.229  40.763  56.172  0.00  0.00    +0.000 A 
ATOM     10  C   UNL     1      15.591  41.426  55.008  0.00  0.00    +0.000 A 
ATOM     11  N   UNL     1      15.168  42.678  54.818  0.00  0.00    +0.000 NA
ATOM     12  H   UNL     1      14.249  44.733  54.022  0.00  0.00    +0.000 HD
ATOM     13  H   UNL     1      15.073  44.776  52.503  0.00  0.00    +0.000 HD
ENDROOT
BRANCH   7  14
ATOM     14  N   UNL     1      16.885  37.441  55.710  0.00  0.00    +0.000 N 
ATOM     15  C   UNL     1      17.707  36.959  56.717  0.00  0.00    +0.000 C 
ATOM     16  O   UNL     1      18.162  37.613  57.652  0.00  0.00    +0.000 OA
ATOM     17  H   UNL     1      16.630  36.780  54.986  0.00  0.00    +0.000 HD
BRANCH  15  18
ATOM     18  C   UNL     1      17.974  35.459  56.630  0.00  0.00    +0.000 C 
BRANCH  18  19
ATOM     19  C   UNL     1      19.275  35.088  55.954  0.00  0.00    +0.000 A 
ATOM     20  C   UNL     1      19.357  35.031  54.558  0.00  0.00    +0.000 A 
ATOM     21  C   UNL     1      20.551  34.665  53.934  0.00  0.00    +0.000 A 
ATOM     22  C   UNL     1      21.690  34.354  54.691  0.00  0.00    +0.000 A 
ATOM     23  C   UNL     1      22.897  33.983  54.075  0.00  0.00    +0.000 A 
ATOM     24  C   UNL     1      24.024  33.681  54.841  0.00  0.00    +0.000 A 
ATOM     25  C   UNL     1      23.959  33.747  56.231  0.00  0.00    +0.000 A 
ATOM     26  C   UNL     1      22.767  34.114  56.857  0.00  0.00    +0.000 A 
ATOM     27  C   UNL     1      21.623  34.419  56.100  0.00  0.00    +0.000 A 
ATOM     28  C   UNL     1      20.415  34.789  56.716  0.00  0.00    +0.000 A 
ENDBRANCH  18  19
ENDBRANCH  15  18
ENDBRANCH   7  14
BRANCH   4  29
ATOM     29  N   UNL     1      17.491  40.938  51.904  0.00  0.00    +0.000 N 
ATOM     30  H   UNL     1      17.195  39.985  51.719  0.00  0.00    +0.000 HD
ATOM     31  H   UNL     1      17.386  41.488  51.057  0.00  0.00    +0.000 HD
ENDBRANCH   4  29
TORSDOF 4
ENDMDL
MODEL 2
REMARK VINA RESULT:    -7.070      1.518      2.668
REMARK INTER + INTRA:          -8.965
REMARK INTER:                  -8.766
REMARK INTRA:                  -0.199
REMARK UNBOUND:                -0.448
REMARK  Name = 
REMARK  4 active torsions:
REMARK  status: ('A' for Active; 'I' for Inactive)
REMARK    1  A    between atoms: C_4  and  N_5
REMARK    2  A    between atoms: C_8  and  N_9
REMARK    3  A    between atoms: C_10  and  C_12
REMARK    4  A    between atoms: C_12  and  C_13
REMARK                            x       y       z     vdW  Elec       q    Type
REMARK                         _______ _______ _______ _____ _____    ______ ____
ROOT
ATOM      1  N   UNL     1      15.378  44.695  53.334  0.00  0.00    +0.000 N 
ATOM      2  C   UNL     1      15.583  43.369  53.660  0.00  0.00    +0.000 A 
ATOM      3  N   UNL     1      14.877  42.869  54.670  0.00  0.00    +0.000 NA
ATOM      4  C   UNL     1      15.091  41.587  54.989  0.00  0.00    +0.000 A 
ATOM      5  C   UNL     1      16.022  40.782  54.317  0.00  0.00    +0.000 A 
ATOM      6  C   UNL     1      16.295  39.417  54.607  0.00  0.00    +0.000 A 
ATOM      7  C   UNL     1      17.249  38.698  53.880  0.00  0.00    +0.000 A 
ATOM      8  C   UNL     1      17.934  39.352  52.864  0.00  0.00    +0.000 A 
ATOM      9  C   UNL     1      17.662  40.697  52.582  0.00  0.00    +0.000 A 
ATOM     10  C   UNL     1      16.717  41.425  53.291  0.00  0.00    +0.000 A 
ATOM     11  N   UNL     1      16.508  42.704  52.969  0.00  0.00    +0.000 NA
ATOM     12  H   UNL     1      16.207  45.071  52.897  0.00  0.00    +0.000 HD
ATOM     13  H   UNL     1      15.009  45.184  54.139  0.00  0.00    +0.000 HD
ENDROOT
BRANCH   7  14
ATOM     14  N   UNL     1      17.456  37.350  54.238  0.00  0.00    +0.000 N 
ATOM     15  C   UNL     1      17.875  36.312  53.420  0.00  0.00    +0.000 C 
ATOM     16  O   UNL     1      18.166  36.404  52.231  0.00  0.00    +0.000 OA
ATOM     17  H   UNL     1      17.213  37.100  55.189  0.00  0.00    +0.000 HD
BRANCH  15  18
ATOM     18  C   UNL     1      18.029  34.978  54.146  0.00  0.00    +0.000 C 
BRANCH  18  19
ATOM     19  C   UNL     1      19.388  34.753  54.769  0.00  0.00    +0.000 A 
ATOM     20  C   UNL     1      19.588  34.982  56.135  0.00  0.00    +0.000 A 
ATOM     21  C   UNL     1      20.848  34.798  56.706  0.00  0.00    +0.000 A 
ATOM     22  C   UNL     1      21.934  34.375  55.926  0.00  0.00    +0.000 A 
ATOM     23  C   UNL     1      23.208  34.187  56.488  0.00  0.00    +0.000 A 
ATOM     24  C   UNL     1      24.279  33.762  55.701  0.00  0.00    +0.000 A 
ATOM     25  C   UNL     1      24.090  33.518  54.343  0.00  0.00    +0.000 A 
ATOM     26  C   UNL     1      22.831  33.700  53.769  0.00  0.00    +0.000 A 
ATOM     27  C   UNL     1      21.743  34.130  54.548  0.00  0.00    +0.000 A 
ATOM     28  C   UNL     1      20.469  34.319  53.986  0.00  0.00    +0.000 A 
ENDBRANCH  18  19
ENDBRANCH  15  18
ENDBRANCH   7  14
BRANCH   4  29
ATOM     29  N   UNL     1      14.318  41.085  56.050  0.00  0.00    +0.000 N 
ATOM     30  H   UNL     1      13.850  40.233  55.756  0.00  0.00    +0.000 HD
ATOM     31  H   UNL     1      14.915  40.877  56.845  0.00  0.00    +0.000 HD
ENDBRANCH   4  29
TORSDOF 4
ENDMDL
MODEL 3
REMARK VINA RESULT:    -6.742     11.490     12.955
REMARK INTER + INTRA:          -8.570
REMARK INTER:                  -8.121
REMARK INTRA:                  -0.448
REMARK UNBOUND:                -0.448
REMARK  Name = 
REMARK  4 active torsions:
REMARK  status: ('A' for Active; 'I' for Inactive)
REMARK    1  A    between atoms: C_4  and  N_5
REMARK    2  A    between atoms: C_8  and  N_9
REMARK    3  A    between atoms: C_10  and  C_12
REMARK    4  A    between atoms: C_12  and  C_13
REMARK                            x       y       z     vdW  Elec       q    Type
REMARK                         _______ _______ _______ _____ _____    ______ ____
ROOT
ATOM      1  N   UNL     1      10.134  49.897  47.744  0.00  0.00    +0.000 N 
ATOM      2  C   UNL     1      11.127  49.164  47.126  0.00  0.00    +0.000 A 
ATOM      3  N   UNL     1      12.029  49.832  46.412  0.00  0.00    +0.000 NA
ATOM      4  C   UNL     1      12.979  49.115  45.803  0.00  0.00    +0.000 A 
ATOM      5  C   UNL     1      13.044  47.716  45.883  0.00  0.00    +0.000 A 
ATOM      6  C   UNL     1      14.028  46.898  45.262  0.00  0.00    +0.000 A 
ATOM      7  C   UNL     1      14.004  45.506  45.398  0.00  0.00    +0.000 A 
ATOM      8  C   UNL     1      12.988  44.935  46.155  0.00  0.00    +0.000 A 
ATOM      9  C   UNL     1      12.022  45.745  46.765  0.00  0.00    +0.000 A 
ATOM     10  C   UNL     1      12.032  47.128  46.643  0.00  0.00    +0.000 A 
ATOM     11  N   UNL     1      11.079  47.838  47.251  0.00  0.00    +0.000 NA
ATOM     12  H   UNL     1       9.314  49.321  47.872  0.00  0.00    +0.000 HD
ATOM     13  H   UNL     1      10.018  50.778  47.261  0.00  0.00    +0.000 HD
ENDROOT
BRANCH   7  14
ATOM     14  N   UNL     1      15.016  44.774  44.746  0.00  0.00    +0.000 N 
ATOM     15  C   UNL     1      14.900  44.005  43.598  0.00  0.00    +0.000 C 
ATOM     16  O   UNL     1      13.879  43.853  42.932  0.00  0.00    +0.000 OA
ATOM     17  H   UNL     1      15.920  44.761  45.203  0.00  0.00    +0.000 HD
BRANCH  15  18
ATOM     18  C   UNL     1      16.213  43.373  43.143  0.00  0.00    +0.000 C 
BRANCH  18  19
ATOM     19  C   UNL     1      16.351  41.903  43.469  0.00  0.00    +0.000 A 
ATOM     20  C   UNL     1      15.912  41.406  44.701  0.00  0.00    +0.000 A 
ATOM     21  C   UNL     1      16.063  40.054  45.013  0.00  0.00    +0.000 A 
ATOM     22  C   UNL     1      16.650  39.168  44.097  0.00  0.00    +0.000 A 
ATOM     23  C   UNL     1      16.808  37.804  44.399  0.00  0.00    +0.000 A 
ATOM     24  C   UNL     1      17.390  36.933  43.476  0.00  0.00    +0.000 A 
ATOM     25  C   UNL     1      17.819  37.414  42.242  0.00  0.00    +0.000 A 
ATOM     26  C   UNL     1      17.669  38.765  41.927  0.00  0.00    +0.000 A 
ATOM     27  C   UNL     1      17.087  39.655  42.846  0.00  0.00    +0.000 A 
ATOM     28  C   UNL     1      16.930  41.019  42.545  0.00  0.00    +0.000 A 
ENDBRANCH  18  19
ENDBRANCH  15  18
ENDBRANCH   7  14
BRANCH   4  29
ATOM     29  N   UNL     1      13.925  49.852  45.069  0.00  0.00    +0.000 N 
ATOM     30  H   UNL     1      14.560  49.215  44.597  0.00  0.00    +0.000 HD
ATOM     31  H   UNL     1      13.455  50.426  44.376  0.00  0.00    +0.000 HD
ENDBRANCH   4  29
TORSDOF 4
ENDMDL
