MODEL 1
REMARK VINA RESULT:    -6.668      0.000      0.000
REMARK INTER + INTRA:         -13.034
REMARK INTER:                 -11.442
REMARK INTRA:                  -1.592
REMARK UNBOUND:                -2.078
REMARK  Name = 
REMARK  13 active torsions:
REMARK  status: ('A' for Active; 'I' for Inactive)
REMARK    1  A    between atoms: C_1  and  O_2
REMARK    2  A    between atoms: O_2  and  C_3
REMARK    3  A    between atoms: C_5  and  C_6
REMARK    4  A    between atoms: N_8  and  S_9
REMARK    5  A    between atoms: S_9  and  C_10
REMARK    6  A    between atoms: C_15  and  C_16
REMARK    7  A    between atoms: C_16  and  C_17
REMARK    8  A    between atoms: N_19  and  C_20
REMARK    9  A    between atoms: C_20  and  C_21
REMARK   10  A    between atoms: C_25  and  C_26
REMARK   11  A    between atoms: C_32  and  N_33
REMARK   12  A    between atoms: C_34  and  C_36
REMARK   13  A    between atoms: C_36  and  C_37
REMARK                            x       y       z     vdW  Elec       q    Type
REMARK                         _______ _______ _______ _____ _____    ______ ____
ROOT
ATOM      1  C   UNL     1      13.071  42.491  45.657  0.00  0.00    +0.000 A 
ATOM      2  C   UNL     1      12.698  42.415  44.327  0.00  0.00    +0.000 A 
ATOM      3  N   UNL     1      13.407  41.402  43.730  0.00  0.00    +0.000 N 
ATOM      4  C   UNL     1      14.231  40.794  44.653  0.00  0.00    +0.000 A 
ATOM      5  C   UNL     1      15.113  39.712  44.535  0.00  0.00    +0.000 A 
ATOM      6  C   UNL     1      15.861  39.345  45.660  0.00  0.00    +0.000 A 
ATOM      7  C   UNL     1      15.744  40.024  46.877  0.00  0.00    +0.000 A 
ATOM      8  C   UNL     1      14.834  41.081  46.984  0.00  0.00    +0.000 A 
ATOM      9  C   UNL     1      14.066  41.478  45.862  0.00  0.00    +0.000 A 
ENDROOT
BRANCH   7  10
ATOM     10  N   UNL     1      16.584  39.597  47.926  0.00  0.00    +0.000 N 
ATOM     11  C   UNL     1      16.370  38.555  48.813  0.00  0.00    +0.000 C 
ATOM     12  O   UNL     1      15.477  37.718  48.768  0.00  0.00    +0.000 OA
ATOM     13  H   UNL     1      17.405  40.167  48.091  0.00  0.00    +0.000 HD
BRANCH  11  14
ATOM     14  C   UNL     1      17.431  38.506  49.901  0.00  0.00    +0.000 C 
BRANCH  14  15
ATOM     15  C   UNL     1      16.792  38.535  51.299  0.00  0.00    +0.000 C 
ATOM     16  C   UNL     1      17.843  38.596  52.408  0.00  0.00    +0.000 C 
ATOM     17  C   UNL     1      18.253  40.063  52.481  0.00  0.00    +0.000 C 
ATOM     18  C   UNL     1      17.061  40.861  51.950  0.00  0.00    +0.000 C 
ATOM     19  C   UNL     1      16.008  39.828  51.549  0.00  0.00    +0.000 C 
ENDBRANCH  14  15
ENDBRANCH  11  14
ENDBRANCH   7  10
BRANCH   1  20
ATOM     20  C   UNL     1      12.543  43.464  46.668  0.00  0.00    +0.000 C 
BRANCH  20  26
ATOM     21  C   UNL     1      12.171  45.975  46.623  0.00  0.00    +0.000 A 
ATOM     22  C   UNL     1      12.522  47.272  46.224  0.00  0.00    +0.000 A 
ATOM     23  C   UNL     1      13.698  47.484  45.497  0.00  0.00    +0.000 A 
ATOM     24  C   UNL     1      14.515  46.396  45.176  0.00  0.00    +0.000 A 
ATOM     25  C   UNL     1      14.143  45.102  45.546  0.00  0.00    +0.000 A 
ATOM     26  C   UNL     1      12.944  44.863  46.240  0.00  0.00    +0.000 A 
BRANCH  23  27
ATOM     27  C   UNL     1      14.141  48.836  45.064  0.00  0.00    +0.000 C 
ATOM     28  O   UNL     1      13.326  49.714  44.833  0.00  0.00    +0.000 OA
ATOM     29  N   UNL     1      15.521  49.002  44.874  0.00  0.00    +0.000 N 
ATOM     30  H   UNL     1      16.187  48.316  45.211  0.00  0.00    +0.000 HD
BRANCH  29  31
ATOM     31  S   UNL     1      16.247  50.465  44.576  0.00  0.00    +0.000 S 
ATOM     32  C   UNL     1      15.719  51.476  45.944  0.00  0.00    +0.000 C 
ATOM     33  O   UNL     1      15.595  50.966  43.383  0.00  0.00    +0.000 OA
ATOM     34  O   UNL     1      17.680  50.301  44.609  0.00  0.00    +0.000 OA
ENDBRANCH  29  31
ENDBRANCH  23  27
BRANCH  21  36
ATOM     35  C   UNL     1       9.836  46.037  46.665  0.00  0.00    +0.000 C 
ATOM     36  O   UNL     1      11.041  45.752  47.372  0.00  0.00    +0.000 OA
ENDBRANCH  21  36
ENDBRANCH  20  26
ENDBRANCH   1  20
BRANCH   3  37
ATOM     37  C   UNL     1      13.243  41.008  42.334  0.00  0.00    +0.000 C 
BRANCH  37  38
ATOM     38  C   UNL     1      13.534  42.148  41.386  0.00  0.00    +0.000 A 
ATOM     39  C   UNL     1      14.598  43.028  41.633  0.00  0.00    +0.000 A 
ATOM     40  C   UNL     1      14.867  44.088  40.766  0.00  0.00    +0.000 A 
ATOM     41  C   UNL     1      14.071  44.289  39.640  0.00  0.00    +0.000 A 
ATOM     42  C   UNL     1      13.005  43.425  39.377  0.00  0.00    +0.000 A 
ATOM     43  C   UNL     1      12.738  42.360  40.248  0.00  0.00    +0.000 A 
BRANCH  42  44
ATOM     44  C   UNL     1      12.187  43.632  38.218  0.00  0.00    +0.000 C 
ATOM     45  N   UNL     1      11.536  43.797  37.272  0.00  0.00    +0.000 NA
ENDBRANCH  42  44
ENDBRANCH  37  38
ENDBRANCH   3  37
TORSDOF 11
ENDMDL
MODEL 2
REMARK VINA RESULT:    -6.640      1.979      2.678
REMARK INTER + INTRA:         -12.988
REMARK INTER:                 -11.362
REMARK INTRA:                  -1.627
REMARK UNBOUND:                -2.078
REMARK  Name = 
REMARK  13 active torsions:
REMARK  status: ('A' for Active; 'I' for Inactive)
REMARK    1  A    between atoms: C_1  and  O_2
REMARK    2  A    between atoms: O_2  and  C_3
REMARK    3  A    between atoms: C_5  and  C_6
REMARK    4  A    between atoms: N_8  and  S_9
REMARK    5  A    between atoms: S_9  and  C_10
REMARK    6  A    between atoms: C_15  and  C_16
REMARK    7  A    between atoms: C_16  and  C_17
REMARK    8  A    between atoms: N_19  and  C_20
REMARK    9  A    between atoms: C_20  and  C_21
REMARK   10  A    between atoms: C_25  and  C_26
REMARK   11  A    between atoms: C_32  and  N_33
REMARK   12  A    between atoms: C_34  and  C_36
REMARK   13  A    between atoms: C_36  and  C_37
REMARK                            x       y       z     vdW  Elec       q    Type
REMARK                         _______ _______ _______ _____ _____    ______ ____
ROOT
ATOM      1  C   UNL     1      14.107  44.540  44.833  0.00  0.00    +0.000 A 
ATOM      2  C   UNL     1      14.452  44.617  43.496  0.00  0.00    +0.000 A 
ATOM      3  N   UNL     1      15.118  43.468  43.148  0.00  0.00    +0.000 N 
ATOM      4  C   UNL     1      15.202  42.623  44.235  0.00  0.00    +0.000 A 
ATOM      5  C   UNL     1      15.754  41.343  44.371  0.00  0.00    +0.000 A 
ATOM      6  C   UNL     1      15.727  40.744  45.636  0.00  0.00    +0.000 A 
ATOM      7  C   UNL     1      15.165  41.386  46.744  0.00  0.00    +0.000 A 
ATOM      8  C   UNL     1      14.589  42.651  46.580  0.00  0.00    +0.000 A 
ATOM      9  C   UNL     1      14.605  43.283  45.314  0.00  0.00    +0.000 A 
ENDROOT
BRANCH   7  10
ATOM     10  N   UNL     1      15.238  40.706  47.977  0.00  0.00    +0.000 N 
ATOM     11  C   UNL     1      14.266  40.627  48.961  0.00  0.00    +0.000 C 
ATOM     12  O   UNL     1      13.108  41.016  48.887  0.00  0.00    +0.000 OA
ATOM     13  H   UNL     1      16.135  40.287  48.195  0.00  0.00    +0.000 HD
BRANCH  11  14
ATOM     14  C   UNL     1      14.779  39.934  50.213  0.00  0.00    +0.000 C 
BRANCH  14  15
ATOM     15  C   UNL     1      14.667  40.853  51.440  0.00  0.00    +0.000 C 
ATOM     16  C   UNL     1      14.663  40.063  52.749  0.00  0.00    +0.000 C 
ATOM     17  C   UNL     1      16.129  39.749  53.024  0.00  0.00    +0.000 C 
ATOM     18  C   UNL     1      16.934  40.839  52.314  0.00  0.00    +0.000 C 
ATOM     19  C   UNL     1      15.909  41.734  51.618  0.00  0.00    +0.000 C 
ENDBRANCH  14  15
ENDBRANCH  11  14
ENDBRANCH   7  10
BRANCH   1  20
ATOM     20  C   UNL     1      13.373  45.587  45.617  0.00  0.00    +0.000 C 
BRANCH  20  26
ATOM     21  C   UNL     1      13.135  47.929  44.670  0.00  0.00    +0.000 A 
ATOM     22  C   UNL     1      13.656  49.183  44.320  0.00  0.00    +0.000 A 
ATOM     23  C   UNL     1      14.984  49.497  44.626  0.00  0.00    +0.000 A 
ATOM     24  C   UNL     1      15.780  48.553  45.281  0.00  0.00    +0.000 A 
ATOM     25  C   UNL     1      15.268  47.293  45.595  0.00  0.00    +0.000 A 
ATOM     26  C   UNL     1      13.948  46.943  45.259  0.00  0.00    +0.000 A 
BRANCH  23  27
ATOM     27  C   UNL     1      15.592  50.816  44.307  0.00  0.00    +0.000 C 
ATOM     28  O   UNL     1      14.909  51.827  44.287  0.00  0.00    +0.000 OA
ATOM     29  N   UNL     1      16.952  50.803  43.968  0.00  0.00    +0.000 N 
ATOM     30  H   UNL     1      17.530  49.987  44.134  0.00  0.00    +0.000 HD
BRANCH  29  31
ATOM     31  S   UNL     1      17.870  52.170  43.759  0.00  0.00    +0.000 S 
ATOM     32  C   UNL     1      19.490  51.530  43.389  0.00  0.00    +0.000 C 
ATOM     33  O   UNL     1      17.930  52.782  45.072  0.00  0.00    +0.000 OA
ATOM     34  O   UNL     1      17.365  52.915  42.631  0.00  0.00    +0.000 OA
ENDBRANCH  29  31
ENDBRANCH  23  27
BRANCH  21  36
ATOM     35  C   UNL     1      11.550  47.434  43.025  0.00  0.00    +0.000 C 
ATOM     36  O   UNL     1      11.821  47.619  44.413  0.00  0.00    +0.000 OA
ENDBRANCH  21  36
ENDBRANCH  20  26
ENDBRANCH   1  20
BRANCH   3  37
ATOM     37  C   UNL     1      15.600  43.183  41.800  0.00  0.00    +0.000 C 
BRANCH  37  38
ATOM     38  C   UNL     1      14.478  43.171  40.788  0.00  0.00    +0.000 A 
ATOM     39  C   UNL     1      13.887  41.963  40.393  0.00  0.00    +0.000 A 
ATOM     40  C   UNL     1      12.856  41.944  39.452  0.00  0.00    +0.000 A 
ATOM     41  C   UNL     1      12.403  43.135  38.887  0.00  0.00    +0.000 A 
ATOM     42  C   UNL     1      12.980  44.349  39.267  0.00  0.00    +0.000 A 
ATOM     43  C   UNL     1      14.014  44.366  40.212  0.00  0.00    +0.000 A 
BRANCH  42  44
ATOM     44  C   UNL     1      12.513  45.574  38.685  0.00  0.00    +0.000 C 
ATOM     45  N   UNL     1      12.148  46.570  38.216  0.00  0.00    +0.000 NA
ENDBRANCH  42  44
ENDBRANCH  37  38
ENDBRANCH   3  37
TORSDOF 11
ENDMDL
MODEL 3
REMARK VINA RESULT:    -6.411      7.090     10.458
REMARK INTER + INTRA:         -12.612
REMARK INTER:                 -10.533
REMARK INTRA:                  -2.078
REMARK UNBOUND:                -2.078
REMARK  Name = 
REMARK  13 active torsions:
REMARK  status: ('A' for Active; 'I' for Inactive)
REMARK    1  A    between atoms: C_1  and  O_2
REMARK    2  A    between atoms: O_2  and  C_3
REMARK    3  A    between atoms: C_5  and  C_6
REMARK    4  A    between atoms: N_8  and  S_9
REMARK    5  A    between atoms: S_9  and  C_10
REMARK    6  A    between atoms: C_15  and  C_16
REMARK    7  A    between atoms: C_16  and  C_17
REMARK    8  A    between atoms: N_19  and  C_20
REMARK    9  A    between atoms: C_20  and  C_21
REMARK   10  A    between atoms: C_25  and  C_26
REMARK   11  A    between atoms: C_32  and  N_33
REMARK   12  A    between atoms: C_34  and  C_36
REMARK   13  A    between atoms: C_36  and  C_37
REMARK                            x       y       z     vdW  Elec       q    Type
REMARK                         _______ _______ _______ _____ _____    ______ ____
ROOT
ATOM      1  C   UNL     1      17.784  39.147  51.498  0.00  0.00    +0.000 A 
ATOM      2  C   UNL     1      16.786  39.201  50.542  0.00  0.00    +0.000 A 
ATOM      3  N   UNL     1      16.647  37.955  49.981  0.00  0.00    +0.000 N 
ATOM      4  C   UNL     1      17.530  37.073  50.569  0.00  0.00    +0.000 A 
ATOM      5  C   UNL     1      17.746  35.704  50.361  0.00  0.00    +0.000 A 
ATOM      6  C   UNL     1      18.763  35.079  51.091  0.00  0.00    +0.000 A 
ATOM      7  C   UNL     1      19.550  35.781  52.009  0.00  0.00    +0.000 A 
ATOM      8  C   UNL     1      19.298  37.139  52.226  0.00  0.00    +0.000 A 
ATOM      9  C   UNL     1      18.278  37.800  51.500  0.00  0.00    +0.000 A 
ENDROOT
BRANCH   7  10
ATOM     10  N   UNL     1      20.577  35.057  52.649  0.00  0.00    +0.000 N 
ATOM     11  C   UNL     1      20.445  34.036  53.576  0.00  0.00    +0.000 C 
ATOM     12  O   UNL     1      19.410  33.473  53.911  0.00  0.00    +0.000 OA
ATOM     13  H   UNL     1      21.521  35.372  52.459  0.00  0.00    +0.000 HD
BRANCH  11  14
ATOM     14  C   UNL     1      21.786  33.613  54.154  0.00  0.00    +0.000 C 
BRANCH  14  15
ATOM     15  C   UNL     1      22.256  34.597  55.237  0.00  0.00    +0.000 C 
ATOM     16  C   UNL     1      21.247  34.717  56.380  0.00  0.00    +0.000 C 
ATOM     17  C   UNL     1      21.506  33.501  57.263  0.00  0.00    +0.000 C 
ATOM     18  C   UNL     1      22.965  33.110  57.023  0.00  0.00    +0.000 C 
ATOM     19  C   UNL     1      23.498  34.090  55.978  0.00  0.00    +0.000 C 
ENDBRANCH  14  15
ENDBRANCH  11  14
ENDBRANCH   7  10
BRANCH   1  20
ATOM     20  C   UNL     1      18.258  40.291  52.344  0.00  0.00    +0.000 C 
BRANCH  20  26
ATOM     21  C   UNL     1      16.366  41.430  53.594  0.00  0.00    +0.000 A 
ATOM     22  C   UNL     1      15.517  41.564  54.701  0.00  0.00    +0.000 A 
ATOM     23  C   UNL     1      15.576  40.633  55.743  0.00  0.00    +0.000 A 
ATOM     24  C   UNL     1      16.485  39.573  55.667  0.00  0.00    +0.000 A 
ATOM     25  C   UNL     1      17.352  39.464  54.580  0.00  0.00    +0.000 A 
ATOM     26  C   UNL     1      17.337  40.413  53.543  0.00  0.00    +0.000 A 
BRANCH  23  27
ATOM     27  C   UNL     1      14.688  40.701  56.934  0.00  0.00    +0.000 C 
ATOM     28  O   UNL     1      15.116  40.436  58.045  0.00  0.00    +0.000 OA
ATOM     29  N   UNL     1      13.344  41.013  56.685  0.00  0.00    +0.000 N 
ATOM     30  H   UNL     1      13.043  41.372  55.786  0.00  0.00    +0.000 HD
BRANCH  29  31
ATOM     31  S   UNL     1      12.228  41.323  57.873  0.00  0.00    +0.000 S 
ATOM     32  C   UNL     1      10.765  41.772  56.961  0.00  0.00    +0.000 C 
ATOM     33  O   UNL     1      12.713  42.515  58.538  0.00  0.00    +0.000 OA
ATOM     34  O   UNL     1      11.987  40.116  58.627  0.00  0.00    +0.000 OA
ENDBRANCH  29  31
ENDBRANCH  23  27
BRANCH  21  36
ATOM     35  C   UNL     1      15.947  43.636  52.946  0.00  0.00    +0.000 C 
ATOM     36  O   UNL     1      16.293  42.313  52.543  0.00  0.00    +0.000 OA
ENDBRANCH  21  36
ENDBRANCH  20  26
ENDBRANCH   1  20
BRANCH   3  37
ATOM     37  C   UNL     1      15.658  37.628  48.960  0.00  0.00    +0.000 C 
BRANCH  37  38
ATOM     38  C   UNL     1      16.030  38.195  47.609  0.00  0.00    +0.000 A 
ATOM     39  C   UNL     1      15.445  39.383  47.149  0.00  0.00    +0.000 A 
ATOM     40  C   UNL     1      15.777  39.907  45.898  0.00  0.00    +0.000 A 
ATOM     41  C   UNL     1      16.698  39.247  45.086  0.00  0.00    +0.000 A 
ATOM     42  C   UNL     1      17.290  38.062  45.526  0.00  0.00    +0.000 A 
ATOM     43  C   UNL     1      16.956  37.537  46.782  0.00  0.00    +0.000 A 
BRANCH  42  44
ATOM     44  C   UNL     1      18.237  37.383  44.690  0.00  0.00    +0.000 C 
ATOM     45  N   UNL     1      19.005  36.846  44.006  0.00  0.00    +0.000 NA
ENDBRANCH  42  44
ENDBRANCH  37  38
ENDBRANCH   3  37
TORSDOF 11
ENDMDL
