MODEL 1
REMARK VINA RESULT:    -6.353      0.000      0.000
REMARK INTER + INTRA:          -7.064
REMARK INTER:                  -6.911
REMARK INTRA:                  -0.153
REMARK UNBOUND:                -0.154
REMARK  Name = 
REMARK  5 active torsions:
REMARK  status: ('A' for Active; 'I' for Inactive)
REMARK    1  A    between atoms: C_1  and  C_2
REMARK    2  A    between atoms: C_2  and  C_3
REMARK    3  A    between atoms: C_2  and  C_4
REMARK    4  A    between atoms: C_2  and  C_5
REMARK    5  A    between atoms: C_5  and  O_6
REMARK                            x       y       z     vdW  Elec       q    Type
REMARK                         _______ _______ _______ _____ _____    ______ ____
ROOT
ATOM      1  C   UNL     1      13.626  45.101  45.104  0.00  0.00    +0.000 C 
ATOM      2  C   UNL     1      13.936  43.845  45.943  0.00  0.00    +0.000 C 
ATOM      3  C   UNL     1      15.017  42.976  45.302  0.00  0.00    +0.000 C 
ATOM      4  N   UNL     1      14.621  42.597  43.945  0.00  0.00    +0.000 NA
ATOM      5  C   UNL     1      15.580  41.651  43.368  0.00  0.00    +0.000 C 
ATOM      6  C   UNL     1      15.017  41.026  42.064  0.00  0.00    +0.000 C 
ATOM      7  C   UNL     1      15.993  40.004  41.454  0.00  0.00    +0.000 A 
ATOM      8  C   UNL     1      17.349  39.914  41.822  0.00  0.00    +0.000 A 
ATOM      9  C   UNL     1      18.187  38.928  41.291  0.00  0.00    +0.000 A 
ATOM     10  C   UNL     1      17.690  38.009  40.376  0.00  0.00    +0.000 A 
ATOM     11  C   UNL     1      16.361  38.087  39.979  0.00  0.00    +0.000 A 
ATOM     12  C   UNL     1      15.514  39.079  40.504  0.00  0.00    +0.000 A 
ATOM     13  C   UNL     1      14.112  39.213  39.974  0.00  0.00    +0.000 C 
ATOM     14  C   UNL     1      14.016  40.462  39.105  0.00  0.00    +0.000 C 
ATOM     15  C   UNL     1      14.111  41.828  39.761  0.00  0.00    +0.000 A 
ATOM     16  C   UNL     1      13.765  42.900  38.910  0.00  0.00    +0.000 A 
ATOM     17  C   UNL     1      13.753  44.210  39.361  0.00  0.00    +0.000 A 
ATOM     18  C   UNL     1      14.032  44.472  40.693  0.00  0.00    +0.000 A 
ATOM     19  C   UNL     1      14.345  43.434  41.592  0.00  0.00    +0.000 A 
ATOM     20  C   UNL     1      14.501  42.104  41.099  0.00  0.00    +0.000 A 
ATOM     21  C   UNL     1      14.552  43.793  43.076  0.00  0.00    +0.000 C 
ATOM     22  C   UNL     1      13.412  44.688  43.627  0.00  0.00    +0.000 C 
ENDROOT
BRANCH   1  24
ATOM     23  C   UNL     1      12.863  47.357  46.166  0.00  0.00    +0.000 C 
ATOM     24  C   UNL     1      12.420  45.957  45.685  0.00  0.00    +0.000 C 
ATOM     25  C   UNL     1      11.758  45.240  46.887  0.00  0.00    +0.000 C 
ATOM     26  C   UNL     1      11.309  46.167  44.628  0.00  0.00    +0.000 C 
ENDBRANCH   1  24
BRANCH   1  27
ATOM     27  O   UNL     1      14.808  45.930  45.114  0.00  0.00    +0.000 OA
ATOM     28  H   UNL     1      15.389  45.646  44.390  0.00  0.00    +0.000 HD
ENDBRANCH   1  27
TORSDOF 2
ENDMDL
MODEL 2
REMARK VINA RESULT:    -6.222      3.131      5.391
REMARK INTER + INTRA:          -6.922
REMARK INTER:                  -6.774
REMARK INTRA:                  -0.148
REMARK UNBOUND:                -0.154
REMARK  Name = 
REMARK  5 active torsions:
REMARK  status: ('A' for Active; 'I' for Inactive)
REMARK    1  A    between atoms: C_1  and  C_2
REMARK    2  A    between atoms: C_2  and  C_3
REMARK    3  A    between atoms: C_2  and  C_4
REMARK    4  A    between atoms: C_2  and  C_5
REMARK    5  A    between atoms: C_5  and  O_6
REMARK                            x       y       z     vdW  Elec       q    Type
REMARK                         _______ _______ _______ _____ _____    ______ ____
ROOT
ATOM      1  C   UNL     1      13.477  45.197  44.745  0.00  0.00    +0.000 C 
ATOM      2  C   UNL     1      14.821  45.080  43.999  0.00  0.00    +0.000 C 
ATOM      3  C   UNL     1      15.162  43.633  43.648  0.00  0.00    +0.000 C 
ATOM      4  N   UNL     1      15.179  42.810  44.859  0.00  0.00    +0.000 NA
ATOM      5  C   UNL     1      15.639  41.451  44.560  0.00  0.00    +0.000 C 
ATOM      6  C   UNL     1      15.938  40.673  45.868  0.00  0.00    +0.000 C 
ATOM      7  C   UNL     1      16.454  39.252  45.580  0.00  0.00    +0.000 A 
ATOM      8  C   UNL     1      16.330  38.622  44.327  0.00  0.00    +0.000 A 
ATOM      9  C   UNL     1      16.870  37.355  44.089  0.00  0.00    +0.000 A 
ATOM     10  C   UNL     1      17.546  36.683  45.099  0.00  0.00    +0.000 A 
ATOM     11  C   UNL     1      17.665  37.271  46.353  0.00  0.00    +0.000 A 
ATOM     12  C   UNL     1      17.120  38.543  46.602  0.00  0.00    +0.000 A 
ATOM     13  C   UNL     1      17.163  39.109  47.995  0.00  0.00    +0.000 C 
ATOM     14  C   UNL     1      15.766  39.069  48.602  0.00  0.00    +0.000 C 
ATOM     15  C   UNL     1      14.693  39.991  48.048  0.00  0.00    +0.000 A 
ATOM     16  C   UNL     1      13.523  40.050  48.836  0.00  0.00    +0.000 A 
ATOM     17  C   UNL     1      12.464  40.877  48.501  0.00  0.00    +0.000 A 
ATOM     18  C   UNL     1      12.574  41.708  47.397  0.00  0.00    +0.000 A 
ATOM     19  C   UNL     1      13.736  41.716  46.601  0.00  0.00    +0.000 A 
ATOM     20  C   UNL     1      14.767  40.763  46.859  0.00  0.00    +0.000 A 
ATOM     21  C   UNL     1      13.823  42.733  45.448  0.00  0.00    +0.000 C 
ATOM     22  C   UNL     1      13.444  44.167  45.901  0.00  0.00    +0.000 C 
ENDROOT
BRANCH   1  24
ATOM     23  C   UNL     1      12.297  46.710  46.511  0.00  0.00    +0.000 C 
ATOM     24  C   UNL     1      13.159  46.677  45.229  0.00  0.00    +0.000 C 
ATOM     25  C   UNL     1      12.400  47.468  44.136  0.00  0.00    +0.000 C 
ATOM     26  C   UNL     1      14.455  47.469  45.529  0.00  0.00    +0.000 C 
ENDBRANCH   1  24
BRANCH   1  27
ATOM     27  O   UNL     1      12.437  44.794  43.829  0.00  0.00    +0.000 OA
ATOM     28  H   UNL     1      12.126  45.581  43.350  0.00  0.00    +0.000 HD
ENDBRANCH   1  27
TORSDOF 2
ENDMDL
MODEL 3
REMARK VINA RESULT:    -6.069      2.470      7.650
REMARK INTER + INTRA:          -6.755
REMARK INTER:                  -6.601
REMARK INTRA:                  -0.154
REMARK UNBOUND:                -0.154
REMARK  Name = 
REMARK  5 active torsions:
REMARK  status: ('A' for Active; 'I' for Inactive)
REMARK    1  A    between atoms: C_1  and  C_2
REMARK    2  A    between atoms: C_2  and  C_3
REMARK    3  A    between atoms: C_2  and  C_4
REMARK    4  A    between atoms: C_2  and  C_5
REMARK    5  A    between atoms: C_5  and  O_6
REMARK                            x       y       z     vdW  Elec       q    Type
REMARK                         _______ _______ _______ _____ _____    ______ ____
ROOT
ATOM      1  C   UNL     1      13.712  42.539  38.669  0.00  0.00    +0.000 C 
ATOM      2  C   UNL     1      12.421  43.383  38.659  0.00  0.00    +0.000 C 
ATOM      3  C   UNL     1      12.507  44.581  39.602  0.00  0.00    +0.000 C 
ATOM      4  N   UNL     1      12.811  44.133  40.962  0.00  0.00    +0.000 NA
ATOM      5  C   UNL     1      12.760  45.255  41.904  0.00  0.00    +0.000 C 
ATOM      6  C   UNL     1      12.787  44.742  43.368  0.00  0.00    +0.000 C 
ATOM      7  C   UNL     1      12.703  45.901  44.378  0.00  0.00    +0.000 A 
ATOM      8  C   UNL     1      12.932  47.246  44.034  0.00  0.00    +0.000 A 
ATOM      9  C   UNL     1      12.781  48.276  44.968  0.00  0.00    +0.000 A 
ATOM     10  C   UNL     1      12.400  47.985  46.272  0.00  0.00    +0.000 A 
ATOM     11  C   UNL     1      12.188  46.663  46.645  0.00  0.00    +0.000 A 
ATOM     12  C   UNL     1      12.343  45.622  45.713  0.00  0.00    +0.000 A 
ATOM     13  C   UNL     1      12.218  44.194  46.169  0.00  0.00    +0.000 C 
ATOM     14  C   UNL     1      13.598  43.548  46.195  0.00  0.00    +0.000 C 
ATOM     15  C   UNL     1      14.311  43.274  44.882  0.00  0.00    +0.000 A 
ATOM     16  C   UNL     1      15.456  42.458  45.008  0.00  0.00    +0.000 A 
ATOM     17  C   UNL     1      16.198  42.073  43.904  0.00  0.00    +0.000 A 
ATOM     18  C   UNL     1      15.776  42.449  42.638  0.00  0.00    +0.000 A 
ATOM     19  C   UNL     1      14.619  43.230  42.455  0.00  0.00    +0.000 A 
ATOM     20  C   UNL     1      13.937  43.749  43.597  0.00  0.00    +0.000 A 
ATOM     21  C   UNL     1      14.161  43.529  41.015  0.00  0.00    +0.000 C 
ATOM     22  C   UNL     1      14.122  42.253  40.135  0.00  0.00    +0.000 C 
ENDROOT
BRANCH   1  24
ATOM     23  C   UNL     1      14.447  41.294  36.500  0.00  0.00    +0.000 C 
ATOM     24  C   UNL     1      13.602  41.220  37.791  0.00  0.00    +0.000 C 
ATOM     25  C   UNL     1      12.136  40.951  37.373  0.00  0.00    +0.000 C 
ATOM     26  C   UNL     1      14.075  39.972  38.576  0.00  0.00    +0.000 C 
ENDBRANCH   1  24
BRANCH   1  27
ATOM     27  O   UNL     1      14.766  43.357  38.118  0.00  0.00    +0.000 OA
ATOM     28  H   UNL     1      14.793  43.218  37.157  0.00  0.00    +0.000 HD
ENDBRANCH   1  27
TORSDOF 2
ENDMDL
