MODEL 1
REMARK VINA RESULT:    -6.816      0.000      0.000
REMARK INTER + INTRA:         -10.996
REMARK INTER:                  -9.447
REMARK INTRA:                  -1.550
REMARK UNBOUND:                -1.790
REMARK  Name = 
REMARK  6 active torsions:
REMARK  status: ('A' for Active; 'I' for Inactive)
REMARK    1  A    between atoms: C_2  and  C_29
REMARK    2  A    between atoms: N_3  and  C_4
REMARK    3  A    between atoms: C_8  and  C_9
REMARK    4  A    between atoms: C_9  and  C_11
REMARK    5  A    between atoms: N_20  and  C_21
REMARK    6  A    between atoms: C_21  and  C_22
REMARK                            x       y       z     vdW  Elec       q    Type
REMARK                         _______ _______ _______ _____ _____    ______ ____
ROOT
ATOM      1  C   UNL     1      20.001  35.916  51.272  0.00  0.00    +0.000 A 
ATOM      2  S   UNL     1      18.904  37.179  51.543  0.00  0.00    +0.000 S 
ATOM      3  C   UNL     1      18.257  37.040  49.984  0.00  0.00    +0.000 A 
ATOM      4  C   UNL     1      18.860  36.041  49.242  0.00  0.00    +0.000 A 
ATOM      5  C   UNL     1      19.935  35.405  49.977  0.00  0.00    +0.000 A 
ATOM      6  C   UNL     1      18.361  35.773  47.852  0.00  0.00    +0.000 C 
ATOM      7  C   UNL     1      16.966  36.400  47.616  0.00  0.00    +0.000 C 
ATOM      8  N   UNL     1      16.923  37.809  48.056  0.00  0.00    +0.000 NA
ATOM      9  C   UNL     1      17.112  37.903  49.527  0.00  0.00    +0.000 C 
ENDROOT
BRANCH   1  12
ATOM     10  O   UNL     1      19.871  33.532  53.063  0.00  0.00    +0.000 OA
ATOM     11  C   UNL     1      20.750  34.387  53.084  0.00  0.00    +0.000 C 
ATOM     12  N   UNL     1      20.875  35.489  52.263  0.00  0.00    +0.000 N 
ATOM     13  H   UNL     1      21.741  36.024  52.304  0.00  0.00    +0.000 HD
BRANCH  11  14
ATOM     14  C   UNL     1      21.855  34.225  54.077  0.00  0.00    +0.000 A 
ATOM     15  C   UNL     1      21.711  34.599  55.420  0.00  0.00    +0.000 A 
ATOM     16  C   UNL     1      22.772  34.425  56.313  0.00  0.00    +0.000 A 
ATOM     17  C   UNL     1      23.973  33.869  55.872  0.00  0.00    +0.000 A 
ATOM     18  C   UNL     1      24.117  33.481  54.541  0.00  0.00    +0.000 A 
ATOM     19  C   UNL     1      23.059  33.652  53.646  0.00  0.00    +0.000 A 
ENDBRANCH  11  14
ENDBRANCH   1  12
BRANCH   5  20
ATOM     20  C   UNL     1      20.865  34.354  49.540  0.00  0.00    +0.000 C 
ATOM     21  O   UNL     1      20.571  33.157  49.564  0.00  0.00    +0.000 OA
BRANCH  20  22
ATOM     22  C   UNL     1      22.208  34.701  49.055  0.00  0.00    +0.000 A 
ATOM     23  C   UNL     1      23.206  34.932  50.013  0.00  0.00    +0.000 A 
ATOM     24  C   UNL     1      24.494  35.277  49.602  0.00  0.00    +0.000 A 
ATOM     25  C   UNL     1      24.780  35.409  48.244  0.00  0.00    +0.000 A 
ATOM     26  C   UNL     1      23.777  35.209  47.292  0.00  0.00    +0.000 A 
ATOM     27  C   UNL     1      22.484  34.864  47.694  0.00  0.00    +0.000 A 
ATOM     28 CL   UNL     1      21.278  34.680  46.473  0.00  0.00    +0.000 Cl
ENDBRANCH  20  22
ENDBRANCH   5  20
BRANCH   8  29
ATOM     29  C   UNL     1      15.652  38.435  47.652  0.00  0.00    +0.000 C 
BRANCH  29  30
ATOM     30  C   UNL     1      15.783  39.352  46.455  0.00  0.00    +0.000 A 
ATOM     31  C   UNL     1      15.399  40.699  46.544  0.00  0.00    +0.000 A 
ATOM     32  C   UNL     1      15.527  41.548  45.444  0.00  0.00    +0.000 A 
ATOM     33  C   UNL     1      16.045  41.062  44.245  0.00  0.00    +0.000 A 
ATOM     34  C   UNL     1      16.436  39.728  44.146  0.00  0.00    +0.000 A 
ATOM     35  C   UNL     1      16.308  38.876  45.245  0.00  0.00    +0.000 A 
ENDBRANCH  29  30
ENDBRANCH   8  29
TORSDOF 6
ENDMDL
MODEL 2
REMARK VINA RESULT:    -6.567      3.655      5.068
REMARK INTER + INTRA:         -10.661
REMARK INTER:                  -8.818
REMARK INTRA:                  -1.843
REMARK UNBOUND:                -1.790
REMARK  Name = 
REMARK  6 active torsions:
REMARK  status: ('A' for Active; 'I' for Inactive)
REMARK    1  A    between atoms: C_2  and  C_29
REMARK    2  A    between atoms: N_3  and  C_4
REMARK    3  A    between atoms: C_8  and  C_9
REMARK    4  A    between atoms: C_9  and  C_11
REMARK    5  A    between atoms: N_20  and  C_21
REMARK    6  A    between atoms: C_21  and  C_22
REMARK                            x       y       z     vdW  Elec       q    Type
REMARK                         _______ _______ _______ _____ _____    ______ ____
ROOT
ATOM      1  C   UNL     1      15.904  39.075  51.799  0.00  0.00    +0.000 A 
ATOM      2  S   UNL     1      15.324  40.551  51.204  0.00  0.00    +0.000 S 
ATOM      3  C   UNL     1      15.234  39.956  49.621  0.00  0.00    +0.000 A 
ATOM      4  C   UNL     1      15.642  38.638  49.523  0.00  0.00    +0.000 A 
ATOM      5  C   UNL     1      16.095  38.122  50.799  0.00  0.00    +0.000 A 
ATOM      6  C   UNL     1      15.576  37.961  48.185  0.00  0.00    +0.000 C 
ATOM      7  C   UNL     1      14.674  38.737  47.197  0.00  0.00    +0.000 C 
ATOM      8  N   UNL     1      15.003  40.176  47.175  0.00  0.00    +0.000 NA
ATOM      9  C   UNL     1      14.709  40.799  48.491  0.00  0.00    +0.000 C 
ENDROOT
BRANCH   1  12
ATOM     10  O   UNL     1      18.002  40.304  53.529  0.00  0.00    +0.000 OA
ATOM     11  C   UNL     1      17.182  39.470  53.895  0.00  0.00    +0.000 C 
ATOM     12  N   UNL     1      16.175  38.892  53.148  0.00  0.00    +0.000 N 
ATOM     13  H   UNL     1      15.478  38.329  53.634  0.00  0.00    +0.000 HD
BRANCH  11  14
ATOM     14  C   UNL     1      17.222  39.035  55.324  0.00  0.00    +0.000 A 
ATOM     15  C   UNL     1      16.987  39.925  56.381  0.00  0.00    +0.000 A 
ATOM     16  C   UNL     1      17.031  39.469  57.702  0.00  0.00    +0.000 A 
ATOM     17  C   UNL     1      17.298  38.127  57.971  0.00  0.00    +0.000 A 
ATOM     18  C   UNL     1      17.516  37.234  56.923  0.00  0.00    +0.000 A 
ATOM     19  C   UNL     1      17.473  37.685  55.602  0.00  0.00    +0.000 A 
ENDBRANCH  11  14
ENDBRANCH   1  12
BRANCH   5  20
ATOM     20  C   UNL     1      16.665  36.806  51.120  0.00  0.00    +0.000 C 
ATOM     21  O   UNL     1      16.000  35.903  51.632  0.00  0.00    +0.000 OA
BRANCH  20  22
ATOM     22  C   UNL     1      18.079  36.518  50.843  0.00  0.00    +0.000 A 
ATOM     23  C   UNL     1      19.035  37.050  51.719  0.00  0.00    +0.000 A 
ATOM     24  C   UNL     1      20.392  36.815  51.490  0.00  0.00    +0.000 A 
ATOM     25  C   UNL     1      20.792  36.068  50.383  0.00  0.00    +0.000 A 
ATOM     26  C   UNL     1      19.840  35.564  49.494  0.00  0.00    +0.000 A 
ATOM     27  C   UNL     1      18.479  35.795  49.715  0.00  0.00    +0.000 A 
ATOM     28 CL   UNL     1      17.356  35.189  48.554  0.00  0.00    +0.000 Cl
ENDBRANCH  20  22
ENDBRANCH   5  20
BRANCH   8  29
ATOM     29  C   UNL     1      14.265  40.856  46.098  0.00  0.00    +0.000 C 
BRANCH  29  30
ATOM     30  C   UNL     1      15.148  41.327  44.962  0.00  0.00    +0.000 A 
ATOM     31  C   UNL     1      15.406  42.694  44.780  0.00  0.00    +0.000 A 
ATOM     32  C   UNL     1      16.226  43.129  43.738  0.00  0.00    +0.000 A 
ATOM     33  C   UNL     1      16.803  42.203  42.871  0.00  0.00    +0.000 A 
ATOM     34  C   UNL     1      16.560  40.841  43.046  0.00  0.00    +0.000 A 
ATOM     35  C   UNL     1      15.738  40.404  44.086  0.00  0.00    +0.000 A 
ENDBRANCH  29  30
ENDBRANCH   8  29
TORSDOF 6
ENDMDL
MODEL 3
REMARK VINA RESULT:    -6.354      4.315     10.781
REMARK INTER + INTRA:         -10.372
REMARK INTER:                  -8.582
REMARK INTRA:                  -1.790
REMARK UNBOUND:                -1.790
REMARK  Name = 
REMARK  6 active torsions:
REMARK  status: ('A' for Active; 'I' for Inactive)
REMARK    1  A    between atoms: C_2  and  C_29
REMARK    2  A    between atoms: N_3  and  C_4
REMARK    3  A    between atoms: C_8  and  C_9
REMARK    4  A    between atoms: C_9  and  C_11
REMARK    5  A    between atoms: N_20  and  C_21
REMARK    6  A    between atoms: C_21  and  C_22
REMARK                            x       y       z     vdW  Elec       q    Type
REMARK                         _______ _______ _______ _____ _____    ______ ____
ROOT
ATOM      1  C   UNL     1      16.799  38.868  50.287  0.00  0.00    +0.000 A 
ATOM      2  S   UNL     1      17.547  37.348  50.229  0.00  0.00    +0.000 S 
ATOM      3  C   UNL     1      17.535  37.203  51.916  0.00  0.00    +0.000 A 
ATOM      4  C   UNL     1      16.968  38.298  52.542  0.00  0.00    +0.000 A 
ATOM      5  C   UNL     1      16.579  39.317  51.588  0.00  0.00    +0.000 A 
ATOM      6  C   UNL     1      16.849  38.292  54.039  0.00  0.00    +0.000 C 
ATOM      7  C   UNL     1      17.019  36.867  54.618  0.00  0.00    +0.000 C 
ATOM      8  N   UNL     1      18.210  36.194  54.063  0.00  0.00    +0.000 NA
ATOM      9  C   UNL     1      18.050  35.968  52.604  0.00  0.00    +0.000 C 
ENDROOT
BRANCH   1  12
ATOM     10  O   UNL     1      14.638  38.404  48.282  0.00  0.00    +0.000 OA
ATOM     11  C   UNL     1      15.484  39.289  48.219  0.00  0.00    +0.000 C 
ATOM     12  N   UNL     1      16.484  39.566  49.129  0.00  0.00    +0.000 N 
ATOM     13  H   UNL     1      17.015  40.428  49.013  0.00  0.00    +0.000 HD
BRANCH  11  14
ATOM     14  C   UNL     1      15.432  40.221  47.053  0.00  0.00    +0.000 A 
ATOM     15  C   UNL     1      16.000  39.897  45.812  0.00  0.00    +0.000 A 
ATOM     16  C   UNL     1      15.921  40.801  44.749  0.00  0.00    +0.000 A 
ATOM     17  C   UNL     1      15.270  42.023  44.916  0.00  0.00    +0.000 A 
ATOM     18  C   UNL     1      14.689  42.344  46.142  0.00  0.00    +0.000 A 
ATOM     19  C   UNL     1      14.764  41.443  47.207  0.00  0.00    +0.000 A 
ENDBRANCH  11  14
ENDBRANCH   1  12
BRANCH   5  20
ATOM     20  C   UNL     1      16.007  40.649  51.832  0.00  0.00    +0.000 C 
ATOM     21  O   UNL     1      16.681  41.678  51.784  0.00  0.00    +0.000 OA
BRANCH  20  22
ATOM     22  C   UNL     1      14.581  40.799  52.155  0.00  0.00    +0.000 A 
ATOM     23  C   UNL     1      13.659  40.675  51.106  0.00  0.00    +0.000 A 
ATOM     24  C   UNL     1      12.295  40.822  51.361  0.00  0.00    +0.000 A 
ATOM     25  C   UNL     1      11.855  41.111  52.652  0.00  0.00    +0.000 A 
ATOM     26  C   UNL     1      12.777  41.266  53.691  0.00  0.00    +0.000 A 
ATOM     27  C   UNL     1      14.145  41.120  53.445  0.00  0.00    +0.000 A 
ATOM     28 CL   UNL     1      15.236  41.373  54.758  0.00  0.00    +0.000 Cl
ENDBRANCH  20  22
ENDBRANCH   5  20
BRANCH   8  29
ATOM     29  C   UNL     1      18.456  34.922  54.765  0.00  0.00    +0.000 C 
BRANCH  29  30
ATOM     30  C   UNL     1      19.905  34.710  55.144  0.00  0.00    +0.000 A 
ATOM     31  C   UNL     1      20.300  34.734  56.491  0.00  0.00    +0.000 A 
ATOM     32  C   UNL     1      21.635  34.531  56.843  0.00  0.00    +0.000 A 
ATOM     33  C   UNL     1      22.589  34.294  55.854  0.00  0.00    +0.000 A 
ATOM     34  C   UNL     1      22.208  34.261  54.514  0.00  0.00    +0.000 A 
ATOM     35  C   UNL     1      20.874  34.466  54.160  0.00  0.00    +0.000 A 
ENDBRANCH  29  30
ENDBRANCH   8  29
TORSDOF 6
ENDMDL
