MODEL 1
REMARK VINA RESULT:    -6.958      0.000      0.000
REMARK INTER + INTRA:          -9.538
REMARK INTER:                  -8.840
REMARK INTRA:                  -0.698
REMARK UNBOUND:                -0.140
REMARK  Name = 
REMARK  8 active torsions:
REMARK  status: ('A' for Active; 'I' for Inactive)
REMARK    1  A    between atoms: C_1  and  O_2
REMARK    2  A    between atoms: O_2  and  C_3
REMARK    3  A    between atoms: C_9  and  N_10
REMARK    4  A    between atoms: N_10  and  C_11
REMARK    5  A    between atoms: C_16  and  C_17
REMARK    6  A    between atoms: C_17  and  C_18
REMARK    7  A    between atoms: C_29  and  O_30
REMARK    8  A    between atoms: O_30  and  C_31
REMARK                            x       y       z     vdW  Elec       q    Type
REMARK                         _______ _______ _______ _____ _____    ______ ____
ROOT
ATOM      1  C   UNL     1      14.025  45.362  45.581  0.00  0.00    +0.000 A 
ATOM      2  C   UNL     1      12.803  45.109  46.230  0.00  0.00    +0.000 A 
ATOM      3  C   UNL     1      11.954  46.148  46.647  0.00  0.00    +0.000 A 
ATOM      4  C   UNL     1      12.333  47.468  46.382  0.00  0.00    +0.000 A 
ATOM      5  N   UNL     1      11.690  48.645  46.675  0.00  0.00    +0.000 NA
ATOM      6  C   UNL     1      12.462  49.602  46.196  0.00  0.00    +0.000 A 
ATOM      7  N   UNL     1      13.585  49.070  45.605  0.00  0.00    +0.000 N 
ATOM      8  C   UNL     1      13.524  47.706  45.712  0.00  0.00    +0.000 A 
ATOM      9  C   UNL     1      14.382  46.688  45.285  0.00  0.00    +0.000 A 
ATOM     10  H   UNL     1      14.319  49.598  45.155  0.00  0.00    +0.000 HD
ENDROOT
BRANCH   1  11
ATOM     11  N   UNL     1      14.790  44.258  45.128  0.00  0.00    +0.000 N 
ATOM     12  H   UNL     1      15.711  44.251  45.554  0.00  0.00    +0.000 HD
BRANCH  11  19
ATOM     13  C   UNL     1      16.459  39.884  43.084  0.00  0.00    +0.000 A 
ATOM     14  C   UNL     1      16.070  40.748  42.054  0.00  0.00    +0.000 A 
ATOM     15  C   UNL     1      15.551  42.011  42.309  0.00  0.00    +0.000 A 
ATOM     16  N   UNL     1      15.195  42.769  41.269  0.00  0.00    +0.000 NA
ATOM     17  C   UNL     1      14.692  43.976  41.548  0.00  0.00    +0.000 A 
ATOM     18  N   UNL     1      14.523  44.497  42.765  0.00  0.00    +0.000 NA
ATOM     19  C   UNL     1      14.898  43.736  43.809  0.00  0.00    +0.000 A 
ATOM     20  C   UNL     1      15.421  42.437  43.636  0.00  0.00    +0.000 A 
ATOM     21  C   UNL     1      15.799  41.561  44.687  0.00  0.00    +0.000 A 
ATOM     22  C   UNL     1      16.314  40.292  44.418  0.00  0.00    +0.000 A 
BRANCH  13  24
ATOM     23  C   UNL     1      17.844  38.434  41.780  0.00  0.00    +0.000 C 
ATOM     24  O   UNL     1      16.978  38.628  42.889  0.00  0.00    +0.000 OA
ENDBRANCH  13  24
BRANCH  22  25
ATOM     25  O   UNL     1      16.706  39.392  45.375  0.00  0.00    +0.000 OA
ATOM     26  C   UNL     1      16.252  39.596  46.706  0.00  0.00    +0.000 C 
ENDBRANCH  22  25
ENDBRANCH  11  19
ENDBRANCH   1  11
BRANCH   6  27
ATOM     27  C   UNL     1      12.199  51.074  46.279  0.00  0.00    +0.000 C 
BRANCH  27  28
ATOM     28  C   UNL     1      12.664  51.713  47.569  0.00  0.00    +0.000 A 
ATOM     29  C   UNL     1      11.794  51.809  48.665  0.00  0.00    +0.000 A 
ATOM     30  C   UNL     1      12.210  52.425  49.846  0.00  0.00    +0.000 A 
ATOM     31  C   UNL     1      13.497  52.949  49.944  0.00  0.00    +0.000 A 
ATOM     32  C   UNL     1      14.371  52.858  48.860  0.00  0.00    +0.000 A 
ATOM     33  C   UNL     1      13.958  52.244  47.678  0.00  0.00    +0.000 A 
ENDBRANCH  27  28
ENDBRANCH   6  27
TORSDOF 6
ENDMDL
MODEL 2
REMARK VINA RESULT:    -6.898      3.489     11.066
REMARK INTER + INTRA:          -9.457
REMARK INTER:                  -8.559
REMARK INTRA:                  -0.899
REMARK UNBOUND:                -0.140
REMARK  Name = 
REMARK  8 active torsions:
REMARK  status: ('A' for Active; 'I' for Inactive)
REMARK    1  A    between atoms: C_1  and  O_2
REMARK    2  A    between atoms: O_2  and  C_3
REMARK    3  A    between atoms: C_9  and  N_10
REMARK    4  A    between atoms: N_10  and  C_11
REMARK    5  A    between atoms: C_16  and  C_17
REMARK    6  A    between atoms: C_17  and  C_18
REMARK    7  A    between atoms: C_29  and  O_30
REMARK    8  A    between atoms: O_30  and  C_31
REMARK                            x       y       z     vdW  Elec       q    Type
REMARK                         _______ _______ _______ _____ _____    ______ ____
ROOT
ATOM      1  C   UNL     1      15.308  43.773  43.693  0.00  0.00    +0.000 A 
ATOM      2  C   UNL     1      14.523  43.786  42.525  0.00  0.00    +0.000 A 
ATOM      3  C   UNL     1      14.565  42.740  41.588  0.00  0.00    +0.000 A 
ATOM      4  C   UNL     1      15.397  41.645  41.847  0.00  0.00    +0.000 A 
ATOM      5  N   UNL     1      15.613  40.509  41.108  0.00  0.00    +0.000 NA
ATOM      6  C   UNL     1      16.474  39.789  41.802  0.00  0.00    +0.000 A 
ATOM      7  N   UNL     1      16.819  40.436  42.967  0.00  0.00    +0.000 N 
ATOM      8  C   UNL     1      16.142  41.626  43.017  0.00  0.00    +0.000 A 
ATOM      9  C   UNL     1      16.112  42.654  43.964  0.00  0.00    +0.000 A 
ATOM     10  H   UNL     1      17.451  40.082  43.671  0.00  0.00    +0.000 HD
ENDROOT
BRANCH   1  11
ATOM     11  N   UNL     1      15.154  44.833  44.621  0.00  0.00    +0.000 N 
ATOM     12  H   UNL     1      15.957  44.898  45.238  0.00  0.00    +0.000 HD
BRANCH  11  19
ATOM     13  C   UNL     1      12.915  49.262  45.831  0.00  0.00    +0.000 A 
ATOM     14  C   UNL     1      12.196  48.213  46.417  0.00  0.00    +0.000 A 
ATOM     15  C   UNL     1      12.559  46.884  46.243  0.00  0.00    +0.000 A 
ATOM     16  N   UNL     1      11.813  45.944  46.829  0.00  0.00    +0.000 NA
ATOM     17  C   UNL     1      12.184  44.674  46.636  0.00  0.00    +0.000 A 
ATOM     18  N   UNL     1      13.234  44.260  45.924  0.00  0.00    +0.000 NA
ATOM     19  C   UNL     1      13.992  45.211  45.350  0.00  0.00    +0.000 A 
ATOM     20  C   UNL     1      13.683  46.583  45.467  0.00  0.00    +0.000 A 
ATOM     21  C   UNL     1      14.410  47.639  44.856  0.00  0.00    +0.000 A 
ATOM     22  C   UNL     1      14.032  48.971  45.034  0.00  0.00    +0.000 A 
BRANCH  13  24
ATOM     23  C   UNL     1      12.179  51.041  47.250  0.00  0.00    +0.000 C 
ATOM     24  O   UNL     1      12.602  50.591  45.970  0.00  0.00    +0.000 OA
ENDBRANCH  13  24
BRANCH  22  25
ATOM     25  O   UNL     1      14.682  50.045  44.484  0.00  0.00    +0.000 OA
ATOM     26  C   UNL     1      16.098  50.097  44.601  0.00  0.00    +0.000 C 
ENDBRANCH  22  25
ENDBRANCH  11  19
ENDBRANCH   1  11
BRANCH   6  27
ATOM     27  C   UNL     1      17.037  38.460  41.406  0.00  0.00    +0.000 C 
BRANCH  27  28
ATOM     28  C   UNL     1      17.929  38.506  40.185  0.00  0.00    +0.000 A 
ATOM     29  C   UNL     1      19.177  39.144  40.244  0.00  0.00    +0.000 A 
ATOM     30  C   UNL     1      19.989  39.214  39.111  0.00  0.00    +0.000 A 
ATOM     31  C   UNL     1      19.563  38.649  37.911  0.00  0.00    +0.000 A 
ATOM     32  C   UNL     1      18.324  38.011  37.841  0.00  0.00    +0.000 A 
ATOM     33  C   UNL     1      17.510  37.940  38.972  0.00  0.00    +0.000 A 
ENDBRANCH  27  28
ENDBRANCH   6  27
TORSDOF 6
ENDMDL
MODEL 3
REMARK VINA RESULT:    -6.666      4.726      8.342
REMARK INTER + INTRA:          -9.143
REMARK INTER:                  -9.004
REMARK INTRA:                  -0.140
REMARK UNBOUND:                -0.140
REMARK  Name = 
REMARK  8 active torsions:
REMARK  status: ('A' for Active; 'I' for Inactive)
REMARK    1  A    between atoms: C_1  and  O_2
REMARK    2  A    between atoms: O_2  and  C_3
REMARK    3  A    between atoms: C_9  and  N_10
REMARK    4  A    between atoms: N_10  and  C_11
REMARK    5  A    between atoms: C_16  and  C_17
REMARK    6  A    between atoms: C_17  and  C_18
REMARK    7  A    between atoms: C_29  and  O_30
REMARK    8  A    between atoms: O_30  and  C_31
REMARK                            x       y       z     vdW  Elec       q    Type
REMARK                         _______ _______ _______ _____ _____    ______ ____
ROOT
ATOM      1  C   UNL     1      15.454  39.362  47.365  0.00  0.00    +0.000 A 
ATOM      2  C   UNL     1      16.125  38.970  46.192  0.00  0.00    +0.000 A 
ATOM      3  C   UNL     1      16.275  39.835  45.095  0.00  0.00    +0.000 A 
ATOM      4  C   UNL     1      15.760  41.133  45.193  0.00  0.00    +0.000 A 
ATOM      5  N   UNL     1      15.779  42.159  44.282  0.00  0.00    +0.000 NA
ATOM      6  C   UNL     1      15.175  43.172  44.872  0.00  0.00    +0.000 A 
ATOM      7  N   UNL     1      14.767  42.822  46.139  0.00  0.00    +0.000 N 
ATOM      8  C   UNL     1      15.130  41.521  46.366  0.00  0.00    +0.000 A 
ATOM      9  C   UNL     1      14.973  40.678  47.470  0.00  0.00    +0.000 A 
ATOM     10  H   UNL     1      14.294  43.430  46.793  0.00  0.00    +0.000 HD
ENDROOT
BRANCH   1  11
ATOM     11  N   UNL     1      15.408  38.455  48.452  0.00  0.00    +0.000 N 
ATOM     12  H   UNL     1      14.621  38.652  49.060  0.00  0.00    +0.000 HD
BRANCH  11  19
ATOM     13  C   UNL     1      17.473  39.750  52.941  0.00  0.00    +0.000 A 
ATOM     14  C   UNL     1      18.205  38.690  52.392  0.00  0.00    +0.000 A 
ATOM     15  C   UNL     1      17.863  38.110  51.178  0.00  0.00    +0.000 A 
ATOM     16  N   UNL     1      18.608  37.097  50.730  0.00  0.00    +0.000 NA
ATOM     17  C   UNL     1      18.247  36.554  49.562  0.00  0.00    +0.000 A 
ATOM     18  N   UNL     1      17.222  36.937  48.799  0.00  0.00    +0.000 NA
ATOM     19  C   UNL     1      16.484  37.968  49.247  0.00  0.00    +0.000 A 
ATOM     20  C   UNL     1      16.757  38.604  50.476  0.00  0.00    +0.000 A 
ATOM     21  C   UNL     1      16.000  39.668  51.033  0.00  0.00    +0.000 A 
ATOM     22  C   UNL     1      16.351  40.240  52.257  0.00  0.00    +0.000 A 
BRANCH  13  24
ATOM     23  C   UNL     1      17.395  39.691  55.331  0.00  0.00    +0.000 C 
ATOM     24  O   UNL     1      17.768  40.361  54.135  0.00  0.00    +0.000 OA
ENDBRANCH  13  24
BRANCH  22  25
ATOM     25  O   UNL     1      15.676  41.271  52.857  0.00  0.00    +0.000 OA
ATOM     26  C   UNL     1      15.933  42.591  52.398  0.00  0.00    +0.000 C 
ENDBRANCH  22  25
ENDBRANCH  11  19
ENDBRANCH   1  11
BRANCH   6  27
ATOM     27  C   UNL     1      14.931  44.524  44.278  0.00  0.00    +0.000 C 
BRANCH  27  28
ATOM     28  C   UNL     1      14.010  45.402  45.097  0.00  0.00    +0.000 A 
ATOM     29  C   UNL     1      12.958  44.833  45.830  0.00  0.00    +0.000 A 
ATOM     30  C   UNL     1      12.088  45.642  46.562  0.00  0.00    +0.000 A 
ATOM     31  C   UNL     1      12.261  47.025  46.569  0.00  0.00    +0.000 A 
ATOM     32  C   UNL     1      13.305  47.601  45.845  0.00  0.00    +0.000 A 
ATOM     33  C   UNL     1      14.175  46.795  45.111  0.00  0.00    +0.000 A 
ENDBRANCH  27  28
ENDBRANCH   6  27
TORSDOF 6
ENDMDL
