MODEL 1
REMARK VINA RESULT:    -6.974      0.000      0.000
REMARK INTER + INTRA:         -11.078
REMARK INTER:                 -10.019
REMARK INTRA:                  -1.059
REMARK UNBOUND:                -1.249
REMARK  Name = 
REMARK  7 active torsions:
REMARK  status: ('A' for Active; 'I' for Inactive)
REMARK    1  A    between atoms: N_2  and  C_4
REMARK    2  A    between atoms: C_7  and  C_8
REMARK    3  A    between atoms: C_8  and  C_9
REMARK    4  A    between atoms: C_9  and  N_10
REMARK    5  A    between atoms: C_13  and  N_14
REMARK    6  A    between atoms: N_23  and  C_24
REMARK    7  A    between atoms: C_24  and  C_25
REMARK                            x       y       z     vdW  Elec       q    Type
REMARK                         _______ _______ _______ _____ _____    ______ ____
ROOT
ATOM      1  N   UNL     1      16.093  39.761  49.785  0.00  0.00    +0.000 N 
ATOM      2  C   UNL     1      16.325  39.273  51.028  0.00  0.00    +0.000 A 
ATOM      3  N   UNL     1      16.223  38.020  51.409  0.00  0.00    +0.000 NA
ATOM      4  C   UNL     1      16.553  37.999  52.738  0.00  0.00    +0.000 A 
ATOM      5  C   UNL     1      16.618  36.912  53.625  0.00  0.00    +0.000 A 
ATOM      6  C   UNL     1      16.989  37.145  54.953  0.00  0.00    +0.000 A 
ATOM      7  C   UNL     1      17.288  38.435  55.394  0.00  0.00    +0.000 A 
ATOM      8  C   UNL     1      17.228  39.531  54.525  0.00  0.00    +0.000 A 
ATOM      9  C   UNL     1      16.859  39.275  53.198  0.00  0.00    +0.000 A 
ATOM     10  N   UNL     1      16.696  40.078  52.087  0.00  0.00    +0.000 N 
ATOM     11  H   UNL     1      16.513  40.636  49.498  0.00  0.00    +0.000 HD
ENDROOT
BRANCH   1  15
ATOM     12  N   UNL     1      16.641  39.221  45.795  0.00  0.00    +0.000 NA
ATOM     13  C   UNL     1      15.719  40.109  46.522  0.00  0.00    +0.000 C 
ATOM     14  C   UNL     1      14.953  39.414  47.644  0.00  0.00    +0.000 C 
ATOM     15  C   UNL     1      15.907  38.809  48.684  0.00  0.00    +0.000 C 
ATOM     16  C   UNL     1      17.266  38.446  48.072  0.00  0.00    +0.000 C 
ATOM     17  C   UNL     1      17.114  38.084  46.599  0.00  0.00    +0.000 C 
BRANCH  12  18
ATOM     18  C   UNL     1      16.081  38.801  44.497  0.00  0.00    +0.000 C 
BRANCH  18  19
ATOM     19  C   UNL     1      16.850  39.355  43.283  0.00  0.00    +0.000 C 
BRANCH  19  23
ATOM     20  C   UNL     1      15.121  43.017  41.806  0.00  0.00    +0.000 A 
ATOM     21  C   UNL     1      16.040  43.061  42.860  0.00  0.00    +0.000 A 
ATOM     22  C   UNL     1      16.595  41.871  43.339  0.00  0.00    +0.000 A 
ATOM     23  C   UNL     1      16.236  40.639  42.772  0.00  0.00    +0.000 A 
ATOM     24  C   UNL     1      15.320  40.611  41.710  0.00  0.00    +0.000 A 
ATOM     25  C   UNL     1      14.758  41.794  41.226  0.00  0.00    +0.000 A 
BRANCH  20  27
ATOM     26  O   UNL     1      14.847  44.627  40.157  0.00  0.00    +0.000 OA
ATOM     27  N   UNL     1      14.534  44.264  41.300  0.00  0.00    +0.000 N 
ATOM     28  O   UNL     1      13.758  44.879  42.044  0.00  0.00    +0.000 OA
ENDBRANCH  20  27
ENDBRANCH  19  23
ENDBRANCH  18  19
ENDBRANCH  12  18
ENDBRANCH   1  15
BRANCH  10  29
ATOM     29  C   UNL     1      16.935  41.510  52.057  0.00  0.00    +0.000 C 
BRANCH  29  30
ATOM     30  C   UNL     1      15.786  42.310  52.629  0.00  0.00    +0.000 A 
ATOM     31  C   UNL     1      14.488  41.775  52.697  0.00  0.00    +0.000 A 
ATOM     32  C   UNL     1      13.433  42.537  53.201  0.00  0.00    +0.000 A 
ATOM     33  C   UNL     1      13.667  43.838  53.627  0.00  0.00    +0.000 A 
ATOM     34  F   UNL     1      12.654  44.570  54.105  0.00  0.00    +0.000 F 
ATOM     35  C   UNL     1      14.940  44.392  53.561  0.00  0.00    +0.000 A 
ATOM     36  C   UNL     1      15.998  43.631  53.059  0.00  0.00    +0.000 A 
ENDBRANCH  29  30
ENDBRANCH  10  29
TORSDOF 7
ENDMDL
MODEL 2
REMARK VINA RESULT:    -6.793      4.880      8.977
REMARK INTER + INTRA:         -10.823
REMARK INTER:                  -9.573
REMARK INTRA:                  -1.249
REMARK UNBOUND:                -1.249
REMARK  Name = 
REMARK  7 active torsions:
REMARK  status: ('A' for Active; 'I' for Inactive)
REMARK    1  A    between atoms: N_2  and  C_4
REMARK    2  A    between atoms: C_7  and  C_8
REMARK    3  A    between atoms: C_8  and  C_9
REMARK    4  A    between atoms: C_9  and  N_10
REMARK    5  A    between atoms: C_13  and  N_14
REMARK    6  A    between atoms: N_23  and  C_24
REMARK    7  A    between atoms: C_24  and  C_25
REMARK                            x       y       z     vdW  Elec       q    Type
REMARK                         _______ _______ _______ _____ _____    ______ ____
ROOT
ATOM      1  N   UNL     1      17.460  37.749  51.142  0.00  0.00    +0.000 N 
ATOM      2  C   UNL     1      18.570  37.057  50.789  0.00  0.00    +0.000 A 
ATOM      3  N   UNL     1      19.738  37.090  51.390  0.00  0.00    +0.000 NA
ATOM      4  C   UNL     1      20.549  36.235  50.692  0.00  0.00    +0.000 A 
ATOM      5  C   UNL     1      21.891  35.893  50.920  0.00  0.00    +0.000 A 
ATOM      6  C   UNL     1      22.511  34.981  50.059  0.00  0.00    +0.000 A 
ATOM      7  C   UNL     1      21.811  34.421  48.989  0.00  0.00    +0.000 A 
ATOM      8  C   UNL     1      20.473  34.752  48.744  0.00  0.00    +0.000 A 
ATOM      9  C   UNL     1      19.869  35.664  49.622  0.00  0.00    +0.000 A 
ATOM     10  N   UNL     1      18.605  36.213  49.697  0.00  0.00    +0.000 N 
ATOM     11  H   UNL     1      16.546  37.420  50.858  0.00  0.00    +0.000 HD
ENDROOT
BRANCH   1  15
ATOM     12  N   UNL     1      15.551  40.617  53.297  0.00  0.00    +0.000 NA
ATOM     13  C   UNL     1      16.390  40.726  52.094  0.00  0.00    +0.000 C 
ATOM     14  C   UNL     1      17.702  39.952  52.186  0.00  0.00    +0.000 C 
ATOM     15  C   UNL     1      17.456  38.456  52.428  0.00  0.00    +0.000 C 
ATOM     16  C   UNL     1      16.132  38.204  53.159  0.00  0.00    +0.000 C 
ATOM     17  C   UNL     1      15.782  39.381  54.062  0.00  0.00    +0.000 C 
BRANCH  12  18
ATOM     18  C   UNL     1      15.642  41.826  54.137  0.00  0.00    +0.000 C 
BRANCH  18  19
ATOM     19  C   UNL     1      15.996  43.101  53.350  0.00  0.00    +0.000 C 
BRANCH  19  23
ATOM     20  C   UNL     1      12.884  46.071  53.630  0.00  0.00    +0.000 A 
ATOM     21  C   UNL     1      14.202  46.470  53.379  0.00  0.00    +0.000 A 
ATOM     22  C   UNL     1      15.208  45.504  53.293  0.00  0.00    +0.000 A 
ATOM     23  C   UNL     1      14.907  44.144  53.458  0.00  0.00    +0.000 A 
ATOM     24  C   UNL     1      13.580  43.758  53.701  0.00  0.00    +0.000 A 
ATOM     25  C   UNL     1      12.568  44.716  53.791  0.00  0.00    +0.000 A 
BRANCH  20  27
ATOM     26  O   UNL     1      11.951  48.115  53.051  0.00  0.00    +0.000 OA
ATOM     27  N   UNL     1      11.823  47.081  53.723  0.00  0.00    +0.000 N 
ATOM     28  O   UNL     1      10.861  46.840  54.466  0.00  0.00    +0.000 OA
ENDBRANCH  20  27
ENDBRANCH  19  23
ENDBRANCH  18  19
ENDBRANCH  12  18
ENDBRANCH   1  15
BRANCH  10  29
ATOM     29  C   UNL     1      17.508  35.894  48.800  0.00  0.00    +0.000 C 
BRANCH  29  30
ATOM     30  C   UNL     1      17.345  36.906  47.688  0.00  0.00    +0.000 A 
ATOM     31  C   UNL     1      16.407  37.949  47.784  0.00  0.00    +0.000 A 
ATOM     32  C   UNL     1      16.248  38.857  46.736  0.00  0.00    +0.000 A 
ATOM     33  C   UNL     1      17.016  38.722  45.587  0.00  0.00    +0.000 A 
ATOM     34  F   UNL     1      16.859  39.590  44.581  0.00  0.00    +0.000 F 
ATOM     35  C   UNL     1      17.943  37.694  45.466  0.00  0.00    +0.000 A 
ATOM     36  C   UNL     1      18.106  36.785  46.513  0.00  0.00    +0.000 A 
ENDBRANCH  29  30
ENDBRANCH  10  29
TORSDOF 7
ENDMDL
MODEL 3
REMARK VINA RESULT:    -6.784      6.852     10.111
REMARK INTER + INTRA:         -10.809
REMARK INTER:                  -9.565
REMARK INTRA:                  -1.244
REMARK UNBOUND:                -1.249
REMARK  Name = 
REMARK  7 active torsions:
REMARK  status: ('A' for Active; 'I' for Inactive)
REMARK    1  A    between atoms: N_2  and  C_4
REMARK    2  A    between atoms: C_7  and  C_8
REMARK    3  A    between atoms: C_8  and  C_9
REMARK    4  A    between atoms: C_9  and  N_10
REMARK    5  A    between atoms: C_13  and  N_14
REMARK    6  A    between atoms: N_23  and  C_24
REMARK    7  A    between atoms: C_24  and  C_25
REMARK                            x       y       z     vdW  Elec       q    Type
REMARK                         _______ _______ _______ _____ _____    ______ ____
ROOT
ATOM      1  N   UNL     1      20.714  34.931  50.843  0.00  0.00    +0.000 N 
ATOM      2  C   UNL     1      21.971  34.743  50.373  0.00  0.00    +0.000 A 
ATOM      3  N   UNL     1      22.572  35.448  49.442  0.00  0.00    +0.000 NA
ATOM      4  C   UNL     1      23.820  34.903  49.299  0.00  0.00    +0.000 A 
ATOM      5  C   UNL     1      24.869  35.286  48.447  0.00  0.00    +0.000 A 
ATOM      6  C   UNL     1      26.068  34.566  48.487  0.00  0.00    +0.000 A 
ATOM      7  C   UNL     1      26.221  33.484  49.354  0.00  0.00    +0.000 A 
ATOM      8  C   UNL     1      25.186  33.086  50.210  0.00  0.00    +0.000 A 
ATOM      9  C   UNL     1      23.996  33.824  50.158  0.00  0.00    +0.000 A 
ATOM     10  N   UNL     1      22.794  33.733  50.830  0.00  0.00    +0.000 N 
ATOM     11  H   UNL     1      20.460  34.589  51.761  0.00  0.00    +0.000 HD
ENDROOT
BRANCH   1  15
ATOM     12  N   UNL     1      17.305  37.060  51.446  0.00  0.00    +0.000 NA
ATOM     13  C   UNL     1      17.517  35.761  50.787  0.00  0.00    +0.000 C 
ATOM     14  C   UNL     1      18.667  35.761  49.783  0.00  0.00    +0.000 C 
ATOM     15  C   UNL     1      19.995  36.148  50.450  0.00  0.00    +0.000 C 
ATOM     16  C   UNL     1      19.780  37.047  51.674  0.00  0.00    +0.000 C 
ATOM     17  C   UNL     1      18.520  37.888  51.511  0.00  0.00    +0.000 C 
BRANCH  12  18
ATOM     18  C   UNL     1      16.158  37.784  50.867  0.00  0.00    +0.000 C 
BRANCH  18  19
ATOM     19  C   UNL     1      16.504  39.202  50.377  0.00  0.00    +0.000 C 
BRANCH  19  23
ATOM     20  C   UNL     1      15.053  42.239  53.070  0.00  0.00    +0.000 A 
ATOM     21  C   UNL     1      16.431  42.036  52.933  0.00  0.00    +0.000 A 
ATOM     22  C   UNL     1      16.897  41.048  52.062  0.00  0.00    +0.000 A 
ATOM     23  C   UNL     1      15.996  40.261  51.330  0.00  0.00    +0.000 A 
ATOM     24  C   UNL     1      14.617  40.481  51.472  0.00  0.00    +0.000 A 
ATOM     25  C   UNL     1      14.142  41.464  52.341  0.00  0.00    +0.000 A 
BRANCH  20  27
ATOM     26  O   UNL     1      13.560  43.010  54.671  0.00  0.00    +0.000 OA
ATOM     27  N   UNL     1      14.558  43.275  53.985  0.00  0.00    +0.000 N 
ATOM     28  O   UNL     1      15.167  44.354  54.019  0.00  0.00    +0.000 OA
ENDBRANCH  20  27
ENDBRANCH  19  23
ENDBRANCH  18  19
ENDBRANCH  12  18
ENDBRANCH   1  15
BRANCH  10  29
ATOM     29  C   UNL     1      22.497  32.765  51.871  0.00  0.00    +0.000 C 
BRANCH  29  30
ATOM     30  C   UNL     1      22.752  33.300  53.262  0.00  0.00    +0.000 A 
ATOM     31  C   UNL     1      24.040  33.278  53.827  0.00  0.00    +0.000 A 
ATOM     32  C   UNL     1      24.253  33.749  55.124  0.00  0.00    +0.000 A 
ATOM     33  C   UNL     1      23.182  34.234  55.863  0.00  0.00    +0.000 A 
ATOM     34  F   UNL     1      23.386  34.680  57.108  0.00  0.00    +0.000 F 
ATOM     35  C   UNL     1      21.899  34.257  55.330  0.00  0.00    +0.000 A 
ATOM     36  C   UNL     1      21.683  33.789  54.032  0.00  0.00    +0.000 A 
ENDBRANCH  29  30
ENDBRANCH  10  29
TORSDOF 7
ENDMDL
