MODEL 1
REMARK VINA RESULT:    -7.119      0.000      0.000
REMARK INTER + INTRA:         -10.407
REMARK INTER:                  -9.621
REMARK INTRA:                  -0.786
REMARK UNBOUND:                -1.207
REMARK  Name = 
REMARK  5 active torsions:
REMARK  status: ('A' for Active; 'I' for Inactive)
REMARK    1  A    between atoms: C_9  and  C_10
REMARK    2  A    between atoms: N_18  and  C_19
REMARK    3  A    between atoms: C_19  and  C_20
REMARK    4  A    between atoms: N_27  and  C_28
REMARK    5  A    between atoms: C_28  and  C_29
REMARK                            x       y       z     vdW  Elec       q    Type
REMARK                         _______ _______ _______ _____ _____    ______ ____
ROOT
ATOM      1  O   UNL     1      12.710  40.876  51.655  0.00  0.00    +0.000 OA
ATOM      2  C   UNL     1      13.782  41.056  52.204  0.00  0.00    +0.000 C 
ATOM      3  C   UNL     1      15.051  40.329  51.919  0.00  0.00    +0.000 A 
ATOM      4  C   UNL     1      15.914  40.776  52.837  0.00  0.00    +0.000 A 
ATOM      5  C   UNL     1      17.267  40.220  52.899  0.00  0.00    +0.000 A 
ATOM      6  O   UNL     1      18.120  40.587  53.696  0.00  0.00    +0.000 OA
ATOM      7  N   UNL     1      17.488  39.195  51.959  0.00  0.00    +0.000 N 
ATOM      8  N   UNL     1      18.658  38.517  51.888  0.00  0.00    +0.000 NA
ATOM      9  C   UNL     1      18.479  37.605  50.919  0.00  0.00    +0.000 A 
ATOM     10  C   UNL     1      17.176  37.721  50.354  0.00  0.00    +0.000 A 
ATOM     11  C   UNL     1      16.558  38.750  51.025  0.00  0.00    +0.000 A 
ATOM     12  N   UNL     1      15.318  39.350  50.969  0.00  0.00    +0.000 N 
ATOM     13  C   UNL     1      15.390  41.799  53.754  0.00  0.00    +0.000 C 
ATOM     14  N   UNL     1      14.053  41.944  53.234  0.00  0.00    +0.000 N 
ENDROOT
BRANCH   9  15
ATOM     15  C   UNL     1      19.540  36.651  50.567  0.00  0.00    +0.000 A 
ATOM     16  C   UNL     1      20.684  36.502  51.366  0.00  0.00    +0.000 A 
ATOM     17  C   UNL     1      21.690  35.596  51.013  0.00  0.00    +0.000 A 
ATOM     18  C   UNL     1      21.566  34.828  49.858  0.00  0.00    +0.000 A 
ATOM     19  C   UNL     1      20.435  34.962  49.055  0.00  0.00    +0.000 A 
ATOM     20  C   UNL     1      19.430  35.866  49.408  0.00  0.00    +0.000 A 
ENDBRANCH   9  15
BRANCH  12  21
ATOM     21  C   UNL     1      14.397  39.031  49.864  0.00  0.00    +0.000 C 
BRANCH  21  22
ATOM     22  C   UNL     1      14.759  39.785  48.597  0.00  0.00    +0.000 A 
ATOM     23  C   UNL     1      14.203  41.045  48.324  0.00  0.00    +0.000 A 
ATOM     24  C   UNL     1      14.533  41.735  47.154  0.00  0.00    +0.000 A 
ATOM     25  C   UNL     1      15.420  41.174  46.240  0.00  0.00    +0.000 A 
ATOM     26  C   UNL     1      15.980  39.923  46.495  0.00  0.00    +0.000 A 
ATOM     27  C   UNL     1      15.654  39.235  47.667  0.00  0.00    +0.000 A 
ENDBRANCH  21  22
ENDBRANCH  12  21
BRANCH  14  28
ATOM     28  C   UNL     1      13.041  42.734  53.906  0.00  0.00    +0.000 C 
BRANCH  28  29
ATOM     29  C   UNL     1      13.279  44.215  53.744  0.00  0.00    +0.000 A 
ATOM     30  C   UNL     1      12.210  45.121  53.775  0.00  0.00    +0.000 A 
ATOM     31  C   UNL     1      12.434  46.488  53.596  0.00  0.00    +0.000 A 
ATOM     32  C   UNL     1      13.728  46.961  53.385  0.00  0.00    +0.000 A 
ATOM     33  C   UNL     1      14.799  46.069  53.352  0.00  0.00    +0.000 A 
ATOM     34  C   UNL     1      14.576  44.703  53.528  0.00  0.00    +0.000 A 
ENDBRANCH  28  29
ENDBRANCH  14  28
TORSDOF 5
ENDMDL
MODEL 2
REMARK VINA RESULT:    -6.775      3.012      5.556
REMARK INTER + INTRA:          -9.963
REMARK INTER:                  -8.756
REMARK INTRA:                  -1.207
REMARK UNBOUND:                -1.207
REMARK  Name = 
REMARK  5 active torsions:
REMARK  status: ('A' for Active; 'I' for Inactive)
REMARK    1  A    between atoms: C_9  and  C_10
REMARK    2  A    between atoms: N_18  and  C_19
REMARK    3  A    between atoms: C_19  and  C_20
REMARK    4  A    between atoms: N_27  and  C_28
REMARK    5  A    between atoms: C_28  and  C_29
REMARK                            x       y       z     vdW  Elec       q    Type
REMARK                         _______ _______ _______ _____ _____    ______ ____
ROOT
ATOM      1  O   UNL     1      14.264  39.565  55.327  0.00  0.00    +0.000 OA
ATOM      2  C   UNL     1      15.325  39.117  54.929  0.00  0.00    +0.000 C 
ATOM      3  C   UNL     1      15.787  39.077  53.513  0.00  0.00    +0.000 A 
ATOM      4  C   UNL     1      16.938  38.398  53.549  0.00  0.00    +0.000 A 
ATOM      5  C   UNL     1      17.652  38.104  52.305  0.00  0.00    +0.000 A 
ATOM      6  O   UNL     1      18.718  37.505  52.255  0.00  0.00    +0.000 OA
ATOM      7  N   UNL     1      16.976  38.562  51.158  0.00  0.00    +0.000 N 
ATOM      8  N   UNL     1      17.445  38.345  49.906  0.00  0.00    +0.000 NA
ATOM      9  C   UNL     1      16.524  38.880  49.087  0.00  0.00    +0.000 A 
ATOM     10  C   UNL     1      15.462  39.461  49.837  0.00  0.00    +0.000 A 
ATOM     11  C   UNL     1      15.771  39.258  51.161  0.00  0.00    +0.000 A 
ATOM     12  N   UNL     1      15.171  39.561  52.365  0.00  0.00    +0.000 N 
ATOM     13  C   UNL     1      17.376  37.964  54.884  0.00  0.00    +0.000 C 
ATOM     14  N   UNL     1      16.315  38.516  55.690  0.00  0.00    +0.000 N 
ENDROOT
BRANCH   9  15
ATOM     15  C   UNL     1      16.676  38.815  47.627  0.00  0.00    +0.000 A 
ATOM     16  C   UNL     1      17.501  37.855  47.019  0.00  0.00    +0.000 A 
ATOM     17  C   UNL     1      17.642  37.811  45.628  0.00  0.00    +0.000 A 
ATOM     18  C   UNL     1      16.962  38.725  44.827  0.00  0.00    +0.000 A 
ATOM     19  C   UNL     1      16.137  39.682  45.413  0.00  0.00    +0.000 A 
ATOM     20  C   UNL     1      15.995  39.725  46.803  0.00  0.00    +0.000 A 
ENDBRANCH   9  15
BRANCH  12  21
ATOM     21  C   UNL     1      14.007  40.463  52.398  0.00  0.00    +0.000 C 
BRANCH  21  22
ATOM     22  C   UNL     1      14.405  41.880  52.770  0.00  0.00    +0.000 A 
ATOM     23  C   UNL     1      15.715  42.340  52.557  0.00  0.00    +0.000 A 
ATOM     24  C   UNL     1      16.081  43.643  52.906  0.00  0.00    +0.000 A 
ATOM     25  C   UNL     1      15.145  44.502  53.474  0.00  0.00    +0.000 A 
ATOM     26  C   UNL     1      13.842  44.061  53.693  0.00  0.00    +0.000 A 
ATOM     27  C   UNL     1      13.473  42.760  53.341  0.00  0.00    +0.000 A 
ENDBRANCH  21  22
ENDBRANCH  12  21
BRANCH  14  28
ATOM     28  C   UNL     1      16.181  38.222  57.103  0.00  0.00    +0.000 C 
BRANCH  28  29
ATOM     29  C   UNL     1      16.181  39.475  57.944  0.00  0.00    +0.000 A 
ATOM     30  C   UNL     1      15.099  39.775  58.784  0.00  0.00    +0.000 A 
ATOM     31  C   UNL     1      15.093  40.950  59.539  0.00  0.00    +0.000 A 
ATOM     32  C   UNL     1      16.167  41.835  59.460  0.00  0.00    +0.000 A 
ATOM     33  C   UNL     1      17.247  41.548  58.628  0.00  0.00    +0.000 A 
ATOM     34  C   UNL     1      17.253  40.376  57.872  0.00  0.00    +0.000 A 
ENDBRANCH  28  29
ENDBRANCH  14  28
TORSDOF 5
ENDMDL
MODEL 3
REMARK VINA RESULT:    -6.705      5.122     10.168
REMARK INTER + INTRA:          -9.873
REMARK INTER:                  -8.424
REMARK INTRA:                  -1.448
REMARK UNBOUND:                -1.207
REMARK  Name = 
REMARK  5 active torsions:
REMARK  status: ('A' for Active; 'I' for Inactive)
REMARK    1  A    between atoms: C_9  and  C_10
REMARK    2  A    between atoms: N_18  and  C_19
REMARK    3  A    between atoms: C_19  and  C_20
REMARK    4  A    between atoms: N_27  and  C_28
REMARK    5  A    between atoms: C_28  and  C_29
REMARK                            x       y       z     vdW  Elec       q    Type
REMARK                         _______ _______ _______ _____ _____    ______ ____
ROOT
ATOM      1  O   UNL     1      16.656  40.087  44.425  0.00  0.00    +0.000 OA
ATOM      2  C   UNL     1      15.668  40.266  45.115  0.00  0.00    +0.000 C 
ATOM      3  C   UNL     1      14.953  41.558  45.311  0.00  0.00    +0.000 A 
ATOM      4  C   UNL     1      14.019  41.295  46.231  0.00  0.00    +0.000 A 
ATOM      5  C   UNL     1      13.156  42.370  46.723  0.00  0.00    +0.000 A 
ATOM      6  O   UNL     1      12.268  42.209  47.549  0.00  0.00    +0.000 OA
ATOM      7  N   UNL     1      13.466  43.627  46.167  0.00  0.00    +0.000 N 
ATOM      8  N   UNL     1      12.818  44.759  46.530  0.00  0.00    +0.000 NA
ATOM      9  C   UNL     1      13.408  45.742  45.832  0.00  0.00    +0.000 A 
ATOM     10  C   UNL     1      14.438  45.219  44.999  0.00  0.00    +0.000 A 
ATOM     11  C   UNL     1      14.455  43.862  45.217  0.00  0.00    +0.000 A 
ATOM     12  N   UNL     1      15.198  42.803  44.743  0.00  0.00    +0.000 N 
ATOM     13  C   UNL     1      13.969  39.903  46.703  0.00  0.00    +0.000 C 
ATOM     14  N   UNL     1      15.015  39.325  45.896  0.00  0.00    +0.000 N 
ENDROOT
BRANCH   9  15
ATOM     15  C   UNL     1      12.985  47.142  45.983  0.00  0.00    +0.000 A 
ATOM     16  C   UNL     1      11.792  47.478  46.642  0.00  0.00    +0.000 A 
ATOM     17  C   UNL     1      11.399  48.815  46.771  0.00  0.00    +0.000 A 
ATOM     18  C   UNL     1      12.192  49.831  46.244  0.00  0.00    +0.000 A 
ATOM     19  C   UNL     1      13.380  49.515  45.590  0.00  0.00    +0.000 A 
ATOM     20  C   UNL     1      13.774  48.180  45.462  0.00  0.00    +0.000 A 
ENDBRANCH   9  15
BRANCH  12  21
ATOM     21  C   UNL     1      16.108  42.998  43.600  0.00  0.00    +0.000 C 
BRANCH  21  22
ATOM     22  C   UNL     1      15.371  42.911  42.275  0.00  0.00    +0.000 A 
ATOM     23  C   UNL     1      14.983  41.669  41.747  0.00  0.00    +0.000 A 
ATOM     24  C   UNL     1      14.310  41.590  40.525  0.00  0.00    +0.000 A 
ATOM     25  C   UNL     1      14.020  42.751  39.812  0.00  0.00    +0.000 A 
ATOM     26  C   UNL     1      14.401  43.991  40.322  0.00  0.00    +0.000 A 
ATOM     27  C   UNL     1      15.069  44.071  41.546  0.00  0.00    +0.000 A 
ENDBRANCH  21  22
ENDBRANCH  12  21
BRANCH  14  28
ATOM     28  C   UNL     1      15.493  37.972  46.100  0.00  0.00    +0.000 C 
BRANCH  28  29
ATOM     29  C   UNL     1      15.881  37.719  47.536  0.00  0.00    +0.000 A 
ATOM     30  C   UNL     1      16.969  38.390  48.113  0.00  0.00    +0.000 A 
ATOM     31  C   UNL     1      17.340  38.131  49.434  0.00  0.00    +0.000 A 
ATOM     32  C   UNL     1      16.629  37.199  50.190  0.00  0.00    +0.000 A 
ATOM     33  C   UNL     1      15.547  36.526  49.626  0.00  0.00    +0.000 A 
ATOM     34  C   UNL     1      15.176  36.783  48.305  0.00  0.00    +0.000 A 
ENDBRANCH  28  29
ENDBRANCH  14  28
TORSDOF 5
ENDMDL
