MODEL 1
REMARK VINA RESULT:    -6.824      0.000      0.000
REMARK INTER + INTRA:          -7.925
REMARK INTER:                  -7.589
REMARK INTRA:                  -0.336
REMARK UNBOUND:                -0.303
REMARK  Name = 
REMARK  3 active torsions:
REMARK  status: ('A' for Active; 'I' for Inactive)
REMARK    1  A    between atoms: C_1  and  C_2
REMARK    2  A    between atoms: C_3  and  C_4
REMARK    3  A    between atoms: C_4  and  C_5
REMARK                            x       y       z     vdW  Elec       q    Type
REMARK                         _______ _______ _______ _____ _____    ______ ____
ROOT
ATOM      1  C   UNL     1      17.830  36.651  55.566  0.00  0.00    +0.000 C 
ATOM      2  O   UNL     1      17.994  37.031  56.726  0.00  0.00    +0.000 OA
ATOM      3  N   UNL     1      17.430  37.546  54.576  0.00  0.00    +0.000 N 
ATOM      4  C   UNL     1      17.616  37.303  53.143  0.00  0.00    +0.000 C 
ATOM      5  C   UNL     1      18.217  38.509  52.420  0.00  0.00    +0.000 C 
ATOM      6  C   UNL     1      17.331  39.703  52.630  0.00  0.00    +0.000 A 
ATOM      7  C   UNL     1      17.152  40.660  51.622  0.00  0.00    +0.000 A 
ATOM      8  C   UNL     1      16.305  41.749  51.830  0.00  0.00    +0.000 A 
ATOM      9  C   UNL     1      15.636  41.893  53.046  0.00  0.00    +0.000 A 
ATOM     10  C   UNL     1      15.825  40.951  54.065  0.00  0.00    +0.000 A 
ATOM     11  C   UNL     1      16.685  39.852  53.869  0.00  0.00    +0.000 A 
ATOM     12  C   UNL     1      16.958  38.881  55.010  0.00  0.00    +0.000 C 
ATOM     13  C   UNL     1      15.681  38.793  55.880  0.00  0.00    +0.000 C 
ATOM     14  N   UNL     1      15.191  40.101  56.258  0.00  0.00    +0.000 N 
ATOM     15  C   UNL     1      15.101  41.132  55.355  0.00  0.00    +0.000 C 
ATOM     16  O   UNL     1      14.458  42.143  55.601  0.00  0.00    +0.000 OA
ATOM     17  H   UNL     1      14.605  40.201  57.077  0.00  0.00    +0.000 HD
ENDROOT
BRANCH   1  18
ATOM     18  C   UNL     1      18.037  35.192  55.161  0.00  0.00    +0.000 C 
BRANCH  18  21
ATOM     19  C   UNL     1      20.004  34.640  52.720  0.00  0.00    +0.000 C 
ATOM     20  C   UNL     1      20.375  34.595  54.170  0.00  0.00    +0.000 A 
ATOM     21  C   UNL     1      19.499  34.836  55.220  0.00  0.00    +0.000 A 
ATOM     22  S   UNL     1      20.264  34.701  56.739  0.00  0.00    +0.000 S 
ATOM     23  C   UNL     1      21.774  34.280  56.041  0.00  0.00    +0.000 A 
ATOM     24  C   UNL     1      22.968  33.986  56.729  0.00  0.00    +0.000 A 
ATOM     25  C   UNL     1      24.109  33.657  55.997  0.00  0.00    +0.000 A 
ATOM     26  C   UNL     1      24.067  33.617  54.611  0.00  0.00    +0.000 A 
ATOM     27  C   UNL     1      22.879  33.911  53.934  0.00  0.00    +0.000 A 
ATOM     28  C   UNL     1      21.701  34.254  54.647  0.00  0.00    +0.000 A 
ENDBRANCH  18  21
ENDBRANCH   1  18
TORSDOF 2
ENDMDL
MODEL 2
REMARK VINA RESULT:    -6.559      5.759     10.676
REMARK INTER + INTRA:          -7.629
REMARK INTER:                  -7.182
REMARK INTRA:                  -0.447
REMARK UNBOUND:                -0.303
REMARK  Name = 
REMARK  3 active torsions:
REMARK  status: ('A' for Active; 'I' for Inactive)
REMARK    1  A    between atoms: C_1  and  C_2
REMARK    2  A    between atoms: C_3  and  C_4
REMARK    3  A    between atoms: C_4  and  C_5
REMARK                            x       y       z     vdW  Elec       q    Type
REMARK                         _______ _______ _______ _____ _____    ______ ____
ROOT
ATOM      1  C   UNL     1      13.515  40.064  48.920  0.00  0.00    +0.000 C 
ATOM      2  O   UNL     1      12.795  40.419  49.854  0.00  0.00    +0.000 OA
ATOM      3  N   UNL     1      14.774  39.518  49.162  0.00  0.00    +0.000 N 
ATOM      4  C   UNL     1      15.501  38.700  48.187  0.00  0.00    +0.000 C 
ATOM      5  C   UNL     1      16.063  37.420  48.805  0.00  0.00    +0.000 C 
ATOM      6  C   UNL     1      16.962  37.777  49.952  0.00  0.00    +0.000 A 
ATOM      7  C   UNL     1      18.116  37.031  50.230  0.00  0.00    +0.000 A 
ATOM      8  C   UNL     1      18.950  37.395  51.287  0.00  0.00    +0.000 A 
ATOM      9  C   UNL     1      18.637  38.503  52.076  0.00  0.00    +0.000 A 
ATOM     10  C   UNL     1      17.477  39.242  51.816  0.00  0.00    +0.000 A 
ATOM     11  C   UNL     1      16.622  38.877  50.757  0.00  0.00    +0.000 A 
ATOM     12  C   UNL     1      15.315  39.628  50.536  0.00  0.00    +0.000 C 
ATOM     13  C   UNL     1      15.531  41.100  50.962  0.00  0.00    +0.000 C 
ATOM     14  N   UNL     1      16.110  41.203  52.284  0.00  0.00    +0.000 N 
ATOM     15  C   UNL     1      17.165  40.418  52.677  0.00  0.00    +0.000 C 
ATOM     16  O   UNL     1      17.813  40.674  53.683  0.00  0.00    +0.000 OA
ATOM     17  H   UNL     1      15.987  42.052  52.822  0.00  0.00    +0.000 HD
ENDROOT
BRANCH   1  18
ATOM     18  C   UNL     1      13.076  40.218  47.464  0.00  0.00    +0.000 C 
BRANCH  18  21
ATOM     19  C   UNL     1      15.273  41.908  45.899  0.00  0.00    +0.000 C 
ATOM     20  C   UNL     1      13.963  42.430  46.403  0.00  0.00    +0.000 A 
ATOM     21  C   UNL     1      13.020  41.675  47.087  0.00  0.00    +0.000 A 
ATOM     22  S   UNL     1      11.645  42.593  47.508  0.00  0.00    +0.000 S 
ATOM     23  C   UNL     1      12.285  44.030  46.825  0.00  0.00    +0.000 A 
ATOM     24  C   UNL     1      11.673  45.299  46.803  0.00  0.00    +0.000 A 
ATOM     25  C   UNL     1      12.344  46.366  46.205  0.00  0.00    +0.000 A 
ATOM     26  C   UNL     1      13.597  46.180  45.642  0.00  0.00    +0.000 A 
ATOM     27  C   UNL     1      14.200  44.919  45.666  0.00  0.00    +0.000 A 
ATOM     28  C   UNL     1      13.545  43.810  46.262  0.00  0.00    +0.000 A 
ENDBRANCH  18  21
ENDBRANCH   1  18
TORSDOF 2
ENDMDL
MODEL 3
REMARK VINA RESULT:    -6.505      4.050      5.411
REMARK INTER + INTRA:          -7.568
REMARK INTER:                  -7.265
REMARK INTRA:                  -0.303
REMARK UNBOUND:                -0.303
REMARK  Name = 
REMARK  3 active torsions:
REMARK  status: ('A' for Active; 'I' for Inactive)
REMARK    1  A    between atoms: C_1  and  C_2
REMARK    2  A    between atoms: C_3  and  C_4
REMARK    3  A    between atoms: C_4  and  C_5
REMARK                            x       y       z     vdW  Elec       q    Type
REMARK                         _______ _______ _______ _____ _____    ______ ____
ROOT
ATOM      1  C   UNL     1      15.589  39.188  50.841  0.00  0.00    +0.000 C 
ATOM      2  O   UNL     1      16.386  39.838  50.163  0.00  0.00    +0.000 OA
ATOM      3  N   UNL     1      14.669  39.831  51.667  0.00  0.00    +0.000 N 
ATOM      4  C   UNL     1      13.445  39.195  52.163  0.00  0.00    +0.000 C 
ATOM      5  C   UNL     1      12.213  40.083  51.982  0.00  0.00    +0.000 C 
ATOM      6  C   UNL     1      12.437  41.389  52.685  0.00  0.00    +0.000 A 
ATOM      7  C   UNL     1      11.386  42.060  53.324  0.00  0.00    +0.000 A 
ATOM      8  C   UNL     1      11.621  43.261  53.993  0.00  0.00    +0.000 A 
ATOM      9  C   UNL     1      12.907  43.804  54.025  0.00  0.00    +0.000 A 
ATOM     10  C   UNL     1      13.959  43.150  53.372  0.00  0.00    +0.000 A 
ATOM     11  C   UNL     1      13.730  41.941  52.686  0.00  0.00    +0.000 A 
ATOM     12  C   UNL     1      14.857  41.281  51.902  0.00  0.00    +0.000 C 
ATOM     13  C   UNL     1      16.188  41.585  52.629  0.00  0.00    +0.000 C 
ATOM     14  N   UNL     1      16.345  42.997  52.906  0.00  0.00    +0.000 N 
ATOM     15  C   UNL     1      15.320  43.754  53.418  0.00  0.00    +0.000 C 
ATOM     16  O   UNL     1      15.520  44.866  53.888  0.00  0.00    +0.000 OA
ATOM     17  H   UNL     1      17.270  43.383  53.048  0.00  0.00    +0.000 HD
ENDROOT
BRANCH   1  18
ATOM     18  C   UNL     1      15.581  37.659  50.826  0.00  0.00    +0.000 C 
BRANCH  18  21
ATOM     19  C   UNL     1      18.037  37.903  52.836  0.00  0.00    +0.000 C 
ATOM     20  C   UNL     1      18.062  37.224  51.502  0.00  0.00    +0.000 A 
ATOM     21  C   UNL     1      16.979  37.132  50.638  0.00  0.00    +0.000 A 
ATOM     22  S   UNL     1      17.367  36.287  49.208  0.00  0.00    +0.000 S 
ATOM     23  C   UNL     1      18.999  36.053  49.683  0.00  0.00    +0.000 A 
ATOM     24  C   UNL     1      20.006  35.398  48.946  0.00  0.00    +0.000 A 
ATOM     25  C   UNL     1      21.288  35.303  49.487  0.00  0.00    +0.000 A 
ATOM     26  C   UNL     1      21.569  35.849  50.731  0.00  0.00    +0.000 A 
ATOM     27  C   UNL     1      20.565  36.498  51.456  0.00  0.00    +0.000 A 
ATOM     28  C   UNL     1      19.248  36.609  50.940  0.00  0.00    +0.000 A 
ENDBRANCH  18  21
ENDBRANCH   1  18
TORSDOF 2
ENDMDL
