MODEL 1
REMARK VINA RESULT:    -7.314      0.000      0.000
REMARK INTER + INTRA:          -9.445
REMARK INTER:                  -8.979
REMARK INTRA:                  -0.466
REMARK UNBOUND:                -0.634
REMARK  Name = 
REMARK  9 active torsions:
REMARK  status: ('A' for Active; 'I' for Inactive)
REMARK    1  A    between atoms: C_1  and  C_2
REMARK    2  A    between atoms: C_4  and  C_5
REMARK    3  A    between atoms: C_8  and  C_9
REMARK    4  A    between atoms: C_12  and  C_13
REMARK    5  A    between atoms: C_14  and  C_15
REMARK    6  A    between atoms: C_17  and  C_18
REMARK    7  A    between atoms: C_22  and  C_23
REMARK    8  A    between atoms: C_25  and  C_26
REMARK    9  A    between atoms: C_26  and  O_28
REMARK                            x       y       z     vdW  Elec       q    Type
REMARK                         _______ _______ _______ _____ _____    ______ ____
ROOT
ATOM      1  C   UNL     1      13.747  46.598  45.460  0.00  0.00    +0.000 A 
ATOM      2  C   UNL     1      12.714  46.154  46.265  0.00  0.00    +0.000 A 
ATOM      3  C   UNL     1      12.886  44.760  46.468  0.00  0.00    +0.000 A 
ATOM      4  C   UNL     1      14.011  44.376  45.770  0.00  0.00    +0.000 A 
ATOM      5  N   UNL     1      14.511  45.496  45.154  0.00  0.00    +0.000 N 
ATOM      6  H   UNL     1      15.328  45.499  44.558  0.00  0.00    +0.000 HD
ENDROOT
BRANCH   4   7
ATOM      7  C   UNL     1      14.641  43.102  45.625  0.00  0.00    +0.000 A 
ATOM      8  C   UNL     1      14.882  42.133  46.580  0.00  0.00    +0.000 A 
ATOM      9  C   UNL     1      15.539  41.044  45.938  0.00  0.00    +0.000 A 
ATOM     10  C   UNL     1      16.038  39.785  46.351  0.00  0.00    +0.000 A 
ATOM     11  C   UNL     1      15.939  39.311  47.777  0.00  0.00    +0.000 C 
ATOM     12  C   UNL     1      16.649  38.968  45.362  0.00  0.00    +0.000 A 
ATOM     13  C   UNL     1      17.206  37.612  45.716  0.00  0.00    +0.000 C 
ATOM     14  C   UNL     1      16.741  39.405  44.028  0.00  0.00    +0.000 A 
ATOM     15  C   UNL     1      16.248  40.651  43.607  0.00  0.00    +0.000 A 
ATOM     16  C   UNL     1      16.366  41.076  42.178  0.00  0.00    +0.000 C 
ATOM     17  C   UNL     1      15.659  41.425  44.608  0.00  0.00    +0.000 A 
ATOM     18  O   UNL     1      15.119  42.661  44.422  0.00  0.00    +0.000 OA
ENDBRANCH   4   7
BRANCH   1  22
ATOM     19  C   UNL     1      17.082  50.222  44.923  0.00  0.00    +0.000 C 
ATOM     20  C   UNL     1      15.684  49.735  44.662  0.00  0.00    +0.000 A 
ATOM     21  C   UNL     1      15.328  48.451  45.112  0.00  0.00    +0.000 A 
ATOM     22  C   UNL     1      14.034  47.931  44.935  0.00  0.00    +0.000 A 
ATOM     23  C   UNL     1      13.067  48.702  44.265  0.00  0.00    +0.000 A 
ATOM     24  C   UNL     1      11.666  48.208  44.024  0.00  0.00    +0.000 C 
ATOM     25  C   UNL     1      13.419  49.985  43.812  0.00  0.00    +0.000 A 
ATOM     26  C   UNL     1      14.716  50.497  43.986  0.00  0.00    +0.000 A 
BRANCH  26  27
ATOM     27  C   UNL     1      14.953  51.857  43.438  0.00  0.00    +0.000 C 
ATOM     28  O   UNL     1      15.547  52.109  42.404  0.00  0.00    +0.000 OA
BRANCH  27  29
ATOM     29  O   UNL     1      14.515  52.839  44.242  0.00  0.00    +0.000 OA
ATOM     30  H   UNL     1      14.768  53.659  43.769  0.00  0.00    +0.000 HD
ENDBRANCH  27  29
ENDBRANCH  26  27
ENDBRANCH   1  22
TORSDOF 4
ENDMDL
MODEL 2
REMARK VINA RESULT:    -7.165      0.642      2.057
REMARK INTER + INTRA:          -9.265
REMARK INTER:                  -8.799
REMARK INTRA:                  -0.466
REMARK UNBOUND:                -0.634
REMARK  Name = 
REMARK  9 active torsions:
REMARK  status: ('A' for Active; 'I' for Inactive)
REMARK    1  A    between atoms: C_1  and  C_2
REMARK    2  A    between atoms: C_4  and  C_5
REMARK    3  A    between atoms: C_8  and  C_9
REMARK    4  A    between atoms: C_12  and  C_13
REMARK    5  A    between atoms: C_14  and  C_15
REMARK    6  A    between atoms: C_17  and  C_18
REMARK    7  A    between atoms: C_22  and  C_23
REMARK    8  A    between atoms: C_25  and  C_26
REMARK    9  A    between atoms: C_26  and  O_28
REMARK                            x       y       z     vdW  Elec       q    Type
REMARK                         _______ _______ _______ _____ _____    ______ ____
ROOT
ATOM      1  C   UNL     1      13.929  46.748  45.374  0.00  0.00    +0.000 A 
ATOM      2  C   UNL     1      12.924  46.287  46.205  0.00  0.00    +0.000 A 
ATOM      3  C   UNL     1      13.076  44.883  46.340  0.00  0.00    +0.000 A 
ATOM      4  C   UNL     1      14.163  44.510  45.576  0.00  0.00    +0.000 A 
ATOM      5  N   UNL     1      14.658  45.646  44.987  0.00  0.00    +0.000 N 
ATOM      6  H   UNL     1      15.448  45.661  44.357  0.00  0.00    +0.000 HD
ENDROOT
BRANCH   4   7
ATOM      7  C   UNL     1      14.760  43.233  45.349  0.00  0.00    +0.000 A 
ATOM      8  C   UNL     1      15.329  42.727  44.195  0.00  0.00    +0.000 A 
ATOM      9  C   UNL     1      15.782  41.406  44.477  0.00  0.00    +0.000 A 
ATOM     10  C   UNL     1      16.432  40.387  43.739  0.00  0.00    +0.000 A 
ATOM     11  C   UNL     1      16.816  40.563  42.293  0.00  0.00    +0.000 C 
ATOM     12  C   UNL     1      16.714  39.170  44.416  0.00  0.00    +0.000 A 
ATOM     13  C   UNL     1      17.404  38.033  43.705  0.00  0.00    +0.000 C 
ATOM     14  C   UNL     1      16.360  39.002  45.767  0.00  0.00    +0.000 A 
ATOM     15  C   UNL     1      15.717  40.007  46.508  0.00  0.00    +0.000 A 
ATOM     16  C   UNL     1      15.359  39.787  47.944  0.00  0.00    +0.000 C 
ATOM     17  C   UNL     1      15.454  41.185  45.808  0.00  0.00    +0.000 A 
ATOM     18  O   UNL     1      14.840  42.283  46.330  0.00  0.00    +0.000 OA
ENDBRANCH   4   7
BRANCH   1  22
ATOM     19  C   UNL     1      17.276  50.377  44.954  0.00  0.00    +0.000 C 
ATOM     20  C   UNL     1      15.876  49.904  44.680  0.00  0.00    +0.000 A 
ATOM     21  C   UNL     1      15.516  48.607  45.087  0.00  0.00    +0.000 A 
ATOM     22  C   UNL     1      14.220  48.097  44.894  0.00  0.00    +0.000 A 
ATOM     23  C   UNL     1      13.254  48.894  44.255  0.00  0.00    +0.000 A 
ATOM     24  C   UNL     1      11.851  48.413  44.000  0.00  0.00    +0.000 C 
ATOM     25  C   UNL     1      13.610  50.191  43.845  0.00  0.00    +0.000 A 
ATOM     26  C   UNL     1      14.909  50.693  44.033  0.00  0.00    +0.000 A 
BRANCH  26  27
ATOM     27  C   UNL     1      15.149  52.070  43.532  0.00  0.00    +0.000 C 
ATOM     28  O   UNL     1      14.822  53.096  44.101  0.00  0.00    +0.000 OA
BRANCH  27  29
ATOM     29  O   UNL     1      15.708  52.103  42.312  0.00  0.00    +0.000 OA
ATOM     30  H   UNL     1      15.234  52.829  41.856  0.00  0.00    +0.000 HD
ENDBRANCH  27  29
ENDBRANCH  26  27
ENDBRANCH   1  22
TORSDOF 4
ENDMDL
MODEL 3
REMARK VINA RESULT:    -6.783      4.626     11.030
REMARK INTER + INTRA:          -8.805
REMARK INTER:                  -8.171
REMARK INTRA:                  -0.634
REMARK UNBOUND:                -0.634
REMARK  Name = 
REMARK  9 active torsions:
REMARK  status: ('A' for Active; 'I' for Inactive)
REMARK    1  A    between atoms: C_1  and  C_2
REMARK    2  A    between atoms: C_4  and  C_5
REMARK    3  A    between atoms: C_8  and  C_9
REMARK    4  A    between atoms: C_12  and  C_13
REMARK    5  A    between atoms: C_14  and  C_15
REMARK    6  A    between atoms: C_17  and  C_18
REMARK    7  A    between atoms: C_22  and  C_23
REMARK    8  A    between atoms: C_25  and  C_26
REMARK    9  A    between atoms: C_26  and  O_28
REMARK                            x       y       z     vdW  Elec       q    Type
REMARK                         _______ _______ _______ _____ _____    ______ ____
ROOT
ATOM      1  C   UNL     1      16.468  38.128  49.072  0.00  0.00    +0.000 A 
ATOM      2  C   UNL     1      15.126  37.838  49.238  0.00  0.00    +0.000 A 
ATOM      3  C   UNL     1      14.378  38.771  48.475  0.00  0.00    +0.000 A 
ATOM      4  C   UNL     1      15.276  39.624  47.869  0.00  0.00    +0.000 A 
ATOM      5  N   UNL     1      16.535  39.232  48.252  0.00  0.00    +0.000 N 
ATOM      6  H   UNL     1      17.386  39.697  47.966  0.00  0.00    +0.000 HD
ENDROOT
BRANCH   4   7
ATOM      7  C   UNL     1      15.077  40.738  46.997  0.00  0.00    +0.000 A 
ATOM      8  C   UNL     1      14.268  41.846  47.166  0.00  0.00    +0.000 A 
ATOM      9  C   UNL     1      14.415  42.671  46.014  0.00  0.00    +0.000 A 
ATOM     10  C   UNL     1      13.874  43.908  45.587  0.00  0.00    +0.000 A 
ATOM     11  C   UNL     1      12.888  44.683  46.420  0.00  0.00    +0.000 C 
ATOM     12  C   UNL     1      14.295  44.403  44.323  0.00  0.00    +0.000 A 
ATOM     13  C   UNL     1      13.768  45.712  43.792  0.00  0.00    +0.000 C 
ATOM     14  C   UNL     1      15.218  43.683  43.542  0.00  0.00    +0.000 A 
ATOM     15  C   UNL     1      15.761  42.457  43.957  0.00  0.00    +0.000 A 
ATOM     16  C   UNL     1      16.742  41.725  43.096  0.00  0.00    +0.000 C 
ATOM     17  C   UNL     1      15.321  42.003  45.202  0.00  0.00    +0.000 A 
ATOM     18  O   UNL     1      15.718  40.842  45.793  0.00  0.00    +0.000 OA
ENDBRANCH   4   7
BRANCH   1  22
ATOM     19  C   UNL     1      20.028  34.724  48.541  0.00  0.00    +0.000 C 
ATOM     20  C   UNL     1      19.426  35.810  49.390  0.00  0.00    +0.000 A 
ATOM     21  C   UNL     1      18.295  36.489  48.903  0.00  0.00    +0.000 A 
ATOM     22  C   UNL     1      17.654  37.496  49.645  0.00  0.00    +0.000 A 
ATOM     23  C   UNL     1      18.168  37.858  50.903  0.00  0.00    +0.000 A 
ATOM     24  C   UNL     1      17.546  38.937  51.749  0.00  0.00    +0.000 C 
ATOM     25  C   UNL     1      19.299  37.184  51.392  0.00  0.00    +0.000 A 
ATOM     26  C   UNL     1      19.941  36.182  50.643  0.00  0.00    +0.000 A 
BRANCH  26  27
ATOM     27  C   UNL     1      21.137  35.569  51.274  0.00  0.00    +0.000 C 
ATOM     28  O   UNL     1      21.146  34.959  52.328  0.00  0.00    +0.000 OA
BRANCH  27  29
ATOM     29  O   UNL     1      22.276  35.816  50.607  0.00  0.00    +0.000 OA
ATOM     30  H   UNL     1      22.505  34.952  50.206  0.00  0.00    +0.000 HD
ENDBRANCH  27  29
ENDBRANCH  26  27
ENDBRANCH   1  22
TORSDOF 4
ENDMDL
