MODEL 1
REMARK VINA RESULT:    -7.105      0.000      0.000
REMARK INTER + INTRA:          -8.803
REMARK INTER:                  -7.895
REMARK INTRA:                  -0.909
REMARK UNBOUND:                -0.452
REMARK  Name = 
REMARK  4 active torsions:
REMARK  status: ('A' for Active; 'I' for Inactive)
REMARK    1  A    between atoms: C_1  and  C_2
REMARK    2  A    between atoms: C_5  and  N_6
REMARK    3  A    between atoms: N_6  and  C_7
REMARK    4  A    between atoms: C_14  and  C_15
REMARK                            x       y       z     vdW  Elec       q    Type
REMARK                         _______ _______ _______ _____ _____    ______ ____
ROOT
ATOM      1  C   UNL     1      15.228  43.862  43.481  0.00  0.00    +0.000 A 
ATOM      2  C   UNL     1      14.948  44.175  42.134  0.00  0.00    +0.000 A 
ATOM      3  C   UNL     1      14.942  43.193  41.140  0.00  0.00    +0.000 A 
ATOM      4  C   UNL     1      15.221  41.900  41.526  0.00  0.00    +0.000 A 
ATOM      5  C   UNL     1      15.513  41.551  42.849  0.00  0.00    +0.000 A 
ATOM      6  C   UNL     1      15.503  42.526  43.833  0.00  0.00    +0.000 A 
ATOM      7  C   UNL     1      15.738  40.102  42.838  0.00  0.00    +0.000 C 
ATOM      8  C   UNL     1      16.074  39.213  43.788  0.00  0.00    +0.000 C 
ATOM      9  C   UNL     1      15.530  39.633  41.416  0.00  0.00    +0.000 C 
ATOM     10  O   UNL     1      15.606  38.497  40.987  0.00  0.00    +0.000 OA
ATOM     11  N   UNL     1      15.237  40.780  40.700  0.00  0.00    +0.000 N 
ATOM     12  H   UNL     1      15.046  40.770  39.711  0.00  0.00    +0.000 HD
ENDROOT
BRANCH   8  13
ATOM     13  C   UNL     1      16.383  39.466  45.240  0.00  0.00    +0.000 C 
ATOM     14  C   UNL     1      15.089  39.666  46.040  0.00  0.00    +0.000 C 
ATOM     15  C   UNL     1      15.374  39.870  47.528  0.00  0.00    +0.000 C 
ATOM     16  C   UNL     1      16.203  38.727  48.104  0.00  0.00    +0.000 C 
ATOM     17  C   UNL     1      17.490  38.512  47.313  0.00  0.00    +0.000 C 
ATOM     18  C   UNL     1      17.208  38.304  45.826  0.00  0.00    +0.000 C 
ENDBRANCH   8  13
BRANCH   1  19
ATOM     19  N   UNL     1      15.190  44.831  44.502  0.00  0.00    +0.000 N 
ATOM     20  H   UNL     1      16.098  45.198  44.763  0.00  0.00    +0.000 HD
BRANCH  19  25
ATOM     21  C   UNL     1      10.813  47.184  47.367  0.00  0.00    +0.000 C 
ATOM     22  C   UNL     1      11.974  46.559  46.652  0.00  0.00    +0.000 A 
ATOM     23  C   UNL     1      12.121  45.170  46.614  0.00  0.00    +0.000 A 
ATOM     24  C   UNL     1      13.186  44.587  45.918  0.00  0.00    +0.000 A 
ATOM     25  C   UNL     1      14.126  45.374  45.244  0.00  0.00    +0.000 A 
ATOM     26  C   UNL     1      13.958  46.765  45.271  0.00  0.00    +0.000 A 
ATOM     27  C   UNL     1      12.895  47.353  45.963  0.00  0.00    +0.000 A 
ENDBRANCH  19  25
ENDBRANCH   1  19
TORSDOF 3
ENDMDL
MODEL 2
REMARK VINA RESULT:    -6.914      4.109      9.140
REMARK INTER + INTRA:          -8.579
REMARK INTER:                  -8.127
REMARK INTRA:                  -0.452
REMARK UNBOUND:                -0.452
REMARK  Name = 
REMARK  4 active torsions:
REMARK  status: ('A' for Active; 'I' for Inactive)
REMARK    1  A    between atoms: C_1  and  C_2
REMARK    2  A    between atoms: C_5  and  N_6
REMARK    3  A    between atoms: N_6  and  C_7
REMARK    4  A    between atoms: C_14  and  C_15
REMARK                            x       y       z     vdW  Elec       q    Type
REMARK                         _______ _______ _______ _____ _____    ______ ____
ROOT
ATOM      1  C   UNL     1      14.108  45.673  45.193  0.00  0.00    +0.000 A 
ATOM      2  C   UNL     1      13.123  45.066  46.001  0.00  0.00    +0.000 A 
ATOM      3  C   UNL     1      12.147  45.820  46.658  0.00  0.00    +0.000 A 
ATOM      4  C   UNL     1      12.182  47.187  46.488  0.00  0.00    +0.000 A 
ATOM      5  C   UNL     1      13.148  47.828  45.704  0.00  0.00    +0.000 A 
ATOM      6  C   UNL     1      14.104  47.075  45.042  0.00  0.00    +0.000 A 
ATOM      7  C   UNL     1      12.834  49.259  45.775  0.00  0.00    +0.000 C 
ATOM      8  C   UNL     1      13.410  50.357  45.259  0.00  0.00    +0.000 C 
ATOM      9  C   UNL     1      11.600  49.397  46.638  0.00  0.00    +0.000 C 
ATOM     10  O   UNL     1      11.007  50.418  46.931  0.00  0.00    +0.000 OA
ATOM     11  N   UNL     1      11.290  48.108  47.030  0.00  0.00    +0.000 N 
ATOM     12  H   UNL     1      10.501  47.892  47.617  0.00  0.00    +0.000 HD
ENDROOT
BRANCH   8  13
ATOM     13  C   UNL     1      14.664  50.455  44.431  0.00  0.00    +0.000 C 
ATOM     14  C   UNL     1      14.744  51.821  43.734  0.00  0.00    +0.000 C 
ATOM     15  C   UNL     1      16.035  51.967  42.929  0.00  0.00    +0.000 C 
ATOM     16  C   UNL     1      17.267  51.719  43.793  0.00  0.00    +0.000 C 
ATOM     17  C   UNL     1      17.198  50.368  44.498  0.00  0.00    +0.000 C 
ATOM     18  C   UNL     1      15.909  50.220  45.306  0.00  0.00    +0.000 C 
ENDBRANCH   8  13
BRANCH   1  19
ATOM     19  N   UNL     1      15.067  44.924  44.485  0.00  0.00    +0.000 N 
ATOM     20  H   UNL     1      15.636  45.470  43.849  0.00  0.00    +0.000 HD
BRANCH  19  25
ATOM     21  C   UNL     1      16.499  39.372  44.368  0.00  0.00    +0.000 C 
ATOM     22  C   UNL     1      16.087  40.813  44.398  0.00  0.00    +0.000 A 
ATOM     23  C   UNL     1      15.538  41.371  45.555  0.00  0.00    +0.000 A 
ATOM     24  C   UNL     1      15.185  42.725  45.593  0.00  0.00    +0.000 A 
ATOM     25  C   UNL     1      15.372  43.552  44.481  0.00  0.00    +0.000 A 
ATOM     26  C   UNL     1      15.941  42.987  43.331  0.00  0.00    +0.000 A 
ATOM     27  C   UNL     1      16.298  41.636  43.288  0.00  0.00    +0.000 A 
ENDBRANCH  19  25
ENDBRANCH   1  19
TORSDOF 3
ENDMDL
MODEL 3
REMARK VINA RESULT:    -6.860      1.810      4.897
REMARK INTER + INTRA:          -8.515
REMARK INTER:                  -7.638
REMARK INTRA:                  -0.877
REMARK UNBOUND:                -0.452
REMARK  Name = 
REMARK  4 active torsions:
REMARK  status: ('A' for Active; 'I' for Inactive)
REMARK    1  A    between atoms: C_1  and  C_2
REMARK    2  A    between atoms: C_5  and  N_6
REMARK    3  A    between atoms: N_6  and  C_7
REMARK    4  A    between atoms: C_14  and  C_15
REMARK                            x       y       z     vdW  Elec       q    Type
REMARK                         _______ _______ _______ _____ _____    ______ ____
ROOT
ATOM      1  C   UNL     1      13.887  42.491  46.010  0.00  0.00    +0.000 A 
ATOM      2  C   UNL     1      14.534  41.702  46.984  0.00  0.00    +0.000 A 
ATOM      3  C   UNL     1      15.461  40.717  46.633  0.00  0.00    +0.000 A 
ATOM      4  C   UNL     1      15.722  40.544  45.290  0.00  0.00    +0.000 A 
ATOM      5  C   UNL     1      15.094  41.299  44.294  0.00  0.00    +0.000 A 
ATOM      6  C   UNL     1      14.187  42.284  44.648  0.00  0.00    +0.000 A 
ATOM      7  C   UNL     1      15.647  40.819  43.023  0.00  0.00    +0.000 C 
ATOM      8  C   UNL     1      15.417  41.136  41.738  0.00  0.00    +0.000 C 
ATOM      9  C   UNL     1      16.660  39.747  43.358  0.00  0.00    +0.000 C 
ATOM     10  O   UNL     1      17.352  39.110  42.588  0.00  0.00    +0.000 OA
ATOM     11  N   UNL     1      16.626  39.643  44.737  0.00  0.00    +0.000 N 
ATOM     12  H   UNL     1      17.209  39.000  45.248  0.00  0.00    +0.000 HD
ENDROOT
BRANCH   8  13
ATOM     13  C   UNL     1      14.421  42.119  41.179  0.00  0.00    +0.000 C 
ATOM     14  C   UNL     1      14.995  43.542  41.207  0.00  0.00    +0.000 C 
ATOM     15  C   UNL     1      14.025  44.552  40.595  0.00  0.00    +0.000 C 
ATOM     16  C   UNL     1      13.616  44.153  39.180  0.00  0.00    +0.000 C 
ATOM     17  C   UNL     1      13.051  42.737  39.136  0.00  0.00    +0.000 C 
ATOM     18  C   UNL     1      14.021  41.724  39.746  0.00  0.00    +0.000 C 
ENDBRANCH   8  13
BRANCH   1  19
ATOM     19  N   UNL     1      12.988  43.519  46.350  0.00  0.00    +0.000 N 
ATOM     20  H   UNL     1      12.135  43.198  46.793  0.00  0.00    +0.000 HD
BRANCH  19  25
ATOM     21  C   UNL     1      13.143  49.229  45.830  0.00  0.00    +0.000 C 
ATOM     22  C   UNL     1      13.096  47.734  45.928  0.00  0.00    +0.000 A 
ATOM     23  C   UNL     1      14.144  46.956  45.431  0.00  0.00    +0.000 A 
ATOM     24  C   UNL     1      14.115  45.562  45.553  0.00  0.00    +0.000 A 
ATOM     25  C   UNL     1      13.042  44.913  46.172  0.00  0.00    +0.000 A 
ATOM     26  C   UNL     1      12.004  45.703  46.685  0.00  0.00    +0.000 A 
ATOM     27  C   UNL     1      12.029  47.097  46.568  0.00  0.00    +0.000 A 
ENDBRANCH  19  25
ENDBRANCH   1  19
TORSDOF 3
ENDMDL
