MODEL 1
REMARK VINA RESULT:    -6.422      0.000      0.000
REMARK INTER + INTRA:          -7.338
REMARK INTER:                  -6.775
REMARK INTRA:                  -0.563
REMARK UNBOUND:                -0.541
REMARK  Name = 
REMARK  1 active torsions:
REMARK  status: ('A' for Active; 'I' for Inactive)
REMARK    1  A    between atoms: C_9  and  C_10
REMARK                            x       y       z     vdW  Elec       q    Type
REMARK                         _______ _______ _______ _____ _____    ______ ____
ROOT
ATOM      1  C   UNL     1      15.519  41.224  54.892  0.00  0.00    +0.000 C 
ATOM      2  C   UNL     1      16.525  40.324  54.991  0.00  0.00    +0.000 C 
ATOM      3  C   UNL     1      16.878  39.830  56.351  0.00  0.00    +0.000 A 
ATOM      4  C   UNL     1      17.021  40.657  57.472  0.00  0.00    +0.000 A 
ATOM      5  C   UNL     1      17.354  40.108  58.712  0.00  0.00    +0.000 A 
ATOM      6  C   UNL     1      17.553  38.734  58.839  0.00  0.00    +0.000 A 
ATOM      7  C   UNL     1      17.435  37.902  57.725  0.00  0.00    +0.000 A 
ATOM      8  C   UNL     1      17.118  38.445  56.472  0.00  0.00    +0.000 A 
ATOM      9  C   UNL     1      16.986  37.551  55.252  0.00  0.00    +0.000 C 
ATOM     10  C   UNL     1      17.355  38.249  53.957  0.00  0.00    +0.000 A 
ATOM     11  C   UNL     1      17.909  37.527  52.892  0.00  0.00    +0.000 A 
ATOM     12  C   UNL     1      18.291  38.184  51.723  0.00  0.00    +0.000 A 
ATOM     13  C   UNL     1      18.135  39.565  51.616  0.00  0.00    +0.000 A 
ATOM     14  C   UNL     1      17.566  40.289  52.666  0.00  0.00    +0.000 A 
ATOM     15  C   UNL     1      17.127  39.634  53.821  0.00  0.00    +0.000 A 
ENDROOT
BRANCH   1  24
ATOM     16  O   UNL     1      16.235  43.609  53.234  0.00  0.00    +0.000 OA
ATOM     17  C   UNL     1      15.102  43.182  53.463  0.00  0.00    +0.000 C 
ATOM     18  N   UNL     1      14.059  44.064  53.561  0.00  0.00    +0.000 N 
ATOM     19  C   UNL     1      12.755  43.746  53.752  0.00  0.00    +0.000 C 
ATOM     20  S   UNL     1      11.583  44.921  53.831  0.00  0.00    +0.000 S 
ATOM     21  N   UNL     1      12.443  42.430  53.869  0.00  0.00    +0.000 N 
ATOM     22  C   UNL     1      13.321  41.381  53.814  0.00  0.00    +0.000 C 
ATOM     23  O   UNL     1      12.894  40.231  53.906  0.00  0.00    +0.000 OA
ATOM     24  C   UNL     1      14.793  41.712  53.656  0.00  0.00    +0.000 C 
ATOM     25  H   UNL     1      14.299  45.041  53.444  0.00  0.00    +0.000 HD
ATOM     26  H   UNL     1      11.469  42.180  53.992  0.00  0.00    +0.000 HD
ENDBRANCH   1  24
TORSDOF 1
ENDMDL
MODEL 2
REMARK VINA RESULT:    -6.363      9.936     12.458
REMARK INTER + INTRA:          -7.276
REMARK INTER:                  -6.722
REMARK INTRA:                  -0.554
REMARK UNBOUND:                -0.541
REMARK  Name = 
REMARK  1 active torsions:
REMARK  status: ('A' for Active; 'I' for Inactive)
REMARK    1  A    between atoms: C_9  and  C_10
REMARK                            x       y       z     vdW  Elec       q    Type
REMARK                         _______ _______ _______ _____ _____    ______ ____
ROOT
ATOM      1  C   UNL     1      13.899  44.830  43.758  0.00  0.00    +0.000 C 
ATOM      2  C   UNL     1      13.500  45.055  45.031  0.00  0.00    +0.000 C 
ATOM      3  C   UNL     1      13.230  46.464  45.432  0.00  0.00    +0.000 A 
ATOM      4  C   UNL     1      14.067  47.542  45.120  0.00  0.00    +0.000 A 
ATOM      5  C   UNL     1      13.735  48.832  45.534  0.00  0.00    +0.000 A 
ATOM      6  C   UNL     1      12.570  49.054  46.269  0.00  0.00    +0.000 A 
ATOM      7  C   UNL     1      11.739  47.985  46.605  0.00  0.00    +0.000 A 
ATOM      8  C   UNL     1      12.072  46.683  46.208  0.00  0.00    +0.000 A 
ATOM      9  C   UNL     1      11.175  45.512  46.567  0.00  0.00    +0.000 C 
ATOM     10  C   UNL     1      11.933  44.208  46.731  0.00  0.00    +0.000 A 
ATOM     11  C   UNL     1      11.482  43.230  47.628  0.00  0.00    +0.000 A 
ATOM     12  C   UNL     1      12.211  42.055  47.810  0.00  0.00    +0.000 A 
ATOM     13  C   UNL     1      13.399  41.857  47.109  0.00  0.00    +0.000 A 
ATOM     14  C   UNL     1      13.846  42.818  46.200  0.00  0.00    +0.000 A 
ATOM     15  C   UNL     1      13.095  43.974  45.967  0.00  0.00    +0.000 A 
ENDROOT
BRANCH   1  24
ATOM     16  O   UNL     1      16.410  43.601  42.693  0.00  0.00    +0.000 OA
ATOM     17  C   UNL     1      15.287  43.537  42.192  0.00  0.00    +0.000 C 
ATOM     18  N   UNL     1      15.162  43.490  40.829  0.00  0.00    +0.000 N 
ATOM     19  C   UNL     1      14.003  43.362  40.134  0.00  0.00    +0.000 C 
ATOM     20  S   UNL     1      13.997  43.295  38.474  0.00  0.00    +0.000 S 
ATOM     21  N   UNL     1      12.851  43.282  40.847  0.00  0.00    +0.000 N 
ATOM     22  C   UNL     1      12.739  43.320  42.211  0.00  0.00    +0.000 C 
ATOM     23  O   UNL     1      11.628  43.207  42.728  0.00  0.00    +0.000 OA
ATOM     24  C   UNL     1      14.013  43.518  43.010  0.00  0.00    +0.000 C 
ATOM     25  H   UNL     1      16.029  43.521  40.307  0.00  0.00    +0.000 HD
ATOM     26  H   UNL     1      11.983  43.166  40.339  0.00  0.00    +0.000 HD
ENDBRANCH   1  24
TORSDOF 1
ENDMDL
MODEL 3
REMARK VINA RESULT:    -6.259      9.839     12.545
REMARK INTER + INTRA:          -7.166
REMARK INTER:                  -6.625
REMARK INTRA:                  -0.541
REMARK UNBOUND:                -0.541
REMARK  Name = 
REMARK  1 active torsions:
REMARK  status: ('A' for Active; 'I' for Inactive)
REMARK    1  A    between atoms: C_9  and  C_10
REMARK                            x       y       z     vdW  Elec       q    Type
REMARK                         _______ _______ _______ _____ _____    ______ ____
ROOT
ATOM      1  C   UNL     1      13.317  46.125  44.192  0.00  0.00    +0.000 C 
ATOM      2  C   UNL     1      13.615  44.881  43.755  0.00  0.00    +0.000 C 
ATOM      3  C   UNL     1      13.623  44.648  42.284  0.00  0.00    +0.000 A 
ATOM      4  C   UNL     1      12.629  45.108  41.412  0.00  0.00    +0.000 A 
ATOM      5  C   UNL     1      12.717  44.846  40.044  0.00  0.00    +0.000 A 
ATOM      6  C   UNL     1      13.793  44.117  39.539  0.00  0.00    +0.000 A 
ATOM      7  C   UNL     1      14.779  43.633  40.400  0.00  0.00    +0.000 A 
ATOM      8  C   UNL     1      14.691  43.877  41.777  0.00  0.00    +0.000 A 
ATOM      9  C   UNL     1      15.758  43.357  42.724  0.00  0.00    +0.000 C 
ATOM     10  C   UNL     1      15.227  43.053  44.113  0.00  0.00    +0.000 A 
ATOM     11  C   UNL     1      15.799  42.034  44.886  0.00  0.00    +0.000 A 
ATOM     12  C   UNL     1      15.274  41.728  46.141  0.00  0.00    +0.000 A 
ATOM     13  C   UNL     1      14.169  42.427  46.624  0.00  0.00    +0.000 A 
ATOM     14  C   UNL     1      13.605  43.456  45.868  0.00  0.00    +0.000 A 
ATOM     15  C   UNL     1      14.157  43.811  44.632  0.00  0.00    +0.000 A 
ENDROOT
BRANCH   1  24
ATOM     16  O   UNL     1      11.316  45.961  46.409  0.00  0.00    +0.000 OA
ATOM     17  C   UNL     1      12.081  46.897  46.174  0.00  0.00    +0.000 C 
ATOM     18  N   UNL     1      11.679  48.178  46.445  0.00  0.00    +0.000 N 
ATOM     19  C   UNL     1      12.424  49.302  46.293  0.00  0.00    +0.000 C 
ATOM     20  S   UNL     1      11.815  50.798  46.683  0.00  0.00    +0.000 S 
ATOM     21  N   UNL     1      13.687  49.156  45.820  0.00  0.00    +0.000 N 
ATOM     22  C   UNL     1      14.292  47.977  45.475  0.00  0.00    +0.000 C 
ATOM     23  O   UNL     1      15.459  47.989  45.085  0.00  0.00    +0.000 OA
ATOM     24  C   UNL     1      13.463  46.711  45.581  0.00  0.00    +0.000 C 
ATOM     25  H   UNL     1      10.744  48.273  46.824  0.00  0.00    +0.000 HD
ATOM     26  H   UNL     1      14.258  49.986  45.722  0.00  0.00    +0.000 HD
ENDBRANCH   1  24
TORSDOF 1
ENDMDL
