MODEL 1
REMARK VINA RESULT:    -7.259      0.000      0.000
REMARK INTER + INTRA:         -11.742
REMARK INTER:                 -10.614
REMARK INTRA:                  -1.128
REMARK UNBOUND:                -1.087
REMARK  Name = 
REMARK  10 active torsions:
REMARK  status: ('A' for Active; 'I' for Inactive)
REMARK    1  A    between atoms: C_1  and  C_2
REMARK    2  A    between atoms: C_5  and  C_6
REMARK    3  A    between atoms: C_9  and  C_10
REMARK    4  A    between atoms: C_10  and  N_11
REMARK    5  A    between atoms: C_16  and  N_17
REMARK    6  A    between atoms: C_18  and  C_20
REMARK    7  A    between atoms: C_23  and  O_24
REMARK    8  A    between atoms: O_24  and  P_25
REMARK    9  A    between atoms: P_25  and  O_27
REMARK   10  A    between atoms: P_25  and  O_28
REMARK                            x       y       z     vdW  Elec       q    Type
REMARK                         _______ _______ _______ _____ _____    ______ ____
ROOT
ATOM      1  N   UNL     1      15.433  40.882  52.389  0.00  0.00    +0.000 N 
ATOM      2  C   UNL     1      16.713  41.368  51.889  0.00  0.00    +0.000 C 
ATOM      3  C   UNL     1      17.817  40.326  52.022  0.00  0.00    +0.000 C 
ATOM      4  C   UNL     1      17.410  38.922  51.572  0.00  0.00    +0.000 C 
ATOM      5  C   UNL     1      16.606  38.900  50.272  0.00  0.00    +0.000 C 
ATOM      6  C   UNL     1      15.164  39.452  50.336  0.00  0.00    +0.000 C 
ATOM      7  C   UNL     1      14.683  39.907  51.734  0.00  0.00    +0.000 C 
ATOM      8  O   UNL     1      13.636  39.458  52.208  0.00  0.00    +0.000 OA
ENDROOT
BRANCH   6   9
ATOM      9  N   UNL     1      14.928  40.561  49.405  0.00  0.00    +0.000 N 
ATOM     10  C   UNL     1      14.480  40.351  48.121  0.00  0.00    +0.000 C 
ATOM     11  O   UNL     1      14.292  39.225  47.669  0.00  0.00    +0.000 OA
ATOM     12  H   UNL     1      14.897  41.489  49.807  0.00  0.00    +0.000 HD
BRANCH  10  13
ATOM     13  C   UNL     1      14.221  41.556  47.271  0.00  0.00    +0.000 A 
ATOM     14  C   UNL     1      12.940  42.124  47.317  0.00  0.00    +0.000 A 
ATOM     15  C   UNL     1      12.619  43.246  46.543  0.00  0.00    +0.000 A 
ATOM     16  C   UNL     1      13.578  43.807  45.708  0.00  0.00    +0.000 A 
ATOM     17  C   UNL     1      14.852  43.240  45.638  0.00  0.00    +0.000 A 
ATOM     18  C   UNL     1      15.175  42.117  46.410  0.00  0.00    +0.000 A 
BRANCH  16  19
ATOM     19  O   UNL     1      13.361  44.898  44.915  0.00  0.00    +0.000 OA
BRANCH  19  20
ATOM     20  P   UNL     1      13.423  46.419  45.416  0.00  0.00    +0.000 P 
ATOM     21  O   UNL     1      12.539  46.817  46.550  0.00  0.00    +0.000 OA
BRANCH  20  22
ATOM     22  O   UNL     1      13.161  47.294  44.103  0.00  0.00    +0.000 OA
ATOM     23  H   UNL     1      13.269  46.766  43.292  0.00  0.00    +0.000 HD
ENDBRANCH  20  22
BRANCH  20  24
ATOM     24  O   UNL     1      14.969  46.711  45.698  0.00  0.00    +0.000 OA
ATOM     25  H   UNL     1      15.444  46.915  44.871  0.00  0.00    +0.000 HD
ENDBRANCH  20  24
ENDBRANCH  19  20
ENDBRANCH  16  19
ENDBRANCH  10  13
ENDBRANCH   6   9
BRANCH   1  26
ATOM     26  C   UNL     1      14.978  41.366  53.687  0.00  0.00    +0.000 C 
BRANCH  26  30
ATOM     27  C   UNL     1      13.703  45.524  53.519  0.00  0.00    +0.000 A 
ATOM     28  C   UNL     1      12.773  44.485  53.685  0.00  0.00    +0.000 A 
ATOM     29  C   UNL     1      13.184  43.148  53.731  0.00  0.00    +0.000 A 
ATOM     30  C   UNL     1      14.541  42.811  53.622  0.00  0.00    +0.000 A 
ATOM     31  C   UNL     1      15.472  43.835  53.434  0.00  0.00    +0.000 A 
ATOM     32  C   UNL     1      15.057  45.170  53.381  0.00  0.00    +0.000 A 
BRANCH  27  37
ATOM     33  C   UNL     1      12.037  51.096  53.572  0.00  0.00    +0.000 C 
ATOM     34  C   UNL     1      12.476  49.664  53.530  0.00  0.00    +0.000 A 
ATOM     35  C   UNL     1      13.811  49.323  53.311  0.00  0.00    +0.000 A 
ATOM     36  C   UNL     1      14.210  47.980  53.302  0.00  0.00    +0.000 A 
ATOM     37  C   UNL     1      13.287  46.941  53.505  0.00  0.00    +0.000 A 
ATOM     38  C   UNL     1      11.942  47.300  53.698  0.00  0.00    +0.000 A 
ATOM     39  C   UNL     1      11.541  48.640  53.715  0.00  0.00    +0.000 A 
ENDBRANCH  27  37
ENDBRANCH  26  30
ENDBRANCH   1  26
TORSDOF 9
ENDMDL
MODEL 2
REMARK VINA RESULT:    -6.929      6.730     10.752
REMARK INTER + INTRA:         -11.257
REMARK INTER:                 -10.170
REMARK INTRA:                  -1.087
REMARK UNBOUND:                -1.087
REMARK  Name = 
REMARK  10 active torsions:
REMARK  status: ('A' for Active; 'I' for Inactive)
REMARK    1  A    between atoms: C_1  and  C_2
REMARK    2  A    between atoms: C_5  and  C_6
REMARK    3  A    between atoms: C_9  and  C_10
REMARK    4  A    between atoms: C_10  and  N_11
REMARK    5  A    between atoms: C_16  and  N_17
REMARK    6  A    between atoms: C_18  and  C_20
REMARK    7  A    between atoms: C_23  and  O_24
REMARK    8  A    between atoms: O_24  and  P_25
REMARK    9  A    between atoms: P_25  and  O_27
REMARK   10  A    between atoms: P_25  and  O_28
REMARK                            x       y       z     vdW  Elec       q    Type
REMARK                         _______ _______ _______ _____ _____    ______ ____
ROOT
ATOM      1  N   UNL     1      10.876  48.204  46.556  0.00  0.00    +0.000 N 
ATOM      2  C   UNL     1      10.828  48.122  45.101  0.00  0.00    +0.000 C 
ATOM      3  C   UNL     1       9.411  48.275  44.562  0.00  0.00    +0.000 C 
ATOM      4  C   UNL     1       8.619  49.420  45.197  0.00  0.00    +0.000 C 
ATOM      5  C   UNL     1       9.425  50.707  45.366  0.00  0.00    +0.000 C 
ATOM      6  C   UNL     1      10.539  50.695  46.437  0.00  0.00    +0.000 C 
ATOM      7  C   UNL     1      10.666  49.390  47.258  0.00  0.00    +0.000 C 
ATOM      8  O   UNL     1      10.641  49.425  48.491  0.00  0.00    +0.000 OA
ENDROOT
BRANCH   6   9
ATOM      9  N   UNL     1      11.866  51.004  45.893  0.00  0.00    +0.000 N 
ATOM     10  C   UNL     1      12.793  51.733  46.603  0.00  0.00    +0.000 C 
ATOM     11  O   UNL     1      12.549  52.198  47.713  0.00  0.00    +0.000 OA
ATOM     12  H   UNL     1      12.152  50.482  45.075  0.00  0.00    +0.000 HD
BRANCH  10  13
ATOM     13  C   UNL     1      14.136  51.945  45.977  0.00  0.00    +0.000 A 
ATOM     14  C   UNL     1      14.306  51.544  44.644  0.00  0.00    +0.000 A 
ATOM     15  C   UNL     1      15.535  51.702  43.993  0.00  0.00    +0.000 A 
ATOM     16  C   UNL     1      16.612  52.258  44.674  0.00  0.00    +0.000 A 
ATOM     17  C   UNL     1      16.462  52.644  46.008  0.00  0.00    +0.000 A 
ATOM     18  C   UNL     1      15.235  52.486  46.661  0.00  0.00    +0.000 A 
BRANCH  16  19
ATOM     19  O   UNL     1      17.849  52.450  44.127  0.00  0.00    +0.000 OA
BRANCH  19  20
ATOM     20  P   UNL     1      18.883  51.278  43.774  0.00  0.00    +0.000 P 
ATOM     21  O   UNL     1      20.331  51.626  43.687  0.00  0.00    +0.000 OA
BRANCH  20  22
ATOM     22  O   UNL     1      18.328  50.638  42.417  0.00  0.00    +0.000 OA
ATOM     23  H   UNL     1      18.536  51.195  41.646  0.00  0.00    +0.000 HD
ENDBRANCH  20  22
BRANCH  20  24
ATOM     24  O   UNL     1      18.583  50.114  44.828  0.00  0.00    +0.000 OA
ATOM     25  H   UNL     1      17.624  49.970  44.928  0.00  0.00    +0.000 HD
ENDBRANCH  20  24
ENDBRANCH  19  20
ENDBRANCH  16  19
ENDBRANCH  10  13
ENDBRANCH   6   9
BRANCH   1  26
ATOM     26  C   UNL     1      11.047  46.964  47.304  0.00  0.00    +0.000 C 
BRANCH  26  30
ATOM     27  C   UNL     1      13.732  44.210  45.267  0.00  0.00    +0.000 A 
ATOM     28  C   UNL     1      12.509  43.772  45.800  0.00  0.00    +0.000 A 
ATOM     29  C   UNL     1      11.650  44.658  46.461  0.00  0.00    +0.000 A 
ATOM     30  C   UNL     1      11.986  46.012  46.601  0.00  0.00    +0.000 A 
ATOM     31  C   UNL     1      13.210  46.454  46.094  0.00  0.00    +0.000 A 
ATOM     32  C   UNL     1      14.070  45.565  45.440  0.00  0.00    +0.000 A 
BRANCH  27  37
ATOM     33  C   UNL     1      17.192  40.527  42.388  0.00  0.00    +0.000 C 
ATOM     34  C   UNL     1      16.321  41.498  43.127  0.00  0.00    +0.000 A 
ATOM     35  C   UNL     1      15.847  42.657  42.512  0.00  0.00    +0.000 A 
ATOM     36  C   UNL     1      15.012  43.540  43.206  0.00  0.00    +0.000 A 
ATOM     37  C   UNL     1      14.631  43.295  44.535  0.00  0.00    +0.000 A 
ATOM     38  C   UNL     1      15.137  42.137  45.149  0.00  0.00    +0.000 A 
ATOM     39  C   UNL     1      15.965  41.248  44.457  0.00  0.00    +0.000 A 
ENDBRANCH  27  37
ENDBRANCH  26  30
ENDBRANCH   1  26
TORSDOF 9
ENDMDL
MODEL 3
REMARK VINA RESULT:    -6.863      4.534      7.258
REMARK INTER + INTRA:         -11.161
REMARK INTER:                  -9.748
REMARK INTRA:                  -1.413
REMARK UNBOUND:                -1.087
REMARK  Name = 
REMARK  10 active torsions:
REMARK  status: ('A' for Active; 'I' for Inactive)
REMARK    1  A    between atoms: C_1  and  C_2
REMARK    2  A    between atoms: C_5  and  C_6
REMARK    3  A    between atoms: C_9  and  C_10
REMARK    4  A    between atoms: C_10  and  N_11
REMARK    5  A    between atoms: C_16  and  N_17
REMARK    6  A    between atoms: C_18  and  C_20
REMARK    7  A    between atoms: C_23  and  O_24
REMARK    8  A    between atoms: O_24  and  P_25
REMARK    9  A    between atoms: P_25  and  O_27
REMARK   10  A    between atoms: P_25  and  O_28
REMARK                            x       y       z     vdW  Elec       q    Type
REMARK                         _______ _______ _______ _____ _____    ______ ____
ROOT
ATOM      1  N   UNL     1      15.234  38.652  47.053  0.00  0.00    +0.000 N 
ATOM      2  C   UNL     1      14.150  37.978  47.756  0.00  0.00    +0.000 C 
ATOM      3  C   UNL     1      14.309  36.462  47.743  0.00  0.00    +0.000 C 
ATOM      4  C   UNL     1      15.724  35.979  48.068  0.00  0.00    +0.000 C 
ATOM      5  C   UNL     1      16.377  36.722  49.233  0.00  0.00    +0.000 C 
ATOM      6  C   UNL     1      16.784  38.191  48.980  0.00  0.00    +0.000 C 
ATOM      7  C   UNL     1      16.535  38.719  47.548  0.00  0.00    +0.000 C 
ATOM      8  O   UNL     1      17.455  39.233  46.905  0.00  0.00    +0.000 OA
ENDROOT
BRANCH   6   9
ATOM      9  N   UNL     1      16.155  39.133  49.913  0.00  0.00    +0.000 N 
ATOM     10  C   UNL     1      16.752  39.492  51.100  0.00  0.00    +0.000 C 
ATOM     11  O   UNL     1      17.823  39.014  51.464  0.00  0.00    +0.000 OA
ATOM     12  H   UNL     1      15.378  39.672  49.554  0.00  0.00    +0.000 HD
BRANCH  10  13
ATOM     13  C   UNL     1      16.050  40.501  51.953  0.00  0.00    +0.000 A 
ATOM     14  C   UNL     1      15.026  40.045  52.795  0.00  0.00    +0.000 A 
ATOM     15  C   UNL     1      14.316  40.931  53.616  0.00  0.00    +0.000 A 
ATOM     16  C   UNL     1      14.621  42.287  53.594  0.00  0.00    +0.000 A 
ATOM     17  C   UNL     1      15.625  42.758  52.746  0.00  0.00    +0.000 A 
ATOM     18  C   UNL     1      16.335  41.874  51.924  0.00  0.00    +0.000 A 
BRANCH  16  19
ATOM     19  O   UNL     1      13.985  43.228  54.354  0.00  0.00    +0.000 OA
BRANCH  19  20
ATOM     20  P   UNL     1      12.510  43.786  54.070  0.00  0.00    +0.000 P 
ATOM     21  O   UNL     1      11.755  43.210  52.919  0.00  0.00    +0.000 OA
BRANCH  20  22
ATOM     22  O   UNL     1      12.688  45.372  53.948  0.00  0.00    +0.000 OA
ATOM     23  H   UNL     1      11.872  45.802  53.638  0.00  0.00    +0.000 HD
ENDBRANCH  20  22
BRANCH  20  24
ATOM     24  O   UNL     1      11.730  43.653  55.458  0.00  0.00    +0.000 OA
ATOM     25  H   UNL     1      11.763  42.738  55.792  0.00  0.00    +0.000 HD
ENDBRANCH  20  24
ENDBRANCH  19  20
ENDBRANCH  16  19
ENDBRANCH  10  13
ENDBRANCH   6   9
BRANCH   1  26
ATOM     26  C   UNL     1      14.959  39.185  45.723  0.00  0.00    +0.000 C 
BRANCH  26  30
ATOM     27  C   UNL     1      13.976  43.423  45.839  0.00  0.00    +0.000 A 
ATOM     28  C   UNL     1      15.183  42.972  45.281  0.00  0.00    +0.000 A 
ATOM     29  C   UNL     1      15.501  41.609  45.251  0.00  0.00    +0.000 A 
ATOM     30  C   UNL     1      14.614  40.655  45.772  0.00  0.00    +0.000 A 
ATOM     31  C   UNL     1      13.421  41.095  46.349  0.00  0.00    +0.000 A 
ATOM     32  C   UNL     1      13.109  42.458  46.384  0.00  0.00    +0.000 A 
BRANCH  27  37
ATOM     33  C   UNL     1      12.564  49.064  45.966  0.00  0.00    +0.000 C 
ATOM     34  C   UNL     1      12.924  47.610  45.903  0.00  0.00    +0.000 A 
ATOM     35  C   UNL     1      14.034  47.171  45.182  0.00  0.00    +0.000 A 
ATOM     36  C   UNL     1      14.374  45.813  45.155  0.00  0.00    +0.000 A 
ATOM     37  C   UNL     1      13.612  44.855  45.843  0.00  0.00    +0.000 A 
ATOM     38  C   UNL     1      12.481  45.309  46.544  0.00  0.00    +0.000 A 
ATOM     39  C   UNL     1      12.143  46.666  46.579  0.00  0.00    +0.000 A 
ENDBRANCH  27  37
ENDBRANCH  26  30
ENDBRANCH   1  26
TORSDOF 9
ENDMDL
