MODEL 1
REMARK VINA RESULT:    -5.886      0.000      0.000
REMARK INTER + INTRA:          -8.711
REMARK INTER:                  -7.833
REMARK INTRA:                  -0.878
REMARK UNBOUND:                -0.933
REMARK  Name = 
REMARK  6 active torsions:
REMARK  status: ('A' for Active; 'I' for Inactive)
REMARK    1  A    between atoms: N_1  and  C_2
REMARK    2  A    between atoms: C_5  and  C_6
REMARK    3  A    between atoms: C_6  and  C_7
REMARK    4  A    between atoms: C_10  and  O_11
REMARK    5  A    between atoms: O_11  and  C_12
REMARK    6  A    between atoms: C_12  and  C_13
REMARK                            x       y       z     vdW  Elec       q    Type
REMARK                         _______ _______ _______ _____ _____    ______ ____
ROOT
ATOM      1  C   UNL     1      17.684  37.052  54.225  0.00  0.00    +0.000 A 
ATOM      2  C   UNL     1      17.396  37.953  55.259  0.00  0.00    +0.000 A 
ATOM      3  C   UNL     1      17.313  39.328  55.011  0.00  0.00    +0.000 A 
ATOM      4  C   UNL     1      17.520  39.822  53.723  0.00  0.00    +0.000 A 
ATOM      5  C   UNL     1      17.810  38.928  52.690  0.00  0.00    +0.000 A 
ATOM      6  C   UNL     1      17.892  37.555  52.935  0.00  0.00    +0.000 A 
ENDROOT
BRANCH   1   7
ATOM      7  C   UNL     1      17.776  35.567  54.497  0.00  0.00    +0.000 C 
BRANCH   7  11
ATOM      8  C   UNL     1      21.707  34.210  55.728  0.00  0.00    +0.000 A 
ATOM      9  C   UNL     1      21.383  34.319  54.374  0.00  0.00    +0.000 A 
ATOM     10  C   UNL     1      20.111  34.741  53.973  0.00  0.00    +0.000 A 
ATOM     11  C   UNL     1      19.148  35.101  54.925  0.00  0.00    +0.000 A 
ATOM     12  C   UNL     1      19.495  35.052  56.281  0.00  0.00    +0.000 A 
ATOM     13  C   UNL     1      20.769  34.629  56.673  0.00  0.00    +0.000 A 
BRANCH   8  14
ATOM     14  N   UNL     1      23.015  33.901  56.118  0.00  0.00    +0.000 N 
ATOM     15  H   UNL     1      23.606  33.593  55.353  0.00  0.00    +0.000 HD
ATOM     16  H   UNL     1      23.065  33.278  56.918  0.00  0.00    +0.000 HD
ENDBRANCH   8  14
ENDBRANCH   7  11
ENDBRANCH   1   7
BRANCH   4  17
ATOM     17  O   UNL     1      17.468  41.133  53.343  0.00  0.00    +0.000 OA
BRANCH  17  18
ATOM     18  C   UNL     1      16.593  41.465  52.269  0.00  0.00    +0.000 C 
BRANCH  18  19
ATOM     19  C   UNL     1      15.582  42.463  52.777  0.00  0.00    +0.000 A 
ATOM     20  C   UNL     1      14.244  42.088  52.962  0.00  0.00    +0.000 A 
ATOM     21  C   UNL     1      13.306  43.015  53.420  0.00  0.00    +0.000 A 
ATOM     22  C   UNL     1      13.693  44.326  53.687  0.00  0.00    +0.000 A 
ATOM     23  C   UNL     1      15.019  44.714  53.492  0.00  0.00    +0.000 A 
ATOM     24  C   UNL     1      15.957  43.789  53.034  0.00  0.00    +0.000 A 
ENDBRANCH  18  19
ENDBRANCH  17  18
ENDBRANCH   4  17
TORSDOF 6
ENDMDL
MODEL 2
REMARK VINA RESULT:    -5.614     11.719     13.450
REMARK INTER + INTRA:          -8.352
REMARK INTER:                  -7.443
REMARK INTRA:                  -0.908
REMARK UNBOUND:                -0.933
REMARK  Name = 
REMARK  6 active torsions:
REMARK  status: ('A' for Active; 'I' for Inactive)
REMARK    1  A    between atoms: N_1  and  C_2
REMARK    2  A    between atoms: C_5  and  C_6
REMARK    3  A    between atoms: C_6  and  C_7
REMARK    4  A    between atoms: C_10  and  O_11
REMARK    5  A    between atoms: O_11  and  C_12
REMARK    6  A    between atoms: C_12  and  C_13
REMARK                            x       y       z     vdW  Elec       q    Type
REMARK                         _______ _______ _______ _____ _____    ______ ____
ROOT
ATOM      1  C   UNL     1      13.701  45.252  45.896  0.00  0.00    +0.000 A 
ATOM      2  C   UNL     1      12.471  45.424  46.545  0.00  0.00    +0.000 A 
ATOM      3  C   UNL     1      11.903  46.695  46.682  0.00  0.00    +0.000 A 
ATOM      4  C   UNL     1      12.561  47.815  46.173  0.00  0.00    +0.000 A 
ATOM      5  C   UNL     1      13.788  47.649  45.530  0.00  0.00    +0.000 A 
ATOM      6  C   UNL     1      14.357  46.381  45.390  0.00  0.00    +0.000 A 
ENDROOT
BRANCH   1   7
ATOM      7  C   UNL     1      14.314  43.877  45.752  0.00  0.00    +0.000 C 
BRANCH   7  11
ATOM      8  C   UNL     1      14.662  42.490  41.658  0.00  0.00    +0.000 A 
ATOM      9  C   UNL     1      13.414  42.572  42.278  0.00  0.00    +0.000 A 
ATOM     10  C   UNL     1      13.300  43.003  43.603  0.00  0.00    +0.000 A 
ATOM     11  C   UNL     1      14.434  43.401  44.323  0.00  0.00    +0.000 A 
ATOM     12  C   UNL     1      15.678  43.378  43.679  0.00  0.00    +0.000 A 
ATOM     13  C   UNL     1      15.783  42.945  42.353  0.00  0.00    +0.000 A 
BRANCH   8  14
ATOM     14  N   UNL     1      14.756  42.170  40.298  0.00  0.00    +0.000 N 
ATOM     15  H   UNL     1      15.526  41.546  40.079  0.00  0.00    +0.000 HD
ATOM     16  H   UNL     1      14.730  42.979  39.687  0.00  0.00    +0.000 HD
ENDBRANCH   8  14
ENDBRANCH   7  11
ENDBRANCH   1   7
BRANCH   4  17
ATOM     17  O   UNL     1      12.121  49.108  46.238  0.00  0.00    +0.000 OA
BRANCH  17  18
ATOM     18  C   UNL     1      12.719  50.042  45.344  0.00  0.00    +0.000 C 
BRANCH  18  19
ATOM     19  C   UNL     1      13.507  51.037  46.160  0.00  0.00    +0.000 A 
ATOM     20  C   UNL     1      12.957  51.598  47.321  0.00  0.00    +0.000 A 
ATOM     21  C   UNL     1      13.681  52.527  48.070  0.00  0.00    +0.000 A 
ATOM     22  C   UNL     1      14.955  52.913  47.659  0.00  0.00    +0.000 A 
ATOM     23  C   UNL     1      15.506  52.373  46.497  0.00  0.00    +0.000 A 
ATOM     24  C   UNL     1      14.784  51.444  45.748  0.00  0.00    +0.000 A 
ENDBRANCH  18  19
ENDBRANCH  17  18
ENDBRANCH   4  17
TORSDOF 6
ENDMDL
MODEL 3
REMARK VINA RESULT:    -5.527      3.394      8.861
REMARK INTER + INTRA:          -8.237
REMARK INTER:                  -7.304
REMARK INTRA:                  -0.933
REMARK UNBOUND:                -0.933
REMARK  Name = 
REMARK  6 active torsions:
REMARK  status: ('A' for Active; 'I' for Inactive)
REMARK    1  A    between atoms: N_1  and  C_2
REMARK    2  A    between atoms: C_5  and  C_6
REMARK    3  A    between atoms: C_6  and  C_7
REMARK    4  A    between atoms: C_10  and  O_11
REMARK    5  A    between atoms: O_11  and  C_12
REMARK    6  A    between atoms: C_12  and  C_13
REMARK                            x       y       z     vdW  Elec       q    Type
REMARK                         _______ _______ _______ _____ _____    ______ ____
ROOT
ATOM      1  C   UNL     1      17.413  39.466  52.548  0.00  0.00    +0.000 A 
ATOM      2  C   UNL     1      17.294  39.326  53.937  0.00  0.00    +0.000 A 
ATOM      3  C   UNL     1      17.449  38.077  54.549  0.00  0.00    +0.000 A 
ATOM      4  C   UNL     1      17.722  36.947  53.777  0.00  0.00    +0.000 A 
ATOM      5  C   UNL     1      17.837  37.082  52.392  0.00  0.00    +0.000 A 
ATOM      6  C   UNL     1      17.684  38.328  51.779  0.00  0.00    +0.000 A 
ENDROOT
BRANCH   1   7
ATOM      7  C   UNL     1      17.242  40.817  51.890  0.00  0.00    +0.000 C 
BRANCH   7  11
ATOM      8  C   UNL     1      13.935  43.135  53.469  0.00  0.00    +0.000 A 
ATOM      9  C   UNL     1      15.240  43.630  53.521  0.00  0.00    +0.000 A 
ATOM     10  C   UNL     1      16.310  42.878  53.027  0.00  0.00    +0.000 A 
ATOM     11  C   UNL     1      16.089  41.628  52.434  0.00  0.00    +0.000 A 
ATOM     12  C   UNL     1      14.773  41.161  52.326  0.00  0.00    +0.000 A 
ATOM     13  C   UNL     1      13.708  41.920  52.822  0.00  0.00    +0.000 A 
BRANCH   8  14
ATOM     14  N   UNL     1      12.859  43.941  53.858  0.00  0.00    +0.000 N 
ATOM     15  H   UNL     1      12.698  43.951  54.860  0.00  0.00    +0.000 HD
ATOM     16  H   UNL     1      12.008  43.765  53.334  0.00  0.00    +0.000 HD
ENDBRANCH   8  14
ENDBRANCH   7  11
ENDBRANCH   1   7
BRANCH   4  17
ATOM     17  O   UNL     1      17.895  35.675  54.242  0.00  0.00    +0.000 OA
BRANCH  17  18
ATOM     18  C   UNL     1      18.889  34.879  53.603  0.00  0.00    +0.000 C 
BRANCH  18  19
ATOM     19  C   UNL     1      20.050  34.722  54.553  0.00  0.00    +0.000 A 
ATOM     20  C   UNL     1      19.847  34.782  55.939  0.00  0.00    +0.000 A 
ATOM     21  C   UNL     1      20.923  34.649  56.818  0.00  0.00    +0.000 A 
ATOM     22  C   UNL     1      22.212  34.467  56.322  0.00  0.00    +0.000 A 
ATOM     23  C   UNL     1      22.428  34.422  54.944  0.00  0.00    +0.000 A 
ATOM     24  C   UNL     1      21.353  34.555  54.064  0.00  0.00    +0.000 A 
ENDBRANCH  18  19
ENDBRANCH  17  18
ENDBRANCH   4  17
TORSDOF 6
ENDMDL
