MODEL 1
REMARK VINA RESULT:    -6.714      0.000      0.000
REMARK INTER + INTRA:          -9.511
REMARK INTER:                  -8.715
REMARK INTRA:                  -0.796
REMARK UNBOUND:                -0.835
REMARK  Name = 
REMARK  5 active torsions:
REMARK  status: ('A' for Active; 'I' for Inactive)
REMARK    1  A    between atoms: C_6  and  S_7
REMARK    2  A    between atoms: S_7  and  C_10
REMARK    3  A    between atoms: C_15  and  O_16
REMARK    4  A    between atoms: O_16  and  C_17
REMARK    5  A    between atoms: C_17  and  C_18
REMARK                            x       y       z     vdW  Elec       q    Type
REMARK                         _______ _______ _______ _____ _____    ______ ____
ROOT
ATOM      1  C   UNL     1      17.623  37.397  51.106  0.00  0.00    +0.000 A 
ATOM      2  C   UNL     1      17.219  36.862  49.882  0.00  0.00    +0.000 A 
ATOM      3  C   UNL     1      18.120  36.104  49.136  0.00  0.00    +0.000 A 
ATOM      4  C   UNL     1      19.429  35.884  49.599  0.00  0.00    +0.000 A 
ATOM      5  C   UNL     1      20.347  35.121  48.860  0.00  0.00    +0.000 A 
ATOM      6  C   UNL     1      21.651  34.906  49.319  0.00  0.00    +0.000 A 
ATOM      7  C   UNL     1      22.048  35.464  50.532  0.00  0.00    +0.000 A 
ATOM      8  C   UNL     1      21.147  36.229  51.280  0.00  0.00    +0.000 A 
ATOM      9  C   UNL     1      19.837  36.447  50.831  0.00  0.00    +0.000 A 
ATOM     10  C   UNL     1      18.926  37.211  51.575  0.00  0.00    +0.000 A 
ENDROOT
BRANCH   1  11
ATOM     11  S   UNL     1      16.467  38.369  52.054  0.00  0.00    +0.000 S 
ATOM     12  O   UNL     1      15.138  38.062  51.556  0.00  0.00    +0.000 OA
ATOM     13  O   UNL     1      16.805  38.137  53.445  0.00  0.00    +0.000 OA
BRANCH  11  19
ATOM     14  O   UNL     1      14.792  42.850  53.086  0.00  0.00    +0.000 OA
ATOM     15  C   UNL     1      15.566  41.975  52.740  0.00  0.00    +0.000 C 
ATOM     16  N   UNL     1      16.656  41.570  53.428  0.00  0.00    +0.000 N 
ATOM     17  C   UNL     1      17.493  40.675  52.831  0.00  0.00    +0.000 C 
ATOM     18  O   UNL     1      18.626  40.457  53.239  0.00  0.00    +0.000 OA
ATOM     19  C   UNL     1      16.870  40.048  51.615  0.00  0.00    +0.000 C 
ATOM     20  S   UNL     1      15.451  41.130  51.219  0.00  0.00    +0.000 S 
ATOM     21  H   UNL     1      16.937  42.067  54.259  0.00  0.00    +0.000 HD
ENDBRANCH  11  19
ENDBRANCH   1  11
BRANCH   6  22
ATOM     22  O   UNL     1      22.425  34.142  48.490  0.00  0.00    +0.000 OA
BRANCH  22  23
ATOM     23  C   UNL     1      23.832  34.366  48.522  0.00  0.00    +0.000 C 
BRANCH  23  24
ATOM     24  C   UNL     1      24.181  35.315  47.403  0.00  0.00    +0.000 A 
ATOM     25  C   UNL     1      25.387  36.030  47.429  0.00  0.00    +0.000 A 
ATOM     26  C   UNL     1      25.707  36.917  46.400  0.00  0.00    +0.000 A 
ATOM     27  C   UNL     1      24.820  37.106  45.341  0.00  0.00    +0.000 A 
ATOM     28  C   UNL     1      23.612  36.413  45.313  0.00  0.00    +0.000 A 
ATOM     29  C   UNL     1      23.291  35.525  46.340  0.00  0.00    +0.000 A 
ENDBRANCH  23  24
ENDBRANCH  22  23
ENDBRANCH   6  22
TORSDOF 5
ENDMDL
MODEL 2
REMARK VINA RESULT:    -6.685      9.181     12.812
REMARK INTER + INTRA:          -9.474
REMARK INTER:                  -8.639
REMARK INTRA:                  -0.835
REMARK UNBOUND:                -0.835
REMARK  Name = 
REMARK  5 active torsions:
REMARK  status: ('A' for Active; 'I' for Inactive)
REMARK    1  A    between atoms: C_6  and  S_7
REMARK    2  A    between atoms: S_7  and  C_10
REMARK    3  A    between atoms: C_15  and  O_16
REMARK    4  A    between atoms: O_16  and  C_17
REMARK    5  A    between atoms: C_17  and  C_18
REMARK                            x       y       z     vdW  Elec       q    Type
REMARK                         _______ _______ _______ _____ _____    ______ ____
ROOT
ATOM      1  C   UNL     1      17.433  39.068  42.369  0.00  0.00    +0.000 A 
ATOM      2  C   UNL     1      17.033  38.475  43.568  0.00  0.00    +0.000 A 
ATOM      3  C   UNL     1      16.392  39.251  44.533  0.00  0.00    +0.000 A 
ATOM      4  C   UNL     1      16.157  40.619  44.316  0.00  0.00    +0.000 A 
ATOM      5  C   UNL     1      15.511  41.411  45.278  0.00  0.00    +0.000 A 
ATOM      6  C   UNL     1      15.282  42.775  45.064  0.00  0.00    +0.000 A 
ATOM      7  C   UNL     1      15.706  43.359  43.872  0.00  0.00    +0.000 A 
ATOM      8  C   UNL     1      16.353  42.585  42.904  0.00  0.00    +0.000 A 
ATOM      9  C   UNL     1      16.585  41.217  43.108  0.00  0.00    +0.000 A 
ATOM     10  C   UNL     1      17.231  40.432  42.141  0.00  0.00    +0.000 A 
ENDROOT
BRANCH   1  11
ATOM     11  S   UNL     1      18.255  38.073  41.139  0.00  0.00    +0.000 S 
ATOM     12  O   UNL     1      18.891  38.985  40.205  0.00  0.00    +0.000 OA
ATOM     13  O   UNL     1      19.042  37.105  41.877  0.00  0.00    +0.000 OA
BRANCH  11  19
ATOM     14  O   UNL     1      15.546  38.763  37.121  0.00  0.00    +0.000 OA
ATOM     15  C   UNL     1      16.084  38.180  38.047  0.00  0.00    +0.000 C 
ATOM     16  N   UNL     1      17.103  37.299  37.939  0.00  0.00    +0.000 N 
ATOM     17  C   UNL     1      17.493  36.632  39.061  0.00  0.00    +0.000 C 
ATOM     18  O   UNL     1      18.202  35.636  39.023  0.00  0.00    +0.000 OA
ATOM     19  C   UNL     1      16.916  37.243  40.307  0.00  0.00    +0.000 C 
ATOM     20  S   UNL     1      15.563  38.315  39.706  0.00  0.00    +0.000 S 
ATOM     21  H   UNL     1      17.416  37.006  37.026  0.00  0.00    +0.000 HD
ENDBRANCH  11  19
ENDBRANCH   1  11
BRANCH   6  22
ATOM     22  O   UNL     1      14.642  43.410  46.091  0.00  0.00    +0.000 OA
BRANCH  22  23
ATOM     23  C   UNL     1      13.264  43.723  45.906  0.00  0.00    +0.000 C 
BRANCH  23  24
ATOM     24  C   UNL     1      13.105  45.220  46.013  0.00  0.00    +0.000 A 
ATOM     25  C   UNL     1      11.959  45.771  46.604  0.00  0.00    +0.000 A 
ATOM     26  C   UNL     1      11.805  47.155  46.693  0.00  0.00    +0.000 A 
ATOM     27  C   UNL     1      12.789  48.001  46.185  0.00  0.00    +0.000 A 
ATOM     28  C   UNL     1      13.925  47.464  45.583  0.00  0.00    +0.000 A 
ATOM     29  C   UNL     1      14.082  46.081  45.493  0.00  0.00    +0.000 A 
ENDBRANCH  23  24
ENDBRANCH  22  23
ENDBRANCH   6  22
TORSDOF 5
ENDMDL
MODEL 3
REMARK VINA RESULT:    -6.592     10.348     14.779
REMARK INTER + INTRA:          -9.355
REMARK INTER:                  -8.399
REMARK INTRA:                  -0.956
REMARK UNBOUND:                -0.835
REMARK  Name = 
REMARK  5 active torsions:
REMARK  status: ('A' for Active; 'I' for Inactive)
REMARK    1  A    between atoms: C_6  and  S_7
REMARK    2  A    between atoms: S_7  and  C_10
REMARK    3  A    between atoms: C_15  and  O_16
REMARK    4  A    between atoms: O_16  and  C_17
REMARK    5  A    between atoms: C_17  and  C_18
REMARK                            x       y       z     vdW  Elec       q    Type
REMARK                         _______ _______ _______ _____ _____    ______ ____
ROOT
ATOM      1  C   UNL     1      14.093  44.211  45.149  0.00  0.00    +0.000 A 
ATOM      2  C   UNL     1      13.026  43.969  46.015  0.00  0.00    +0.000 A 
ATOM      3  C   UNL     1      12.300  45.046  46.523  0.00  0.00    +0.000 A 
ATOM      4  C   UNL     1      12.640  46.367  46.181  0.00  0.00    +0.000 A 
ATOM      5  C   UNL     1      11.917  47.460  46.683  0.00  0.00    +0.000 A 
ATOM      6  C   UNL     1      12.259  48.774  46.346  0.00  0.00    +0.000 A 
ATOM      7  C   UNL     1      13.341  49.002  45.498  0.00  0.00    +0.000 A 
ATOM      8  C   UNL     1      14.073  47.924  44.991  0.00  0.00    +0.000 A 
ATOM      9  C   UNL     1      13.737  46.603  45.320  0.00  0.00    +0.000 A 
ATOM     10  C   UNL     1      14.464  45.516  44.814  0.00  0.00    +0.000 A 
ENDROOT
BRANCH   1  11
ATOM     11  S   UNL     1      15.020  42.830  44.506  0.00  0.00    +0.000 S 
ATOM     12  O   UNL     1      16.292  43.350  44.034  0.00  0.00    +0.000 OA
ATOM     13  O   UNL     1      14.976  41.811  45.536  0.00  0.00    +0.000 OA
BRANCH  11  19
ATOM     14  O   UNL     1      14.836  43.798  39.711  0.00  0.00    +0.000 OA
ATOM     15  C   UNL     1      14.689  43.191  40.757  0.00  0.00    +0.000 C 
ATOM     16  N   UNL     1      15.350  42.068  41.117  0.00  0.00    +0.000 N 
ATOM     17  C   UNL     1      14.963  41.438  42.262  0.00  0.00    +0.000 C 
ATOM     18  O   UNL     1      15.300  40.292  42.530  0.00  0.00    +0.000 OA
ATOM     19  C   UNL     1      14.061  42.299  43.101  0.00  0.00    +0.000 C 
ATOM     20  S   UNL     1      13.508  43.622  41.966  0.00  0.00    +0.000 S 
ATOM     21  H   UNL     1      15.961  41.614  40.457  0.00  0.00    +0.000 HD
ENDBRANCH  11  19
ENDBRANCH   1  11
BRANCH   6  22
ATOM     22  O   UNL     1      11.462  49.730  46.912  0.00  0.00    +0.000 OA
BRANCH  22  23
ATOM     23  C   UNL     1      11.699  51.084  46.535  0.00  0.00    +0.000 C 
BRANCH  23  24
ATOM     24  C   UNL     1      12.539  51.729  47.609  0.00  0.00    +0.000 A 
ATOM     25  C   UNL     1      12.025  51.907  48.901  0.00  0.00    +0.000 A 
ATOM     26  C   UNL     1      12.796  52.515  49.892  0.00  0.00    +0.000 A 
ATOM     27  C   UNL     1      14.085  52.957  49.600  0.00  0.00    +0.000 A 
ATOM     28  C   UNL     1      14.601  52.799  48.316  0.00  0.00    +0.000 A 
ATOM     29  C   UNL     1      13.831  52.192  47.323  0.00  0.00    +0.000 A 
ENDBRANCH  23  24
ENDBRANCH  22  23
ENDBRANCH   6  22
TORSDOF 5
ENDMDL
