MODEL 1
REMARK VINA RESULT:    -7.036      0.000      0.000
REMARK INTER + INTRA:         -11.872
REMARK INTER:                 -10.594
REMARK INTRA:                  -1.278
REMARK UNBOUND:                -1.957
REMARK  Name = 
REMARK  7 active torsions:
REMARK  status: ('A' for Active; 'I' for Inactive)
REMARK    1  A    between atoms: C_2  and  C_18
REMARK    2  A    between atoms: N_3  and  C_4
REMARK    3  A    between atoms: C_4  and  C_5
REMARK    4  A    between atoms: C_4  and  C_12
REMARK    5  A    between atoms: C_5  and  C_6
REMARK    6  A    between atoms: C_18  and  C_19
REMARK    7  A    between atoms: C_18  and  C_25
REMARK                            x       y       z     vdW  Elec       q    Type
REMARK                         _______ _______ _______ _____ _____    ______ ____
ROOT
ATOM      1  O   UNL     1      13.411  45.648  43.412  0.00  0.00    +0.000 OA
ATOM      2  C   UNL     1      14.025  45.600  44.477  0.00  0.00    +0.000 C 
ATOM      3  N   UNL     1      14.829  44.520  44.817  0.00  0.00    +0.000 N 
ATOM      4  H   UNL     1      15.091  44.436  45.791  0.00  0.00    +0.000 HD
ENDROOT
BRANCH   3   5
ATOM      5  C   UNL     1      14.794  43.286  44.042  0.00  0.00    +0.000 C 
BRANCH   5   6
ATOM      6  C   UNL     1      15.123  42.118  44.965  0.00  0.00    +0.000 A 
ATOM      7  C   UNL     1      14.705  42.160  46.306  0.00  0.00    +0.000 A 
ATOM      8  C   UNL     1      15.021  41.122  47.186  0.00  0.00    +0.000 A 
ATOM      9  C   UNL     1      15.765  40.033  46.741  0.00  0.00    +0.000 A 
ATOM     10  C   UNL     1      16.201  39.983  45.419  0.00  0.00    +0.000 A 
ATOM     11  C   UNL     1      15.888  41.020  44.538  0.00  0.00    +0.000 A 
ENDBRANCH   5   6
BRANCH   5  12
ATOM     12  C   UNL     1      15.744  43.350  42.823  0.00  0.00    +0.000 C 
BRANCH  12  13
ATOM     13  C   UNL     1      15.055  43.039  41.512  0.00  0.00    +0.000 A 
ATOM     14  C   UNL     1      14.681  41.726  41.196  0.00  0.00    +0.000 A 
ATOM     15  C   UNL     1      14.054  41.441  39.982  0.00  0.00    +0.000 A 
ATOM     16  C   UNL     1      13.799  42.465  39.071  0.00  0.00    +0.000 A 
ATOM     17  C   UNL     1      14.169  43.773  39.373  0.00  0.00    +0.000 A 
ATOM     18  C   UNL     1      14.794  44.061  40.588  0.00  0.00    +0.000 A 
ENDBRANCH  12  13
ENDBRANCH   5  12
ENDBRANCH   3   5
BRANCH   2  19
ATOM     19  C   UNL     1      14.016  46.720  45.544  0.00  0.00    +0.000 C 
BRANCH  19  20
ATOM     20  C   UNL     1      12.677  46.832  46.278  0.00  0.00    +0.000 A 
ATOM     21  C   UNL     1      12.027  45.670  46.723  0.00  0.00    +0.000 A 
ATOM     22  C   UNL     1      10.802  45.749  47.389  0.00  0.00    +0.000 A 
ATOM     23  C   UNL     1      10.215  46.989  47.625  0.00  0.00    +0.000 A 
ATOM     24  C   UNL     1      10.853  48.153  47.203  0.00  0.00    +0.000 A 
ATOM     25  C   UNL     1      12.080  48.078  46.541  0.00  0.00    +0.000 A 
ENDBRANCH  19  20
BRANCH  19  26
ATOM     26  C   UNL     1      14.505  48.076  45.043  0.00  0.00    +0.000 A 
ATOM     27  C   UNL     1      15.805  48.511  45.353  0.00  0.00    +0.000 A 
ATOM     28  C   UNL     1      16.261  49.761  44.928  0.00  0.00    +0.000 A 
ATOM     29  C   UNL     1      15.425  50.595  44.190  0.00  0.00    +0.000 A 
ATOM     30  C   UNL     1      14.133  50.181  43.878  0.00  0.00    +0.000 A 
ATOM     31  C   UNL     1      13.674  48.933  44.302  0.00  0.00    +0.000 A 
ENDBRANCH  19  26
ENDBRANCH   2  19
TORSDOF 7
ENDMDL
MODEL 2
REMARK VINA RESULT:    -6.661     12.461     16.344
REMARK INTER + INTRA:         -11.344
REMARK INTER:                  -9.387
REMARK INTRA:                  -1.957
REMARK UNBOUND:                -1.957
REMARK  Name = 
REMARK  7 active torsions:
REMARK  status: ('A' for Active; 'I' for Inactive)
REMARK    1  A    between atoms: C_2  and  C_18
REMARK    2  A    between atoms: N_3  and  C_4
REMARK    3  A    between atoms: C_4  and  C_5
REMARK    4  A    between atoms: C_4  and  C_12
REMARK    5  A    between atoms: C_5  and  C_6
REMARK    6  A    between atoms: C_18  and  C_19
REMARK    7  A    between atoms: C_18  and  C_25
REMARK                            x       y       z     vdW  Elec       q    Type
REMARK                         _______ _______ _______ _____ _____    ______ ____
ROOT
ATOM      1  O   UNL     1      22.623  31.923  50.270  0.00  0.00    +0.000 OA
ATOM      2  C   UNL     1      22.572  33.150  50.333  0.00  0.00    +0.000 C 
ATOM      3  N   UNL     1      23.193  33.863  51.351  0.00  0.00    +0.000 N 
ATOM      4  H   UNL     1      22.900  34.823  51.478  0.00  0.00    +0.000 HD
ENDROOT
BRANCH   3   5
ATOM      5  C   UNL     1      23.726  33.184  52.525  0.00  0.00    +0.000 C 
BRANCH   5   6
ATOM      6  C   UNL     1      22.992  33.692  53.761  0.00  0.00    +0.000 A 
ATOM      7  C   UNL     1      23.677  33.773  54.986  0.00  0.00    +0.000 A 
ATOM      8  C   UNL     1      23.024  34.201  56.143  0.00  0.00    +0.000 A 
ATOM      9  C   UNL     1      21.675  34.544  56.097  0.00  0.00    +0.000 A 
ATOM     10  C   UNL     1      20.977  34.453  54.895  0.00  0.00    +0.000 A 
ATOM     11  C   UNL     1      21.628  34.025  53.736  0.00  0.00    +0.000 A 
ENDBRANCH   5   6
BRANCH   5  12
ATOM     12  C   UNL     1      25.258  33.362  52.642  0.00  0.00    +0.000 C 
BRANCH  12  13
ATOM     13  C   UNL     1      26.005  32.948  51.393  0.00  0.00    +0.000 A 
ATOM     14  C   UNL     1      26.761  33.881  50.671  0.00  0.00    +0.000 A 
ATOM     15  C   UNL     1      27.442  33.498  49.514  0.00  0.00    +0.000 A 
ATOM     16  C   UNL     1      27.371  32.179  49.068  0.00  0.00    +0.000 A 
ATOM     17  C   UNL     1      26.620  31.244  49.776  0.00  0.00    +0.000 A 
ATOM     18  C   UNL     1      25.940  31.624  50.934  0.00  0.00    +0.000 A 
ENDBRANCH  12  13
ENDBRANCH   5  12
ENDBRANCH   3   5
BRANCH   2  19
ATOM     19  C   UNL     1      21.860  34.050  49.297  0.00  0.00    +0.000 C 
BRANCH  19  20
ATOM     20  C   UNL     1      22.832  34.720  48.322  0.00  0.00    +0.000 A 
ATOM     21  C   UNL     1      22.420  34.997  47.008  0.00  0.00    +0.000 A 
ATOM     22  C   UNL     1      23.293  35.600  46.101  0.00  0.00    +0.000 A 
ATOM     23  C   UNL     1      24.584  35.942  46.496  0.00  0.00    +0.000 A 
ATOM     24  C   UNL     1      25.003  35.687  47.799  0.00  0.00    +0.000 A 
ATOM     25  C   UNL     1      24.132  35.088  48.711  0.00  0.00    +0.000 A 
ENDBRANCH  19  20
BRANCH  19  26
ATOM     26  C   UNL     1      20.877  35.052  49.898  0.00  0.00    +0.000 A 
ATOM     27  C   UNL     1      19.553  35.101  49.429  0.00  0.00    +0.000 A 
ATOM     28  C   UNL     1      18.645  36.030  49.945  0.00  0.00    +0.000 A 
ATOM     29  C   UNL     1      19.049  36.923  50.934  0.00  0.00    +0.000 A 
ATOM     30  C   UNL     1      20.359  36.891  51.406  0.00  0.00    +0.000 A 
ATOM     31  C   UNL     1      21.267  35.965  50.891  0.00  0.00    +0.000 A 
ENDBRANCH  19  26
ENDBRANCH   2  19
TORSDOF 7
ENDMDL
MODEL 3
REMARK VINA RESULT:    -6.606      7.308     11.305
REMARK INTER + INTRA:         -11.267
REMARK INTER:                  -9.635
REMARK INTRA:                  -1.632
REMARK UNBOUND:                -1.957
REMARK  Name = 
REMARK  7 active torsions:
REMARK  status: ('A' for Active; 'I' for Inactive)
REMARK    1  A    between atoms: C_2  and  C_18
REMARK    2  A    between atoms: N_3  and  C_4
REMARK    3  A    between atoms: C_4  and  C_5
REMARK    4  A    between atoms: C_4  and  C_12
REMARK    5  A    between atoms: C_5  and  C_6
REMARK    6  A    between atoms: C_18  and  C_19
REMARK    7  A    between atoms: C_18  and  C_25
REMARK                            x       y       z     vdW  Elec       q    Type
REMARK                         _______ _______ _______ _____ _____    ______ ____
ROOT
ATOM      1  O   UNL     1      18.312  39.566  52.410  0.00  0.00    +0.000 OA
ATOM      2  C   UNL     1      17.128  39.234  52.403  0.00  0.00    +0.000 C 
ATOM      3  N   UNL     1      16.584  38.461  51.385  0.00  0.00    +0.000 N 
ATOM      4  H   UNL     1      15.575  38.444  51.317  0.00  0.00    +0.000 HD
ENDROOT
BRANCH   3   5
ATOM      5  C   UNL     1      17.326  38.212  50.156  0.00  0.00    +0.000 C 
BRANCH   5   6
ATOM      6  C   UNL     1      16.567  38.837  48.990  0.00  0.00    +0.000 A 
ATOM      7  C   UNL     1      17.107  38.761  47.695  0.00  0.00    +0.000 A 
ATOM      8  C   UNL     1      16.454  39.353  46.612  0.00  0.00    +0.000 A 
ATOM      9  C   UNL     1      15.258  40.039  46.809  0.00  0.00    +0.000 A 
ATOM     10  C   UNL     1      14.718  40.139  48.089  0.00  0.00    +0.000 A 
ATOM     11  C   UNL     1      15.369  39.548  49.173  0.00  0.00    +0.000 A 
ENDBRANCH   5   6
BRANCH   5  12
ATOM     12  C   UNL     1      17.584  36.702  49.940  0.00  0.00    +0.000 C 
BRANCH  12  13
ATOM     13  C   UNL     1      19.033  36.310  50.131  0.00  0.00    +0.000 A 
ATOM     14  C   UNL     1      19.738  36.716  51.271  0.00  0.00    +0.000 A 
ATOM     15  C   UNL     1      21.078  36.360  51.439  0.00  0.00    +0.000 A 
ATOM     16  C   UNL     1      21.725  35.599  50.466  0.00  0.00    +0.000 A 
ATOM     17  C   UNL     1      21.034  35.193  49.328  0.00  0.00    +0.000 A 
ATOM     18  C   UNL     1      19.694  35.546  49.158  0.00  0.00    +0.000 A 
ENDBRANCH  12  13
ENDBRANCH   5  12
ENDBRANCH   3   5
BRANCH   2  19
ATOM     19  C   UNL     1      16.113  39.590  53.515  0.00  0.00    +0.000 C 
BRANCH  19  20
ATOM     20  C   UNL     1      15.636  41.043  53.443  0.00  0.00    +0.000 A 
ATOM     21  C   UNL     1      16.513  42.042  52.990  0.00  0.00    +0.000 A 
ATOM     22  C   UNL     1      16.101  43.375  52.924  0.00  0.00    +0.000 A 
ATOM     23  C   UNL     1      14.807  43.725  53.301  0.00  0.00    +0.000 A 
ATOM     24  C   UNL     1      13.920  42.744  53.738  0.00  0.00    +0.000 A 
ATOM     25  C   UNL     1      14.327  41.411  53.802  0.00  0.00    +0.000 A 
ENDBRANCH  19  20
BRANCH  19  26
ATOM     26  C   UNL     1      16.555  39.206  54.924  0.00  0.00    +0.000 A 
ATOM     27  C   UNL     1      16.592  40.180  55.936  0.00  0.00    +0.000 A 
ATOM     28  C   UNL     1      17.022  39.856  57.226  0.00  0.00    +0.000 A 
ATOM     29  C   UNL     1      17.423  38.555  57.520  0.00  0.00    +0.000 A 
ATOM     30  C   UNL     1      17.397  37.579  56.527  0.00  0.00    +0.000 A 
ATOM     31  C   UNL     1      16.969  37.902  55.239  0.00  0.00    +0.000 A 
ENDBRANCH  19  26
ENDBRANCH   2  19
TORSDOF 7
ENDMDL
