MODEL 1
REMARK VINA RESULT:    -7.367      0.000      0.000
REMARK INTER + INTRA:          -8.565
REMARK INTER:                  -8.141
REMARK INTRA:                  -0.423
REMARK UNBOUND:                -0.336
REMARK  Name = 
REMARK  2 active torsions:
REMARK  status: ('A' for Active; 'I' for Inactive)
REMARK    1  A    between atoms: N_5  and  C_6
REMARK    2  A    between atoms: C_9  and  C_10
REMARK                            x       y       z     vdW  Elec       q    Type
REMARK                         _______ _______ _______ _____ _____    ______ ____
ROOT
ATOM      1  C   UNL     1      18.915  36.783  51.290  0.00  0.00    +0.000 A 
ATOM      2  C   UNL     1      17.732  36.357  50.659  0.00  0.00    +0.000 A 
ATOM      3  C   UNL     1      16.582  37.154  50.657  0.00  0.00    +0.000 A 
ATOM      4  C   UNL     1      16.596  38.397  51.288  0.00  0.00    +0.000 A 
ATOM      5  O   UNL     1      15.426  39.117  51.252  0.00  0.00    +0.000 OA
ATOM      6  C   UNL     1      15.402  40.342  51.875  0.00  0.00    +0.000 A 
ATOM      7  C   UNL     1      14.192  41.038  51.829  0.00  0.00    +0.000 A 
ATOM      8  C   UNL     1      14.086  42.293  52.435  0.00  0.00    +0.000 A 
ATOM      9  C   UNL     1      15.190  42.849  53.086  0.00  0.00    +0.000 A 
ATOM     10 CL   UNL     1      15.051  44.393  53.831  0.00  0.00    +0.000 Cl
ATOM     11  C   UNL     1      16.401  42.162  53.138  0.00  0.00    +0.000 A 
ATOM     12  C   UNL     1      16.496  40.906  52.530  0.00  0.00    +0.000 A 
ATOM     13  C   UNL     1      17.755  40.149  52.571  0.00  0.00    +0.000 A 
ATOM     14  O   UNL     1      18.748  40.593  53.133  0.00  0.00    +0.000 OA
ATOM     15  C   UNL     1      17.760  38.835  51.911  0.00  0.00    +0.000 A 
ATOM     16  C   UNL     1      18.913  38.040  51.915  0.00  0.00    +0.000 A 
ENDROOT
BRANCH   1  20
ATOM     17  C   UNL     1      22.463  34.281  51.331  0.00  0.00    +0.000 A 
ATOM     18  C   UNL     1      21.623  34.381  52.448  0.00  0.00    +0.000 A 
ATOM     19  C   UNL     1      20.474  35.190  52.434  0.00  0.00    +0.000 A 
ATOM     20  C   UNL     1      20.117  35.933  51.302  0.00  0.00    +0.000 A 
ATOM     21  C   UNL     1      20.946  35.834  50.181  0.00  0.00    +0.000 A 
ATOM     22  C   UNL     1      22.094  35.027  50.197  0.00  0.00    +0.000 A 
BRANCH  17  27
ATOM     23  O   UNL     1      27.136  31.531  51.030  0.00  0.00    +0.000 OA
ATOM     24  C   UNL     1      26.054  32.081  51.150  0.00  0.00    +0.000 A 
ATOM     25  C   UNL     1      25.889  33.498  50.722  0.00  0.00    +0.000 A 
ATOM     26  N   UNL     1      24.766  34.132  50.799  0.00  0.00    +0.000 NA
ATOM     27  N   UNL     1      23.654  33.464  51.305  0.00  0.00    +0.000 N 
ATOM     28  C   UNL     1      23.706  32.126  51.738  0.00  0.00    +0.000 A 
ATOM     29  O   UNL     1      22.781  31.444  52.177  0.00  0.00    +0.000 OA
ATOM     30  N   UNL     1      24.930  31.513  51.653  0.00  0.00    +0.000 N 
ATOM     31  H   UNL     1      24.972  30.549  51.946  0.00  0.00    +0.000 HD
ENDBRANCH  17  27
ENDBRANCH   1  20
TORSDOF 2
ENDMDL
MODEL 2
REMARK VINA RESULT:    -7.162      8.591     11.047
REMARK INTER + INTRA:          -8.336
REMARK INTER:                  -8.000
REMARK INTRA:                  -0.336
REMARK UNBOUND:                -0.336
REMARK  Name = 
REMARK  2 active torsions:
REMARK  status: ('A' for Active; 'I' for Inactive)
REMARK    1  A    between atoms: N_5  and  C_6
REMARK    2  A    between atoms: C_9  and  C_10
REMARK                            x       y       z     vdW  Elec       q    Type
REMARK                         _______ _______ _______ _____ _____    ______ ____
ROOT
ATOM      1  C   UNL     1      13.625  44.217  46.014  0.00  0.00    +0.000 A 
ATOM      2  C   UNL     1      12.353  44.177  46.616  0.00  0.00    +0.000 A 
ATOM      3  C   UNL     1      11.629  45.351  46.859  0.00  0.00    +0.000 A 
ATOM      4  C   UNL     1      12.165  46.587  46.502  0.00  0.00    +0.000 A 
ATOM      5  O   UNL     1      11.400  47.692  46.782  0.00  0.00    +0.000 OA
ATOM      6  C   UNL     1      11.904  48.928  46.454  0.00  0.00    +0.000 A 
ATOM      7  C   UNL     1      11.103  50.028  46.766  0.00  0.00    +0.000 A 
ATOM      8  C   UNL     1      11.542  51.320  46.461  0.00  0.00    +0.000 A 
ATOM      9  C   UNL     1      12.782  51.507  45.846  0.00  0.00    +0.000 A 
ATOM     10 CL   UNL     1      13.316  53.100  45.475  0.00  0.00    +0.000 Cl
ATOM     11  C   UNL     1      13.588  50.416  45.532  0.00  0.00    +0.000 A 
ATOM     12  C   UNL     1      13.140  49.128  45.842  0.00  0.00    +0.000 A 
ATOM     13  C   UNL     1      13.967  47.954  45.532  0.00  0.00    +0.000 A 
ATOM     14  O   UNL     1      15.063  48.068  44.997  0.00  0.00    +0.000 OA
ATOM     15  C   UNL     1      13.419  46.640  45.901  0.00  0.00    +0.000 A 
ATOM     16  C   UNL     1      14.147  45.469  45.656  0.00  0.00    +0.000 A 
ENDROOT
BRANCH   1  20
ATOM     17  C   UNL     1      15.883  40.574  45.317  0.00  0.00    +0.000 A 
ATOM     18  C   UNL     1      15.054  40.720  46.436  0.00  0.00    +0.000 A 
ATOM     19  C   UNL     1      14.322  41.899  46.662  0.00  0.00    +0.000 A 
ATOM     20  C   UNL     1      14.389  42.981  45.776  0.00  0.00    +0.000 A 
ATOM     21  C   UNL     1      15.209  42.842  44.652  0.00  0.00    +0.000 A 
ATOM     22  C   UNL     1      15.940  41.665  44.430  0.00  0.00    +0.000 A 
BRANCH  17  27
ATOM     23  O   UNL     1      18.666  36.130  43.906  0.00  0.00    +0.000 OA
ATOM     24  C   UNL     1      18.077  37.120  44.306  0.00  0.00    +0.000 A 
ATOM     25  C   UNL     1      17.391  38.020  43.337  0.00  0.00    +0.000 A 
ATOM     26  N   UNL     1      16.732  39.071  43.696  0.00  0.00    +0.000 NA
ATOM     27  N   UNL     1      16.653  39.382  45.050  0.00  0.00    +0.000 N 
ATOM     28  C   UNL     1      17.268  38.598  46.045  0.00  0.00    +0.000 A 
ATOM     29  O   UNL     1      17.239  38.774  47.262  0.00  0.00    +0.000 OA
ATOM     30  N   UNL     1      17.974  37.508  45.601  0.00  0.00    +0.000 N 
ATOM     31  H   UNL     1      18.403  36.932  46.309  0.00  0.00    +0.000 HD
ENDBRANCH  17  27
ENDBRANCH   1  20
TORSDOF 2
ENDMDL
MODEL 3
REMARK VINA RESULT:    -7.152     10.963     15.646
REMARK INTER + INTRA:          -8.324
REMARK INTER:                  -7.748
REMARK INTRA:                  -0.577
REMARK UNBOUND:                -0.336
REMARK  Name = 
REMARK  2 active torsions:
REMARK  status: ('A' for Active; 'I' for Inactive)
REMARK    1  A    between atoms: N_5  and  C_6
REMARK    2  A    between atoms: C_9  and  C_10
REMARK                            x       y       z     vdW  Elec       q    Type
REMARK                         _______ _______ _______ _____ _____    ______ ____
ROOT
ATOM      1  C   UNL     1      14.310  43.905  45.554  0.00  0.00    +0.000 A 
ATOM      2  C   UNL     1      14.252  42.990  46.621  0.00  0.00    +0.000 A 
ATOM      3  C   UNL     1      14.803  41.708  46.510  0.00  0.00    +0.000 A 
ATOM      4  C   UNL     1      15.427  41.319  45.325  0.00  0.00    +0.000 A 
ATOM      5  O   UNL     1      15.934  40.043  45.289  0.00  0.00    +0.000 OA
ATOM      6  C   UNL     1      16.545  39.623  44.132  0.00  0.00    +0.000 A 
ATOM      7  C   UNL     1      17.037  38.316  44.128  0.00  0.00    +0.000 A 
ATOM      8  C   UNL     1      17.675  37.814  42.991  0.00  0.00    +0.000 A 
ATOM      9  C   UNL     1      17.820  38.621  41.859  0.00  0.00    +0.000 A 
ATOM     10 CL   UNL     1      18.606  37.995  40.463  0.00  0.00    +0.000 Cl
ATOM     11  C   UNL     1      17.332  39.925  41.853  0.00  0.00    +0.000 A 
ATOM     12  C   UNL     1      16.694  40.417  42.995  0.00  0.00    +0.000 A 
ATOM     13  C   UNL     1      16.160  41.786  43.023  0.00  0.00    +0.000 A 
ATOM     14  O   UNL     1      16.259  42.529  42.055  0.00  0.00    +0.000 OA
ATOM     15  C   UNL     1      15.498  42.215  44.264  0.00  0.00    +0.000 A 
ATOM     16  C   UNL     1      14.948  43.499  44.371  0.00  0.00    +0.000 A 
ENDROOT
BRANCH   1  20
ATOM     17  C   UNL     1      12.546  47.857  45.896  0.00  0.00    +0.000 A 
ATOM     18  C   UNL     1      12.036  46.762  46.606  0.00  0.00    +0.000 A 
ATOM     19  C   UNL     1      12.608  45.483  46.496  0.00  0.00    +0.000 A 
ATOM     20  C   UNL     1      13.715  45.246  45.672  0.00  0.00    +0.000 A 
ATOM     21  C   UNL     1      14.234  46.335  44.964  0.00  0.00    +0.000 A 
ATOM     22  C   UNL     1      13.660  47.611  45.074  0.00  0.00    +0.000 A 
BRANCH  17  27
ATOM     23  O   UNL     1      10.787  52.967  46.428  0.00  0.00    +0.000 OA
ATOM     24  C   UNL     1      11.112  51.805  46.253  0.00  0.00    +0.000 A 
ATOM     25  C   UNL     1      12.448  51.329  46.707  0.00  0.00    +0.000 A 
ATOM     26  N   UNL     1      12.844  50.107  46.573  0.00  0.00    +0.000 NA
ATOM     27  N   UNL     1      11.986  49.186  45.979  0.00  0.00    +0.000 N 
ATOM     28  C   UNL     1      10.704  49.536  45.514  0.00  0.00    +0.000 A 
ATOM     29  O   UNL     1       9.867  48.796  44.998  0.00  0.00    +0.000 OA
ATOM     30  N   UNL     1      10.348  50.852  45.662  0.00  0.00    +0.000 N 
ATOM     31  H   UNL     1       9.425  51.107  45.347  0.00  0.00    +0.000 HD
ENDBRANCH  17  27
ENDBRANCH   1  20
TORSDOF 2
ENDMDL
