MODEL 1
REMARK VINA RESULT:    -6.903      0.000      0.000
REMARK INTER + INTRA:         -10.630
REMARK INTER:                  -8.317
REMARK INTRA:                  -2.313
REMARK UNBOUND:                -1.306
REMARK  Name = 
REMARK  8 active torsions:
REMARK  status: ('A' for Active; 'I' for Inactive)
REMARK    1  A    between atoms: C_1  and  C_2
REMARK    2  A    between atoms: C_2  and  C_3
REMARK    3  A    between atoms: C_2  and  O_4
REMARK    4  A    between atoms: O_4  and  C_5
REMARK    5  A    between atoms: C_8  and  N_9
REMARK    6  A    between atoms: C_10  and  C_11
REMARK    7  A    between atoms: C_11  and  C_12
REMARK    8  A    between atoms: C_12  and  C_13
REMARK                            x       y       z     vdW  Elec       q    Type
REMARK                         _______ _______ _______ _____ _____    ______ ____
ROOT
ATOM      1  N   UNL     1      15.911  40.642  44.831  0.00  0.00    +0.000 N 
ATOM      2  C   UNL     1      15.558  40.872  46.156  0.00  0.00    +0.000 A 
ATOM      3  N   UNL     1      15.942  40.118  47.141  0.00  0.00    +0.000 NA
ATOM      4  C   UNL     1      16.697  38.978  46.873  0.00  0.00    +0.000 A 
ATOM      5  C   UNL     1      17.117  38.181  47.941  0.00  0.00    +0.000 A 
ATOM      6  C   UNL     1      17.848  37.012  47.713  0.00  0.00    +0.000 A 
ATOM      7  C   UNL     1      18.160  36.627  46.410  0.00  0.00    +0.000 A 
ATOM      8  C   UNL     1      17.741  37.414  45.337  0.00  0.00    +0.000 A 
ATOM      9  C   UNL     1      17.010  38.586  45.579  0.00  0.00    +0.000 A 
ATOM     10  C   UNL     1      16.575  39.457  44.472  0.00  0.00    +0.000 A 
ATOM     11  O   UNL     1      16.851  39.103  43.327  0.00  0.00    +0.000 OA
ENDROOT
BRANCH   1  15
ATOM     12  C   UNL     1      15.195  43.474  41.732  0.00  0.00    +0.000 A 
ATOM     13  C   UNL     1      16.105  43.755  42.747  0.00  0.00    +0.000 A 
ATOM     14  C   UNL     1      16.341  42.820  43.765  0.00  0.00    +0.000 A 
ATOM     15  C   UNL     1      15.661  41.595  43.792  0.00  0.00    +0.000 A 
ATOM     16  C   UNL     1      14.772  41.307  42.750  0.00  0.00    +0.000 A 
ATOM     17  C   UNL     1      14.538  42.242  41.738  0.00  0.00    +0.000 A 
BRANCH  12  18
ATOM     18  O   UNL     1      14.870  44.282  40.681  0.00  0.00    +0.000 OA
BRANCH  18  20
ATOM     19  C   UNL     1      14.357  43.409  38.535  0.00  0.00    +0.000 C 
ATOM     20  C   UNL     1      13.764  43.936  39.840  0.00  0.00    +0.000 C 
ATOM     21  C   UNL     1      12.912  45.171  39.563  0.00  0.00    +0.000 C 
ENDBRANCH  18  20
ENDBRANCH  12  18
ENDBRANCH   1  15
BRANCH   2  22
ATOM     22  C   UNL     1      14.597  41.998  46.541  0.00  0.00    +0.000 C 
BRANCH  22  23
ATOM     23  C   UNL     1      13.122  41.650  46.323  0.00  0.00    +0.000 C 
BRANCH  23  24
ATOM     24  C   UNL     1      12.491  42.379  45.178  0.00  0.00    +0.000 A 
ATOM     25  C   UNL     1      11.561  41.861  44.298  0.00  0.00    +0.000 A 
ATOM     26  N   UNL     1      11.214  42.842  43.410  0.00  0.00    +0.000 N 
ATOM     27  C   UNL     1      11.907  43.997  43.681  0.00  0.00    +0.000 A 
ATOM     28  C   UNL     1      11.870  45.241  43.039  0.00  0.00    +0.000 A 
ATOM     29  C   UNL     1      12.691  46.255  43.542  0.00  0.00    +0.000 A 
ATOM     30  C   UNL     1      13.513  46.022  44.641  0.00  0.00    +0.000 A 
ATOM     31 BR   UNL     1      14.609  47.418  45.298  0.00  0.00    +0.000 Br
ATOM     32  C   UNL     1      13.543  44.775  45.274  0.00  0.00    +0.000 A 
ATOM     33  C   UNL     1      12.721  43.738  44.785  0.00  0.00    +0.000 A 
ATOM     34  H   UNL     1      10.544  42.738  42.660  0.00  0.00    +0.000 HD
ENDBRANCH  23  24
ENDBRANCH  22  23
ENDBRANCH   2  22
TORSDOF 6
ENDMDL
MODEL 2
REMARK VINA RESULT:    -6.837      1.822      2.514
REMARK INTER + INTRA:         -10.540
REMARK INTER:                  -9.122
REMARK INTRA:                  -1.419
REMARK UNBOUND:                -1.306
REMARK  Name = 
REMARK  8 active torsions:
REMARK  status: ('A' for Active; 'I' for Inactive)
REMARK    1  A    between atoms: C_1  and  C_2
REMARK    2  A    between atoms: C_2  and  C_3
REMARK    3  A    between atoms: C_2  and  O_4
REMARK    4  A    between atoms: O_4  and  C_5
REMARK    5  A    between atoms: C_8  and  N_9
REMARK    6  A    between atoms: C_10  and  C_11
REMARK    7  A    between atoms: C_11  and  C_12
REMARK    8  A    between atoms: C_12  and  C_13
REMARK                            x       y       z     vdW  Elec       q    Type
REMARK                         _______ _______ _______ _____ _____    ______ ____
ROOT
ATOM      1  N   UNL     1      15.059  41.061  43.749  0.00  0.00    +0.000 N 
ATOM      2  C   UNL     1      14.785  41.451  45.054  0.00  0.00    +0.000 A 
ATOM      3  N   UNL     1      15.319  40.892  46.097  0.00  0.00    +0.000 NA
ATOM      4  C   UNL     1      16.167  39.800  45.925  0.00  0.00    +0.000 A 
ATOM      5  C   UNL     1      16.747  39.213  47.053  0.00  0.00    +0.000 A 
ATOM      6  C   UNL     1      17.578  38.096  46.927  0.00  0.00    +0.000 A 
ATOM      7  C   UNL     1      17.830  37.553  45.669  0.00  0.00    +0.000 A 
ATOM      8  C   UNL     1      17.251  38.130  44.538  0.00  0.00    +0.000 A 
ATOM      9  C   UNL     1      16.421  39.251  44.677  0.00  0.00    +0.000 A 
ATOM     10  C   UNL     1      15.815  39.904  43.502  0.00  0.00    +0.000 A 
ATOM     11  O   UNL     1      16.041  39.410  42.398  0.00  0.00    +0.000 OA
ENDROOT
BRANCH   1  15
ATOM     12  C   UNL     1      13.769  43.334  40.387  0.00  0.00    +0.000 A 
ATOM     13  C   UNL     1      12.995  42.280  40.863  0.00  0.00    +0.000 A 
ATOM     14  C   UNL     1      13.420  41.535  41.972  0.00  0.00    +0.000 A 
ATOM     15  C   UNL     1      14.633  41.822  42.613  0.00  0.00    +0.000 A 
ATOM     16  C   UNL     1      15.389  42.904  42.147  0.00  0.00    +0.000 A 
ATOM     17  C   UNL     1      14.963  43.644  41.040  0.00  0.00    +0.000 A 
BRANCH  12  18
ATOM     18  O   UNL     1      13.480  44.144  39.326  0.00  0.00    +0.000 OA
BRANCH  18  20
ATOM     19  C   UNL     1      14.190  42.966  37.392  0.00  0.00    +0.000 C 
ATOM     20  C   UNL     1      12.985  43.568  38.113  0.00  0.00    +0.000 C 
ATOM     21  C   UNL     1      12.346  44.649  37.245  0.00  0.00    +0.000 C 
ENDBRANCH  18  20
ENDBRANCH  12  18
ENDBRANCH   1  15
BRANCH   2  22
ATOM     22  C   UNL     1      13.741  42.528  45.362  0.00  0.00    +0.000 C 
BRANCH  22  23
ATOM     23  C   UNL     1      14.346  43.896  45.687  0.00  0.00    +0.000 C 
BRANCH  23  24
ATOM     24  C   UNL     1      13.332  44.933  46.058  0.00  0.00    +0.000 A 
ATOM     25  C   UNL     1      12.100  44.695  46.634  0.00  0.00    +0.000 A 
ATOM     26  N   UNL     1      11.479  45.896  46.838  0.00  0.00    +0.000 N 
ATOM     27  C   UNL     1      12.276  46.925  46.396  0.00  0.00    +0.000 A 
ATOM     28  C   UNL     1      12.051  48.307  46.406  0.00  0.00    +0.000 A 
ATOM     29  C   UNL     1      13.055  49.132  45.890  0.00  0.00    +0.000 A 
ATOM     30  C   UNL     1      14.232  48.585  45.386  0.00  0.00    +0.000 A 
ATOM     31 BR   UNL     1      15.572  49.731  44.699  0.00  0.00    +0.000 Br
ATOM     32  C   UNL     1      14.446  47.203  45.380  0.00  0.00    +0.000 A 
ATOM     33  C   UNL     1      13.447  46.352  45.897  0.00  0.00    +0.000 A 
ATOM     34  H   UNL     1      10.565  46.018  47.253  0.00  0.00    +0.000 HD
ENDBRANCH  23  24
ENDBRANCH  22  23
ENDBRANCH   2  22
TORSDOF 6
ENDMDL
MODEL 3
REMARK VINA RESULT:    -6.781      5.240      8.154
REMARK INTER + INTRA:         -10.466
REMARK INTER:                  -9.160
REMARK INTRA:                  -1.306
REMARK UNBOUND:                -1.306
REMARK  Name = 
REMARK  8 active torsions:
REMARK  status: ('A' for Active; 'I' for Inactive)
REMARK    1  A    between atoms: C_1  and  C_2
REMARK    2  A    between atoms: C_2  and  C_3
REMARK    3  A    between atoms: C_2  and  O_4
REMARK    4  A    between atoms: O_4  and  C_5
REMARK    5  A    between atoms: C_8  and  N_9
REMARK    6  A    between atoms: C_10  and  C_11
REMARK    7  A    between atoms: C_11  and  C_12
REMARK    8  A    between atoms: C_12  and  C_13
REMARK                            x       y       z     vdW  Elec       q    Type
REMARK                         _______ _______ _______ _____ _____    ______ ____
ROOT
ATOM      1  N   UNL     1      16.525  39.614  51.154  0.00  0.00    +0.000 N 
ATOM      2  C   UNL     1      16.106  39.279  49.872  0.00  0.00    +0.000 A 
ATOM      3  N   UNL     1      16.606  38.295  49.188  0.00  0.00    +0.000 NA
ATOM      4  C   UNL     1      17.662  37.561  49.723  0.00  0.00    +0.000 A 
ATOM      5  C   UNL     1      18.184  36.495  48.986  0.00  0.00    +0.000 A 
ATOM      6  C   UNL     1      19.265  35.753  49.473  0.00  0.00    +0.000 A 
ATOM      7  C   UNL     1      19.836  36.078  50.702  0.00  0.00    +0.000 A 
ATOM      8  C   UNL     1      19.324  37.143  51.443  0.00  0.00    +0.000 A 
ATOM      9  C   UNL     1      18.239  37.878  50.945  0.00  0.00    +0.000 A 
ATOM     10  C   UNL     1      17.653  38.992  51.713  0.00  0.00    +0.000 A 
ATOM     11  O   UNL     1      18.171  39.272  52.793  0.00  0.00    +0.000 OA
ENDROOT
BRANCH   1  15
ATOM     12  C   UNL     1      14.425  42.431  53.560  0.00  0.00    +0.000 A 
ATOM     13  C   UNL     1      15.531  42.828  52.813  0.00  0.00    +0.000 A 
ATOM     14  C   UNL     1      16.219  41.899  52.020  0.00  0.00    +0.000 A 
ATOM     15  C   UNL     1      15.821  40.556  51.971  0.00  0.00    +0.000 A 
ATOM     16  C   UNL     1      14.689  40.173  52.699  0.00  0.00    +0.000 A 
ATOM     17  C   UNL     1      14.006  41.101  53.491  0.00  0.00    +0.000 A 
BRANCH  12  18
ATOM     18  O   UNL     1      13.660  43.222  54.369  0.00  0.00    +0.000 OA
BRANCH  18  20
ATOM     19  C   UNL     1      11.867  44.643  53.737  0.00  0.00    +0.000 C 
ATOM     20  C   UNL     1      12.238  43.236  54.202  0.00  0.00    +0.000 C 
ATOM     21  C   UNL     1      11.554  42.930  55.531  0.00  0.00    +0.000 C 
ENDBRANCH  18  20
ENDBRANCH  12  18
ENDBRANCH   1  15
BRANCH   2  22
ATOM     22  C   UNL     1      15.069  40.123  49.126  0.00  0.00    +0.000 C 
BRANCH  22  23
ATOM     23  C   UNL     1      14.903  39.734  47.655  0.00  0.00    +0.000 C 
BRANCH  23  24
ATOM     24  C   UNL     1      15.109  40.870  46.702  0.00  0.00    +0.000 A 
ATOM     25  C   UNL     1      14.801  42.196  46.939  0.00  0.00    +0.000 A 
ATOM     26  N   UNL     1      15.157  42.925  45.838  0.00  0.00    +0.000 N 
ATOM     27  C   UNL     1      15.685  42.102  44.872  0.00  0.00    +0.000 A 
ATOM     28  C   UNL     1      16.178  42.410  43.597  0.00  0.00    +0.000 A 
ATOM     29  C   UNL     1      16.668  41.357  42.820  0.00  0.00    +0.000 A 
ATOM     30  C   UNL     1      16.660  40.053  43.307  0.00  0.00    +0.000 A 
ATOM     31 BR   UNL     1      17.335  38.651  42.229  0.00  0.00    +0.000 Br
ATOM     32  C   UNL     1      16.164  39.756  44.581  0.00  0.00    +0.000 A 
ATOM     33  C   UNL     1      15.666  40.803  45.384  0.00  0.00    +0.000 A 
ATOM     34  H   UNL     1      15.049  43.925  45.741  0.00  0.00    +0.000 HD
ENDBRANCH  23  24
ENDBRANCH  22  23
ENDBRANCH   2  22
TORSDOF 6
ENDMDL
