MODEL 1
REMARK VINA RESULT:    -6.470      0.000      0.000
REMARK INTER + INTRA:          -9.075
REMARK INTER:                  -8.504
REMARK INTRA:                  -0.571
REMARK UNBOUND:                -0.714
REMARK  Name = 
REMARK  5 active torsions:
REMARK  status: ('A' for Active; 'I' for Inactive)
REMARK    1  A    between atoms: C_4  and  C_5
REMARK    2  A    between atoms: C_5  and  N_6
REMARK    3  A    between atoms: N_6  and  C_7
REMARK    4  A    between atoms: C_9  and  C_10
REMARK    5  A    between atoms: C_10  and  C_11
REMARK                            x       y       z     vdW  Elec       q    Type
REMARK                         _______ _______ _______ _____ _____    ______ ____
ROOT
ATOM      1  C   UNL     1      17.444  38.195  53.305  0.00  0.00    +0.000 A 
ATOM      2  N   UNL     1      17.213  39.284  52.546  0.00  0.00    +0.000 NA
ATOM      3  C   UNL     1      16.928  40.461  53.142  0.00  0.00    +0.000 A 
ATOM      4  N   UNL     1      16.857  40.676  54.464  0.00  0.00    +0.000 NA
ATOM      5  C   UNL     1      17.057  39.577  55.228  0.00  0.00    +0.000 A 
ATOM      6  C   UNL     1      16.996  39.560  56.653  0.00  0.00    +0.000 A 
ATOM      7  C   UNL     1      17.222  38.307  57.173  0.00  0.00    +0.000 A 
ATOM      8  S   UNL     1      17.505  37.152  55.949  0.00  0.00    +0.000 S 
ATOM      9  C   UNL     1      17.347  38.325  54.695  0.00  0.00    +0.000 A 
ENDROOT
BRANCH   1  10
ATOM     10  N   UNL     1      17.718  37.009  52.610  0.00  0.00    +0.000 N 
ATOM     11  H   UNL     1      16.912  36.414  52.801  0.00  0.00    +0.000 HD
BRANCH  10  12
ATOM     12  C   UNL     1      17.825  37.220  51.170  0.00  0.00    +0.000 C 
BRANCH  12  16
ATOM     13  C   UNL     1      21.431  35.317  49.750  0.00  0.00    +0.000 A 
ATOM     14  C   UNL     1      21.432  35.995  50.968  0.00  0.00    +0.000 A 
ATOM     15  C   UNL     1      20.266  36.610  51.424  0.00  0.00    +0.000 A 
ATOM     16  C   UNL     1      19.087  36.556  50.665  0.00  0.00    +0.000 A 
ATOM     17  C   UNL     1      19.097  35.863  49.447  0.00  0.00    +0.000 A 
ATOM     18  C   UNL     1      20.264  35.248  48.991  0.00  0.00    +0.000 A 
ENDBRANCH  12  16
ENDBRANCH  10  12
ENDBRANCH   1  10
BRANCH   3  19
ATOM     19  C   UNL     1      16.665  41.641  52.236  0.00  0.00    +0.000 C 
BRANCH  19  20
ATOM     20  C   UNL     1      15.599  42.577  52.761  0.00  0.00    +0.000 A 
ATOM     21  C   UNL     1      15.912  43.909  53.067  0.00  0.00    +0.000 A 
ATOM     22  C   UNL     1      14.926  44.776  53.538  0.00  0.00    +0.000 A 
ATOM     23  C   UNL     1      13.618  44.324  53.702  0.00  0.00    +0.000 A 
ATOM     24  C   UNL     1      13.294  43.005  53.390  0.00  0.00    +0.000 A 
ATOM     25  C   UNL     1      14.278  42.135  52.919  0.00  0.00    +0.000 A 
ENDBRANCH  19  20
ENDBRANCH   3  19
TORSDOF 5
ENDMDL
MODEL 2
REMARK VINA RESULT:    -6.181      3.062      6.631
REMARK INTER + INTRA:          -8.702
REMARK INTER:                  -7.674
REMARK INTRA:                  -1.028
REMARK UNBOUND:                -0.714
REMARK  Name = 
REMARK  5 active torsions:
REMARK  status: ('A' for Active; 'I' for Inactive)
REMARK    1  A    between atoms: C_4  and  C_5
REMARK    2  A    between atoms: C_5  and  N_6
REMARK    3  A    between atoms: N_6  and  C_7
REMARK    4  A    between atoms: C_9  and  C_10
REMARK    5  A    between atoms: C_10  and  C_11
REMARK                            x       y       z     vdW  Elec       q    Type
REMARK                         _______ _______ _______ _____ _____    ______ ____
ROOT
ATOM      1  C   UNL     1      17.560  37.072  53.854  0.00  0.00    +0.000 A 
ATOM      2  N   UNL     1      18.118  35.934  54.313  0.00  0.00    +0.000 NA
ATOM      3  C   UNL     1      18.315  35.778  55.639  0.00  0.00    +0.000 A 
ATOM      4  N   UNL     1      17.992  36.666  56.591  0.00  0.00    +0.000 NA
ATOM      5  C   UNL     1      17.461  37.823  56.131  0.00  0.00    +0.000 A 
ATOM      6  C   UNL     1      17.075  38.920  56.956  0.00  0.00    +0.000 A 
ATOM      7  C   UNL     1      16.580  39.976  56.227  0.00  0.00    +0.000 A 
ATOM      8  S   UNL     1      16.582  39.648  54.552  0.00  0.00    +0.000 S 
ATOM      9  C   UNL     1      17.233  38.068  54.781  0.00  0.00    +0.000 A 
ENDROOT
BRANCH   1  10
ATOM     10  N   UNL     1      17.404  37.162  52.464  0.00  0.00    +0.000 N 
ATOM     11  H   UNL     1      16.533  37.678  52.343  0.00  0.00    +0.000 HD
BRANCH  10  12
ATOM     12  C   UNL     1      18.490  37.900  51.828  0.00  0.00    +0.000 C 
BRANCH  12  16
ATOM     13  C   UNL     1      21.004  35.143  49.657  0.00  0.00    +0.000 A 
ATOM     14  C   UNL     1      19.724  35.435  49.192  0.00  0.00    +0.000 A 
ATOM     15  C   UNL     1      18.912  36.326  49.896  0.00  0.00    +0.000 A 
ATOM     16  C   UNL     1      19.373  36.931  51.075  0.00  0.00    +0.000 A 
ATOM     17  C   UNL     1      20.667  36.636  51.528  0.00  0.00    +0.000 A 
ATOM     18  C   UNL     1      21.477  35.744  50.823  0.00  0.00    +0.000 A 
ENDBRANCH  12  16
ENDBRANCH  10  12
ENDBRANCH   1  10
BRANCH   3  19
ATOM     19  C   UNL     1      18.957  34.487  56.089  0.00  0.00    +0.000 C 
BRANCH  19  20
ATOM     20  C   UNL     1      20.421  34.384  55.725  0.00  0.00    +0.000 A 
ATOM     21  C   UNL     1      21.410  34.546  56.705  0.00  0.00    +0.000 A 
ATOM     22  C   UNL     1      22.761  34.438  56.372  0.00  0.00    +0.000 A 
ATOM     23  C   UNL     1      23.135  34.159  55.059  0.00  0.00    +0.000 A 
ATOM     24  C   UNL     1      22.160  33.985  54.079  0.00  0.00    +0.000 A 
ATOM     25  C   UNL     1      20.809  34.093  54.409  0.00  0.00    +0.000 A 
ENDBRANCH  19  20
ENDBRANCH   3  19
TORSDOF 5
ENDMDL
MODEL 3
REMARK VINA RESULT:    -5.891      9.848     11.381
REMARK INTER + INTRA:          -8.326
REMARK INTER:                  -7.613
REMARK INTRA:                  -0.714
REMARK UNBOUND:                -0.714
REMARK  Name = 
REMARK  5 active torsions:
REMARK  status: ('A' for Active; 'I' for Inactive)
REMARK    1  A    between atoms: C_4  and  C_5
REMARK    2  A    between atoms: C_5  and  N_6
REMARK    3  A    between atoms: N_6  and  C_7
REMARK    4  A    between atoms: C_9  and  C_10
REMARK    5  A    between atoms: C_10  and  C_11
REMARK                            x       y       z     vdW  Elec       q    Type
REMARK                         _______ _______ _______ _____ _____    ______ ____
ROOT
ATOM      1  C   UNL     1      15.168  43.660  43.410  0.00  0.00    +0.000 A 
ATOM      2  N   UNL     1      14.825  44.348  44.517  0.00  0.00    +0.000 NA
ATOM      3  C   UNL     1      13.791  45.213  44.469  0.00  0.00    +0.000 A 
ATOM      4  N   UNL     1      13.027  45.466  43.395  0.00  0.00    +0.000 NA
ATOM      5  C   UNL     1      13.389  44.802  42.273  0.00  0.00    +0.000 A 
ATOM      6  C   UNL     1      12.745  44.938  41.008  0.00  0.00    +0.000 A 
ATOM      7  C   UNL     1      13.327  44.159  40.036  0.00  0.00    +0.000 A 
ATOM      8  S   UNL     1      14.647  43.265  40.644  0.00  0.00    +0.000 S 
ATOM      9  C   UNL     1      14.447  43.899  42.235  0.00  0.00    +0.000 A 
ENDROOT
BRANCH   1  10
ATOM     10  N   UNL     1      16.262  42.794  43.540  0.00  0.00    +0.000 N 
ATOM     11  H   UNL     1      16.920  43.306  44.126  0.00  0.00    +0.000 HD
BRANCH  10  12
ATOM     12  C   UNL     1      15.905  41.543  44.201  0.00  0.00    +0.000 C 
BRANCH  12  16
ATOM     13  C   UNL     1      17.781  38.271  42.100  0.00  0.00    +0.000 A 
ATOM     14  C   UNL     1      17.674  39.521  41.493  0.00  0.00    +0.000 A 
ATOM     15  C   UNL     1      17.066  40.577  42.173  0.00  0.00    +0.000 A 
ATOM     16  C   UNL     1      16.557  40.392  43.468  0.00  0.00    +0.000 A 
ATOM     17  C   UNL     1      16.679  39.132  44.071  0.00  0.00    +0.000 A 
ATOM     18  C   UNL     1      17.287  38.077  43.389  0.00  0.00    +0.000 A 
ENDBRANCH  12  16
ENDBRANCH  10  12
ENDBRANCH   1  10
BRANCH   3  19
ATOM     19  C   UNL     1      13.465  45.964  45.739  0.00  0.00    +0.000 C 
BRANCH  19  20
ATOM     20  C   UNL     1      13.631  47.461  45.612  0.00  0.00    +0.000 A 
ATOM     21  C   UNL     1      12.606  48.326  46.019  0.00  0.00    +0.000 A 
ATOM     22  C   UNL     1      12.765  49.709  45.915  0.00  0.00    +0.000 A 
ATOM     23  C   UNL     1      13.950  50.240  45.411  0.00  0.00    +0.000 A 
ATOM     24  C   UNL     1      14.980  49.389  45.015  0.00  0.00    +0.000 A 
ATOM     25  C   UNL     1      14.825  48.006  45.117  0.00  0.00    +0.000 A 
ENDBRANCH  19  20
ENDBRANCH   3  19
TORSDOF 5
ENDMDL
