MODEL 1
REMARK VINA RESULT:    -6.786      0.000      0.000
REMARK INTER + INTRA:         -10.142
REMARK INTER:                  -8.498
REMARK INTRA:                  -1.644
REMARK UNBOUND:                -1.769
REMARK  Name = 
REMARK  6 active torsions:
REMARK  status: ('A' for Active; 'I' for Inactive)
REMARK    1  A    between atoms: C_1  and  C_2
REMARK    2  A    between atoms: C_6  and  C_7
REMARK    3  A    between atoms: N_9  and  C_10
REMARK    4  A    between atoms: C_16  and  C_17
REMARK    5  A    between atoms: N_19  and  C_20
REMARK    6  A    between atoms: C_26  and  C_27
REMARK                            x       y       z     vdW  Elec       q    Type
REMARK                         _______ _______ _______ _____ _____    ______ ____
ROOT
ATOM      1  C   UNL     1      13.125  40.438  47.199  0.00  0.00    +0.000 C 
ATOM      2  C   UNL     1      12.749  40.295  48.691  0.00  0.00    +0.000 C 
ATOM      3  O   UNL     1      11.608  40.493  49.112  0.00  0.00    +0.000 OA
ATOM      4  N   UNL     1      13.772  40.124  49.598  0.00  0.00    +0.000 N 
ATOM      5  C   UNL     1      15.021  39.722  49.174  0.00  0.00    +0.000 A 
ATOM      6  C   UNL     1      15.311  39.374  47.874  0.00  0.00    +0.000 A 
ATOM      7  C   UNL     1      16.581  38.757  47.951  0.00  0.00    +0.000 A 
ATOM      8  C   UNL     1      17.353  38.059  46.889  0.00  0.00    +0.000 C 
ATOM      9  N   UNL     1      17.082  38.811  49.189  0.00  0.00    +0.000 NA
ATOM     10  N   UNL     1      16.156  39.474  49.939  0.00  0.00    +0.000 N 
ATOM     11  C   UNL     1      14.289  39.494  46.786  0.00  0.00    +0.000 C 
ATOM     12  H   UNL     1      13.501  40.092  50.575  0.00  0.00    +0.000 HD
ENDROOT
BRANCH  11  13
ATOM     13  C   UNL     1      14.986  39.878  45.488  0.00  0.00    +0.000 A 
ATOM     14  C   UNL     1      15.714  41.073  45.330  0.00  0.00    +0.000 A 
ATOM     15  C   UNL     1      16.309  41.395  44.108  0.00  0.00    +0.000 A 
ATOM     16  C   UNL     1      16.172  40.530  43.032  0.00  0.00    +0.000 A 
ATOM     17  F   UNL     1      16.744  40.840  41.861  0.00  0.00    +0.000 F 
ATOM     18  C   UNL     1      15.450  39.352  43.152  0.00  0.00    +0.000 A 
ATOM     19  C   UNL     1      14.855  39.028  44.373  0.00  0.00    +0.000 A 
ENDBRANCH  11  13
BRANCH  10  20
ATOM     20  C   UNL     1      16.445  39.823  51.302  0.00  0.00    +0.000 A 
ATOM     21  C   UNL     1      17.763  39.974  51.732  0.00  0.00    +0.000 A 
ATOM     22  C   UNL     1      18.004  40.313  53.064  0.00  0.00    +0.000 A 
ATOM     23  C   UNL     1      16.935  40.481  53.935  0.00  0.00    +0.000 A 
ATOM     24  C   UNL     1      15.659  40.291  53.440  0.00  0.00    +0.000 A 
ATOM     25  N   UNL     1      15.396  39.962  52.158  0.00  0.00    +0.000 NA
ENDBRANCH  10  20
BRANCH   1  28
ATOM     26  C   UNL     1      12.503  42.648  46.260  0.00  0.00    +0.000 C 
ATOM     27  O   UNL     1      11.477  42.213  45.752  0.00  0.00    +0.000 OA
ATOM     28  N   UNL     1      13.380  41.868  46.982  0.00  0.00    +0.000 N 
ATOM     29  H   UNL     1      14.127  42.304  47.504  0.00  0.00    +0.000 HD
BRANCH  26  35
ATOM     30  C   UNL     1      11.193  47.408  47.023  0.00  0.00    +0.000 C 
ATOM     31  C   UNL     1      12.197  46.407  46.537  0.00  0.00    +0.000 A 
ATOM     32  C   UNL     1      13.392  46.827  45.940  0.00  0.00    +0.000 A 
ATOM     33  C   UNL     1      14.305  45.894  45.449  0.00  0.00    +0.000 A 
ATOM     34  C   UNL     1      14.035  44.527  45.547  0.00  0.00    +0.000 A 
ATOM     35  C   UNL     1      12.845  44.093  46.141  0.00  0.00    +0.000 A 
ATOM     36  C   UNL     1      11.923  45.035  46.618  0.00  0.00    +0.000 A 
ENDBRANCH  26  35
ENDBRANCH   1  28
TORSDOF 4
ENDMDL
MODEL 2
REMARK VINA RESULT:    -6.338      3.657      6.480
REMARK INTER + INTRA:          -9.589
REMARK INTER:                  -8.023
REMARK INTRA:                  -1.567
REMARK UNBOUND:                -1.769
REMARK  Name = 
REMARK  6 active torsions:
REMARK  status: ('A' for Active; 'I' for Inactive)
REMARK    1  A    between atoms: C_1  and  C_2
REMARK    2  A    between atoms: C_6  and  C_7
REMARK    3  A    between atoms: N_9  and  C_10
REMARK    4  A    between atoms: C_16  and  C_17
REMARK    5  A    between atoms: N_19  and  C_20
REMARK    6  A    between atoms: C_26  and  C_27
REMARK                            x       y       z     vdW  Elec       q    Type
REMARK                         _______ _______ _______ _____ _____    ______ ____
ROOT
ATOM      1  C   UNL     1      13.501  39.730  51.346  0.00  0.00    +0.000 C 
ATOM      2  C   UNL     1      12.356  40.752  51.524  0.00  0.00    +0.000 C 
ATOM      3  O   UNL     1      11.261  40.627  50.975  0.00  0.00    +0.000 OA
ATOM      4  N   UNL     1      12.645  41.936  52.170  0.00  0.00    +0.000 N 
ATOM      5  C   UNL     1      13.779  42.048  52.946  0.00  0.00    +0.000 A 
ATOM      6  C   UNL     1      14.630  40.999  53.212  0.00  0.00    +0.000 A 
ATOM      7  C   UNL     1      15.457  41.475  54.257  0.00  0.00    +0.000 A 
ATOM      8  C   UNL     1      16.479  40.745  55.053  0.00  0.00    +0.000 C 
ATOM      9  N   UNL     1      15.202  42.756  54.544  0.00  0.00    +0.000 NA
ATOM     10  N   UNL     1      14.216  43.142  53.686  0.00  0.00    +0.000 N 
ATOM     11  C   UNL     1      14.428  39.651  52.593  0.00  0.00    +0.000 C 
ATOM     12  H   UNL     1      11.891  42.611  52.220  0.00  0.00    +0.000 HD
ENDROOT
BRANCH  11  13
ATOM     13  C   UNL     1      15.785  39.013  52.334  0.00  0.00    +0.000 A 
ATOM     14  C   UNL     1      16.774  39.608  51.527  0.00  0.00    +0.000 A 
ATOM     15  C   UNL     1      17.992  38.967  51.294  0.00  0.00    +0.000 A 
ATOM     16  C   UNL     1      18.228  37.721  51.857  0.00  0.00    +0.000 A 
ATOM     17  F   UNL     1      19.398  37.107  51.634  0.00  0.00    +0.000 F 
ATOM     18  C   UNL     1      17.268  37.102  52.646  0.00  0.00    +0.000 A 
ATOM     19  C   UNL     1      16.050  37.743  52.881  0.00  0.00    +0.000 A 
ENDBRANCH  11  13
BRANCH  10  20
ATOM     20  C   UNL     1      13.796  44.516  53.639  0.00  0.00    +0.000 A 
ATOM     21  C   UNL     1      14.722  45.533  53.416  0.00  0.00    +0.000 A 
ATOM     22  C   UNL     1      14.277  46.856  53.377  0.00  0.00    +0.000 A 
ATOM     23  C   UNL     1      12.930  47.132  53.572  0.00  0.00    +0.000 A 
ATOM     24  C   UNL     1      12.077  46.072  53.811  0.00  0.00    +0.000 A 
ATOM     25  N   UNL     1      12.479  44.785  53.854  0.00  0.00    +0.000 NA
ENDBRANCH  10  20
BRANCH   1  28
ATOM     26  C   UNL     1      13.976  39.375  48.937  0.00  0.00    +0.000 C 
ATOM     27  O   UNL     1      13.242  38.395  48.874  0.00  0.00    +0.000 OA
ATOM     28  N   UNL     1      14.178  40.095  50.094  0.00  0.00    +0.000 N 
ATOM     29  H   UNL     1      14.670  40.977  50.057  0.00  0.00    +0.000 HD
BRANCH  26  35
ATOM     30  C   UNL     1      14.895  43.126  45.768  0.00  0.00    +0.000 C 
ATOM     31  C   UNL     1      15.132  41.709  46.196  0.00  0.00    +0.000 A 
ATOM     32  C   UNL     1      15.949  40.862  45.438  0.00  0.00    +0.000 A 
ATOM     33  C   UNL     1      16.133  39.531  45.813  0.00  0.00    +0.000 A 
ATOM     34  C   UNL     1      15.502  39.029  46.952  0.00  0.00    +0.000 A 
ATOM     35  C   UNL     1      14.682  39.864  47.720  0.00  0.00    +0.000 A 
ATOM     36  C   UNL     1      14.487  41.195  47.330  0.00  0.00    +0.000 A 
ENDBRANCH  26  35
ENDBRANCH   1  28
TORSDOF 4
ENDMDL
MODEL 3
REMARK VINA RESULT:    -5.743      5.230      8.351
REMARK INTER + INTRA:          -8.854
REMARK INTER:                  -7.085
REMARK INTRA:                  -1.769
REMARK UNBOUND:                -1.769
REMARK  Name = 
REMARK  6 active torsions:
REMARK  status: ('A' for Active; 'I' for Inactive)
REMARK    1  A    between atoms: C_1  and  C_2
REMARK    2  A    between atoms: C_6  and  C_7
REMARK    3  A    between atoms: N_9  and  C_10
REMARK    4  A    between atoms: C_16  and  C_17
REMARK    5  A    between atoms: N_19  and  C_20
REMARK    6  A    between atoms: C_26  and  C_27
REMARK                            x       y       z     vdW  Elec       q    Type
REMARK                         _______ _______ _______ _____ _____    ______ ____
ROOT
ATOM      1  C   UNL     1      13.085  47.815  45.778  0.00  0.00    +0.000 C 
ATOM      2  C   UNL     1      14.553  47.429  45.488  0.00  0.00    +0.000 C 
ATOM      3  O   UNL     1      15.442  48.265  45.322  0.00  0.00    +0.000 OA
ATOM      4  N   UNL     1      14.829  46.104  45.221  0.00  0.00    +0.000 N 
ATOM      5  C   UNL     1      13.926  45.121  45.565  0.00  0.00    +0.000 A 
ATOM      6  C   UNL     1      12.765  45.361  46.265  0.00  0.00    +0.000 A 
ATOM      7  C   UNL     1      12.315  44.075  46.648  0.00  0.00    +0.000 A 
ATOM      8  C   UNL     1      11.183  43.702  47.537  0.00  0.00    +0.000 C 
ATOM      9  N   UNL     1      13.085  43.110  46.136  0.00  0.00    +0.000 NA
ATOM     10  N   UNL     1      14.041  43.744  45.400  0.00  0.00    +0.000 N 
ATOM     11  C   UNL     1      12.348  46.750  46.638  0.00  0.00    +0.000 C 
ATOM     12  H   UNL     1      15.789  45.890  44.977  0.00  0.00    +0.000 HD
ENDROOT
BRANCH  11  13
ATOM     13  C   UNL     1      10.830  46.842  46.596  0.00  0.00    +0.000 A 
ATOM     14  C   UNL     1      10.070  46.523  45.454  0.00  0.00    +0.000 A 
ATOM     15  C   UNL     1       8.680  46.655  45.456  0.00  0.00    +0.000 A 
ATOM     16  C   UNL     1       8.039  47.118  46.597  0.00  0.00    +0.000 A 
ATOM     17  F   UNL     1       6.705  47.243  46.598  0.00  0.00    +0.000 F 
ATOM     18  C   UNL     1       8.760  47.453  47.733  0.00  0.00    +0.000 A 
ATOM     19  C   UNL     1      10.150  47.320  47.733  0.00  0.00    +0.000 A 
ENDBRANCH  11  13
BRANCH  10  20
ATOM     20  C   UNL     1      14.961  42.984  44.600  0.00  0.00    +0.000 A 
ATOM     21  C   UNL     1      15.095  41.609  44.787  0.00  0.00    +0.000 A 
ATOM     22  C   UNL     1      15.999  40.904  43.990  0.00  0.00    +0.000 A 
ATOM     23  C   UNL     1      16.751  41.583  43.040  0.00  0.00    +0.000 A 
ATOM     24  C   UNL     1      16.579  42.950  42.931  0.00  0.00    +0.000 A 
ATOM     25  N   UNL     1      15.714  43.657  43.687  0.00  0.00    +0.000 NA
ENDBRANCH  10  20
BRANCH   1  28
ATOM     26  C   UNL     1      12.166  49.373  44.080  0.00  0.00    +0.000 C 
ATOM     27  O   UNL     1      12.368  50.356  44.783  0.00  0.00    +0.000 OA
ATOM     28  N   UNL     1      12.473  48.088  44.470  0.00  0.00    +0.000 N 
ATOM     29  H   UNL     1      12.427  47.334  43.798  0.00  0.00    +0.000 HD
BRANCH  26  35
ATOM     30  C   UNL     1       9.894  47.280  40.153  0.00  0.00    +0.000 C 
ATOM     31  C   UNL     1      10.465  48.497  40.819  0.00  0.00    +0.000 A 
ATOM     32  C   UNL     1      10.500  49.726  40.149  0.00  0.00    +0.000 A 
ATOM     33  C   UNL     1      11.071  50.847  40.753  0.00  0.00    +0.000 A 
ATOM     34  C   UNL     1      11.615  50.753  42.035  0.00  0.00    +0.000 A 
ATOM     35  C   UNL     1      11.588  49.530  42.716  0.00  0.00    +0.000 A 
ATOM     36  C   UNL     1      11.028  48.403  42.099  0.00  0.00    +0.000 A 
ENDBRANCH  26  35
ENDBRANCH   1  28
TORSDOF 4
ENDMDL
