MODEL 1
REMARK VINA RESULT:    -6.519      0.000      0.000
REMARK INTER + INTRA:         -10.265
REMARK INTER:                  -8.653
REMARK INTRA:                  -1.613
REMARK UNBOUND:                -1.459
REMARK  Name = 
REMARK  6 active torsions:
REMARK  status: ('A' for Active; 'I' for Inactive)
REMARK    1  A    between atoms: C_2  and  C_3
REMARK    2  A    between atoms: C_3  and  C_4
REMARK    3  A    between atoms: C_4  and  C_5
REMARK    4  A    between atoms: N_11  and  C_12
REMARK    5  A    between atoms: C_15  and  C_16
REMARK    6  A    between atoms: C_23  and  C_24
REMARK                            x       y       z     vdW  Elec       q    Type
REMARK                         _______ _______ _______ _____ _____    ______ ____
ROOT
ATOM      1  C   UNL     1      15.558  37.794  50.393  0.00  0.00    +0.000 A 
ATOM      2  O   UNL     1      15.523  36.947  49.332  0.00  0.00    +0.000 OA
ATOM      3  N   UNL     1      16.762  36.367  49.153  0.00  0.00    +0.000 NA
ATOM      4  C   UNL     1      17.551  36.845  50.130  0.00  0.00    +0.000 A 
ATOM      5  C   UNL     1      16.820  37.758  50.951  0.00  0.00    +0.000 A 
ENDROOT
BRANCH   4   6
ATOM      6  C   UNL     1      18.949  36.421  50.224  0.00  0.00    +0.000 A 
ATOM      7  C   UNL     1      19.523  35.664  49.186  0.00  0.00    +0.000 A 
ATOM      8  C   UNL     1      20.854  35.247  49.260  0.00  0.00    +0.000 A 
ATOM      9  C   UNL     1      21.612  35.580  50.375  0.00  0.00    +0.000 A 
ATOM     10  F   UNL     1      22.887  35.175  50.452  0.00  0.00    +0.000 F 
ATOM     11  C   UNL     1      21.066  36.322  51.415  0.00  0.00    +0.000 A 
ATOM     12  C   UNL     1      19.735  36.744  51.342  0.00  0.00    +0.000 A 
ENDBRANCH   4   6
BRANCH   5  13
ATOM     13  C   UNL     1      17.224  38.559  52.089  0.00  0.00    +0.000 A 
ATOM     14  C   UNL     1      16.890  38.163  53.385  0.00  0.00    +0.000 A 
ATOM     15  C   UNL     1      17.299  38.963  54.438  0.00  0.00    +0.000 A 
ATOM     16  N   UNL     1      18.001  40.103  54.281  0.00  0.00    +0.000 NA
ATOM     17  C   UNL     1      18.321  40.460  53.017  0.00  0.00    +0.000 A 
ATOM     18  C   UNL     1      17.958  39.730  51.899  0.00  0.00    +0.000 A 
ENDBRANCH   5  13
BRANCH   1  21
ATOM     19  O   UNL     1      14.969  40.449  49.511  0.00  0.00    +0.000 OA
ATOM     20  C   UNL     1      14.255  39.836  50.296  0.00  0.00    +0.000 C 
ATOM     21  N   UNL     1      14.446  38.536  50.728  0.00  0.00    +0.000 N 
ATOM     22  H   UNL     1      13.776  38.111  51.352  0.00  0.00    +0.000 HD
BRANCH  20  23
ATOM     23  C   UNL     1      12.968  40.428  50.853  0.00  0.00    +0.000 C 
BRANCH  23  24
ATOM     24  C   UNL     1      12.992  40.581  52.376  0.00  0.00    +0.000 C 
BRANCH  24  25
ATOM     25  C   UNL     1      13.695  41.848  52.805  0.00  0.00    +0.000 A 
ATOM     26  C   UNL     1      15.087  41.968  52.678  0.00  0.00    +0.000 A 
ATOM     27  C   UNL     1      15.734  43.148  53.053  0.00  0.00    +0.000 A 
ATOM     28  C   UNL     1      14.998  44.220  53.554  0.00  0.00    +0.000 A 
ATOM     29  C   UNL     1      13.616  44.112  53.683  0.00  0.00    +0.000 A 
ATOM     30  C   UNL     1      12.967  42.933  53.308  0.00  0.00    +0.000 A 
ENDBRANCH  24  25
ENDBRANCH  23  24
ENDBRANCH  20  23
ENDBRANCH   1  21
TORSDOF 6
ENDMDL
MODEL 2
REMARK VINA RESULT:    -6.383      6.174      8.157
REMARK INTER + INTRA:         -10.081
REMARK INTER:                  -8.647
REMARK INTRA:                  -1.435
REMARK UNBOUND:                -1.459
REMARK  Name = 
REMARK  6 active torsions:
REMARK  status: ('A' for Active; 'I' for Inactive)
REMARK    1  A    between atoms: C_2  and  C_3
REMARK    2  A    between atoms: C_3  and  C_4
REMARK    3  A    between atoms: C_4  and  C_5
REMARK    4  A    between atoms: N_11  and  C_12
REMARK    5  A    between atoms: C_15  and  C_16
REMARK    6  A    between atoms: C_23  and  C_24
REMARK                            x       y       z     vdW  Elec       q    Type
REMARK                         _______ _______ _______ _____ _____    ______ ____
ROOT
ATOM      1  C   UNL     1      15.079  41.231  46.928  0.00  0.00    +0.000 A 
ATOM      2  O   UNL     1      15.961  40.375  46.349  0.00  0.00    +0.000 OA
ATOM      3  N   UNL     1      16.049  40.635  44.997  0.00  0.00    +0.000 NA
ATOM      4  C   UNL     1      15.235  41.676  44.756  0.00  0.00    +0.000 A 
ATOM      5  C   UNL     1      14.596  42.094  45.964  0.00  0.00    +0.000 A 
ENDROOT
BRANCH   4   6
ATOM      6  C   UNL     1      15.097  42.207  43.398  0.00  0.00    +0.000 A 
ATOM      7  C   UNL     1      14.361  41.490  42.437  0.00  0.00    +0.000 A 
ATOM      8  C   UNL     1      14.222  41.979  41.136  0.00  0.00    +0.000 A 
ATOM      9  C   UNL     1      14.824  43.182  40.792  0.00  0.00    +0.000 A 
ATOM     10  F   UNL     1      14.699  43.650  39.542  0.00  0.00    +0.000 F 
ATOM     11  C   UNL     1      15.560  43.906  41.722  0.00  0.00    +0.000 A 
ATOM     12  C   UNL     1      15.698  43.420  43.026  0.00  0.00    +0.000 A 
ENDBRANCH   4   6
BRANCH   5  13
ATOM     13  C   UNL     1      13.613  43.125  46.223  0.00  0.00    +0.000 A 
ATOM     14  C   UNL     1      13.912  44.465  45.968  0.00  0.00    +0.000 A 
ATOM     15  C   UNL     1      12.939  45.413  46.232  0.00  0.00    +0.000 A 
ATOM     16  N   UNL     1      11.718  45.114  46.722  0.00  0.00    +0.000 NA
ATOM     17  C   UNL     1      11.449  43.810  46.950  0.00  0.00    +0.000 A 
ATOM     18  C   UNL     1      12.355  42.788  46.721  0.00  0.00    +0.000 A 
ENDBRANCH   5  13
BRANCH   1  21
ATOM     19  O   UNL     1      13.585  39.127  48.160  0.00  0.00    +0.000 OA
ATOM     20  C   UNL     1      14.010  40.093  48.784  0.00  0.00    +0.000 C 
ATOM     21  N   UNL     1      14.780  41.120  48.269  0.00  0.00    +0.000 N 
ATOM     22  H   UNL     1      15.110  41.855  48.879  0.00  0.00    +0.000 HD
BRANCH  20  23
ATOM     23  C   UNL     1      13.802  40.246  50.284  0.00  0.00    +0.000 C 
BRANCH  23  24
ATOM     24  C   UNL     1      15.115  40.408  51.054  0.00  0.00    +0.000 C 
BRANCH  24  25
ATOM     25  C   UNL     1      15.070  41.582  52.004  0.00  0.00    +0.000 A 
ATOM     26  C   UNL     1      16.190  42.412  52.163  0.00  0.00    +0.000 A 
ATOM     27  C   UNL     1      16.141  43.511  53.024  0.00  0.00    +0.000 A 
ATOM     28  C   UNL     1      14.974  43.794  53.730  0.00  0.00    +0.000 A 
ATOM     29  C   UNL     1      13.856  42.978  53.579  0.00  0.00    +0.000 A 
ATOM     30  C   UNL     1      13.903  41.878  52.719  0.00  0.00    +0.000 A 
ENDBRANCH  24  25
ENDBRANCH  23  24
ENDBRANCH  20  23
ENDBRANCH   1  21
TORSDOF 6
ENDMDL
MODEL 3
REMARK VINA RESULT:    -6.253      8.249      9.445
REMARK INTER + INTRA:          -9.906
REMARK INTER:                  -8.446
REMARK INTRA:                  -1.459
REMARK UNBOUND:                -1.459
REMARK  Name = 
REMARK  6 active torsions:
REMARK  status: ('A' for Active; 'I' for Inactive)
REMARK    1  A    between atoms: C_2  and  C_3
REMARK    2  A    between atoms: C_3  and  C_4
REMARK    3  A    between atoms: C_4  and  C_5
REMARK    4  A    between atoms: N_11  and  C_12
REMARK    5  A    between atoms: C_15  and  C_16
REMARK    6  A    between atoms: C_23  and  C_24
REMARK                            x       y       z     vdW  Elec       q    Type
REMARK                         _______ _______ _______ _____ _____    ______ ____
ROOT
ATOM      1  C   UNL     1      16.119  40.389  44.591  0.00  0.00    +0.000 A 
ATOM      2  O   UNL     1      16.583  39.163  44.945  0.00  0.00    +0.000 OA
ATOM      3  N   UNL     1      17.028  38.489  43.827  0.00  0.00    +0.000 NA
ATOM      4  C   UNL     1      16.860  39.323  42.787  0.00  0.00    +0.000 A 
ATOM      5  C   UNL     1      16.285  40.554  43.230  0.00  0.00    +0.000 A 
ENDROOT
BRANCH   4   6
ATOM      6  C   UNL     1      17.240  38.906  41.436  0.00  0.00    +0.000 A 
ATOM      7  C   UNL     1      18.529  39.196  40.951  0.00  0.00    +0.000 A 
ATOM      8  C   UNL     1      18.908  38.810  39.663  0.00  0.00    +0.000 A 
ATOM      9  C   UNL     1      17.999  38.139  38.856  0.00  0.00    +0.000 A 
ATOM     10  F   UNL     1      18.358  37.774  37.618  0.00  0.00    +0.000 F 
ATOM     11  C   UNL     1      16.720  37.845  39.312  0.00  0.00    +0.000 A 
ATOM     12  C   UNL     1      16.338  38.227  40.601  0.00  0.00    +0.000 A 
ENDBRANCH   4   6
BRANCH   5  13
ATOM     13  C   UNL     1      15.875  41.738  42.504  0.00  0.00    +0.000 A 
ATOM     14  C   UNL     1      15.014  41.633  41.410  0.00  0.00    +0.000 A 
ATOM     15  C   UNL     1      14.652  42.794  40.749  0.00  0.00    +0.000 A 
ATOM     16  N   UNL     1      15.086  44.021  41.103  0.00  0.00    +0.000 NA
ATOM     17  C   UNL     1      15.910  44.098  42.171  0.00  0.00    +0.000 A 
ATOM     18  C   UNL     1      16.331  42.997  42.897  0.00  0.00    +0.000 A 
ENDBRANCH   5  13
BRANCH   1  21
ATOM     19  O   UNL     1      13.338  40.968  44.913  0.00  0.00    +0.000 OA
ATOM     20  C   UNL     1      14.208  41.490  45.600  0.00  0.00    +0.000 C 
ATOM     21  N   UNL     1      15.564  41.223  45.538  0.00  0.00    +0.000 N 
ATOM     22  H   UNL     1      16.197  41.685  46.176  0.00  0.00    +0.000 HD
BRANCH  20  23
ATOM     23  C   UNL     1      13.882  42.478  46.712  0.00  0.00    +0.000 C 
BRANCH  23  24
ATOM     24  C   UNL     1      12.584  43.249  46.460  0.00  0.00    +0.000 C 
BRANCH  24  25
ATOM     25  C   UNL     1      12.836  44.724  46.247  0.00  0.00    +0.000 A 
ATOM     26  C   UNL     1      11.918  45.678  46.710  0.00  0.00    +0.000 A 
ATOM     27  C   UNL     1      12.163  47.042  46.533  0.00  0.00    +0.000 A 
ATOM     28  C   UNL     1      13.328  47.466  45.896  0.00  0.00    +0.000 A 
ATOM     29  C   UNL     1      14.247  46.527  45.434  0.00  0.00    +0.000 A 
ATOM     30  C   UNL     1      14.004  45.163  45.610  0.00  0.00    +0.000 A 
ENDBRANCH  24  25
ENDBRANCH  23  24
ENDBRANCH  20  23
ENDBRANCH   1  21
TORSDOF 6
ENDMDL
