MODEL 1
REMARK VINA RESULT:    -7.074      0.000      0.000
REMARK INTER + INTRA:          -8.572
REMARK INTER:                 -10.293
REMARK INTRA:                   1.721
REMARK UNBOUND:                 0.983
REMARK  Name = 
REMARK  15 active torsions:
REMARK  status: ('A' for Active; 'I' for Inactive)
REMARK    1  A    between atoms: C_2  and  C_3
REMARK    2  A    between atoms: C_3  and  C_4
REMARK    3  A    between atoms: C_3  and  C_5
REMARK    4  A    between atoms: C_3  and  C_6
REMARK    5  A    between atoms: C_9  and  O_10
REMARK    6  A    between atoms: C_14  and  C_15
REMARK    7  A    between atoms: C_14  and  C_16
REMARK    8  A    between atoms: C_20  and  C_21
REMARK    9  A    between atoms: C_23  and  C_24
REMARK   10  A    between atoms: C_23  and  C_25
REMARK   11  A    between atoms: C_29  and  O_30
REMARK   12  A    between atoms: C_38  and  C_39
REMARK   13  A    between atoms: C_39  and  C_40
REMARK   14  A    between atoms: C_39  and  C_41
REMARK   15  A    between atoms: C_39  and  C_42
REMARK                            x       y       z     vdW  Elec       q    Type
REMARK                         _______ _______ _______ _____ _____    ______ ____
ROOT
ATOM      1  C   UNL     1      12.953  40.713  47.757  0.00  0.00    +0.000 C 
ATOM      2  C   UNL     1      11.989  41.412  48.723  0.00  0.00    +0.000 C 
ATOM      3  C   UNL     1      11.101  42.420  47.998  0.00  0.00    +0.000 C 
ATOM      4  C   UNL     1      10.277  43.198  49.037  0.00  0.00    +0.000 C 
ATOM      5  C   UNL     1      10.126  41.781  46.995  0.00  0.00    +0.000 C 
ATOM      6  O   UNL     1      11.932  43.393  47.353  0.00  0.00    +0.000 OA
ATOM      7  C   UNL     1      12.893  42.926  46.490  0.00  0.00    +0.000 A 
ATOM      8  C   UNL     1      13.389  41.612  46.608  0.00  0.00    +0.000 A 
ATOM      9  C   UNL     1      14.248  41.134  45.607  0.00  0.00    +0.000 A 
ATOM     10  C   UNL     1      14.712  41.968  44.584  0.00  0.00    +0.000 A 
ATOM     11  C   UNL     1      15.684  41.524  43.584  0.00  0.00    +0.000 A 
ATOM     12  C   UNL     1      16.075  42.336  42.598  0.00  0.00    +0.000 A 
ATOM     13  C   UNL     1      15.570  43.706  42.480  0.00  0.00    +0.000 A 
ATOM     14  O   UNL     1      15.910  44.431  41.554  0.00  0.00    +0.000 OA
ATOM     15  O   UNL     1      14.710  44.118  43.480  0.00  0.00    +0.000 OA
ATOM     16  C   UNL     1      14.249  43.294  44.539  0.00  0.00    +0.000 A 
ATOM     17  C   UNL     1      13.332  43.826  45.476  0.00  0.00    +0.000 A 
ENDROOT
BRANCH   1  31
ATOM     18  C   UNL     1      17.041  38.596  51.199  0.00  0.00    +0.000 A 
ATOM     19  C   UNL     1      16.026  39.057  50.324  0.00  0.00    +0.000 A 
ATOM     20  C   UNL     1      15.860  38.534  49.022  0.00  0.00    +0.000 A 
ATOM     21  C   UNL     1      16.771  37.591  48.541  0.00  0.00    +0.000 A 
ATOM     22  C   UNL     1      17.813  37.132  49.350  0.00  0.00    +0.000 A 
ATOM     23  C   UNL     1      17.943  37.633  50.661  0.00  0.00    +0.000 A 
ATOM     24  O   UNL     1      19.017  37.260  51.438  0.00  0.00    +0.000 OA
ATOM     25  C   UNL     1      19.689  36.019  51.151  0.00  0.00    +0.000 C 
ATOM     26  C   UNL     1      19.047  34.913  51.995  0.00  0.00    +0.000 C 
ATOM     27  C   UNL     1      21.140  36.227  51.599  0.00  0.00    +0.000 C 
ATOM     28  C   UNL     1      19.669  35.641  49.695  0.00  0.00    +0.000 C 
ATOM     29  C   UNL     1      18.792  36.172  48.840  0.00  0.00    +0.000 C 
ATOM     30  C   UNL     1      14.706  38.973  48.227  0.00  0.00    +0.000 C 
ATOM     31  C   UNL     1      14.110  40.129  48.558  0.00  0.00    +0.000 C 
ATOM     32  C   UNL     1      14.630  40.890  49.747  0.00  0.00    +0.000 C 
ATOM     33  O   UNL     1      15.153  40.022  50.765  0.00  0.00    +0.000 OA
BRANCH  18  34
ATOM     34  C   UNL     1      17.230  39.131  52.652  0.00  0.00    +0.000 C 
ATOM     35  C   UNL     1      16.116  40.051  53.219  0.00  0.00    +0.000 C 
ATOM     36  C   UNL     1      18.520  39.992  52.669  0.00  0.00    +0.000 C 
BRANCH  34  38
ATOM     37  C   UNL     1      17.363  38.080  55.007  0.00  0.00    +0.000 C 
ATOM     38  C   UNL     1      17.383  37.984  53.668  0.00  0.00    +0.000 C 
ENDBRANCH  34  38
ENDBRANCH  18  34
BRANCH  21  39
ATOM     39  O   UNL     1      16.687  37.120  47.252  0.00  0.00    +0.000 OA
ATOM     40  H   UNL     1      17.594  36.954  46.943  0.00  0.00    +0.000 HD
ENDBRANCH  21  39
ENDBRANCH   1  31
BRANCH  17  41
ATOM     41  C   UNL     1      12.792  45.290  45.451  0.00  0.00    +0.000 C 
ATOM     42  C   UNL     1      11.859  45.444  44.217  0.00  0.00    +0.000 C 
ATOM     43  C   UNL     1      11.922  45.735  46.654  0.00  0.00    +0.000 C 
BRANCH  41  44
ATOM     44  C   UNL     1      13.968  46.277  45.487  0.00  0.00    +0.000 C 
ATOM     45  C   UNL     1      13.913  47.618  45.485  0.00  0.00    +0.000 C 
ENDBRANCH  41  44
ENDBRANCH  17  41
BRANCH   9  46
ATOM     46  O   UNL     1      14.594  39.806  45.650  0.00  0.00    +0.000 OA
ATOM     47  H   UNL     1      13.787  39.272  45.565  0.00  0.00    +0.000 HD
ENDBRANCH   9  46
TORSDOF 7
ENDMDL
MODEL 2
REMARK VINA RESULT:    -6.723      1.899      2.105
REMARK INTER + INTRA:          -8.099
REMARK INTER:                  -9.041
REMARK INTRA:                   0.942
REMARK UNBOUND:                 0.983
REMARK  Name = 
REMARK  15 active torsions:
REMARK  status: ('A' for Active; 'I' for Inactive)
REMARK    1  A    between atoms: C_2  and  C_3
REMARK    2  A    between atoms: C_3  and  C_4
REMARK    3  A    between atoms: C_3  and  C_5
REMARK    4  A    between atoms: C_3  and  C_6
REMARK    5  A    between atoms: C_9  and  O_10
REMARK    6  A    between atoms: C_14  and  C_15
REMARK    7  A    between atoms: C_14  and  C_16
REMARK    8  A    between atoms: C_20  and  C_21
REMARK    9  A    between atoms: C_23  and  C_24
REMARK   10  A    between atoms: C_23  and  C_25
REMARK   11  A    between atoms: C_29  and  O_30
REMARK   12  A    between atoms: C_38  and  C_39
REMARK   13  A    between atoms: C_39  and  C_40
REMARK   14  A    between atoms: C_39  and  C_41
REMARK   15  A    between atoms: C_39  and  C_42
REMARK                            x       y       z     vdW  Elec       q    Type
REMARK                         _______ _______ _______ _____ _____    ______ ____
ROOT
ATOM      1  C   UNL     1      12.467  40.496  48.479  0.00  0.00    +0.000 C 
ATOM      2  C   UNL     1      11.388  41.281  49.233  0.00  0.00    +0.000 C 
ATOM      3  C   UNL     1      10.636  42.234  48.308  0.00  0.00    +0.000 C 
ATOM      4  C   UNL     1       9.686  43.103  49.149  0.00  0.00    +0.000 C 
ATOM      5  C   UNL     1       9.805  41.524  47.226  0.00  0.00    +0.000 C 
ATOM      6  O   UNL     1      11.573  43.144  47.717  0.00  0.00    +0.000 OA
ATOM      7  C   UNL     1      12.639  42.599  47.045  0.00  0.00    +0.000 A 
ATOM      8  C   UNL     1      13.085  41.294  47.339  0.00  0.00    +0.000 A 
ATOM      9  C   UNL     1      14.071  40.728  46.516  0.00  0.00    +0.000 A 
ATOM     10  C   UNL     1      14.697  41.472  45.510  0.00  0.00    +0.000 A 
ATOM     11  C   UNL     1      15.795  40.939  44.702  0.00  0.00    +0.000 A 
ATOM     12  C   UNL     1      16.343  41.663  43.724  0.00  0.00    +0.000 A 
ATOM     13  C   UNL     1      15.889  43.024  43.424  0.00  0.00    +0.000 A 
ATOM     14  O   UNL     1      16.376  43.668  42.503  0.00  0.00    +0.000 OA
ATOM     15  O   UNL     1      14.901  43.525  44.251  0.00  0.00    +0.000 OA
ATOM     16  C   UNL     1      14.273  42.794  45.291  0.00  0.00    +0.000 A 
ATOM     17  C   UNL     1      13.240  43.408  46.038  0.00  0.00    +0.000 A 
ENDROOT
BRANCH   1  31
ATOM     18  C   UNL     1      16.245  38.949  52.526  0.00  0.00    +0.000 A 
ATOM     19  C   UNL     1      15.273  39.281  51.549  0.00  0.00    +0.000 A 
ATOM     20  C   UNL     1      14.465  38.303  50.926  0.00  0.00    +0.000 A 
ATOM     21  C   UNL     1      14.680  36.953  51.215  0.00  0.00    +0.000 A 
ATOM     22  C   UNL     1      15.652  36.569  52.142  0.00  0.00    +0.000 A 
ATOM     23  C   UNL     1      16.422  37.558  52.785  0.00  0.00    +0.000 A 
ATOM     24  O   UNL     1      17.446  37.193  53.631  0.00  0.00    +0.000 OA
ATOM     25  C   UNL     1      17.404  35.897  54.258  0.00  0.00    +0.000 C 
ATOM     26  C   UNL     1      16.703  36.036  55.613  0.00  0.00    +0.000 C 
ATOM     27  C   UNL     1      18.869  35.503  54.478  0.00  0.00    +0.000 C 
ATOM     28  C   UNL     1      16.725  34.843  53.427  0.00  0.00    +0.000 C 
ATOM     29  C   UNL     1      15.906  35.156  52.421  0.00  0.00    +0.000 C 
ATOM     30  C   UNL     1      13.395  38.742  50.021  0.00  0.00    +0.000 C 
ATOM     31  C   UNL     1      13.482  39.969  49.485  0.00  0.00    +0.000 C 
ATOM     32  C   UNL     1      14.646  40.840  49.871  0.00  0.00    +0.000 C 
ATOM     33  O   UNL     1      15.086  40.601  51.217  0.00  0.00    +0.000 OA
BRANCH  18  34
ATOM     34  C   UNL     1      17.128  40.008  53.253  0.00  0.00    +0.000 C 
ATOM     35  C   UNL     1      16.612  41.472  53.267  0.00  0.00    +0.000 C 
ATOM     36  C   UNL     1      18.493  40.062  52.517  0.00  0.00    +0.000 C 
BRANCH  34  38
ATOM     37  C   UNL     1      16.603  39.954  55.781  0.00  0.00    +0.000 C 
ATOM     38  C   UNL     1      17.372  39.635  54.726  0.00  0.00    +0.000 C 
ENDBRANCH  34  38
ENDBRANCH  18  34
BRANCH  21  39
ATOM     39  O   UNL     1      13.967  35.970  50.568  0.00  0.00    +0.000 OA
ATOM     40  H   UNL     1      13.600  36.363  49.758  0.00  0.00    +0.000 HD
ENDBRANCH  21  39
ENDBRANCH   1  31
BRANCH  17  41
ATOM     41  C   UNL     1      12.741  44.871  45.817  0.00  0.00    +0.000 C 
ATOM     42  C   UNL     1      11.889  44.904  44.518  0.00  0.00    +0.000 C 
ATOM     43  C   UNL     1      11.811  45.464  46.906  0.00  0.00    +0.000 C 
BRANCH  41  44
ATOM     44  C   UNL     1      13.938  45.833  45.818  0.00  0.00    +0.000 C 
ATOM     45  C   UNL     1      14.001  47.063  45.286  0.00  0.00    +0.000 C 
ENDBRANCH  41  44
ENDBRANCH  17  41
BRANCH   9  46
ATOM     46  O   UNL     1      14.379  39.405  46.716  0.00  0.00    +0.000 OA
ATOM     47  H   UNL     1      13.586  38.949  47.043  0.00  0.00    +0.000 HD
ENDBRANCH   9  46
TORSDOF 7
ENDMDL
MODEL 3
REMARK VINA RESULT:    -6.184      2.185      9.733
REMARK INTER + INTRA:          -7.370
REMARK INTER:                  -8.353
REMARK INTRA:                   0.983
REMARK UNBOUND:                 0.983
REMARK  Name = 
REMARK  15 active torsions:
REMARK  status: ('A' for Active; 'I' for Inactive)
REMARK    1  A    between atoms: C_2  and  C_3
REMARK    2  A    between atoms: C_3  and  C_4
REMARK    3  A    between atoms: C_3  and  C_5
REMARK    4  A    between atoms: C_3  and  C_6
REMARK    5  A    between atoms: C_9  and  O_10
REMARK    6  A    between atoms: C_14  and  C_15
REMARK    7  A    between atoms: C_14  and  C_16
REMARK    8  A    between atoms: C_20  and  C_21
REMARK    9  A    between atoms: C_23  and  C_24
REMARK   10  A    between atoms: C_23  and  C_25
REMARK   11  A    between atoms: C_29  and  O_30
REMARK   12  A    between atoms: C_38  and  C_39
REMARK   13  A    between atoms: C_39  and  C_40
REMARK   14  A    between atoms: C_39  and  C_41
REMARK   15  A    between atoms: C_39  and  C_42
REMARK                            x       y       z     vdW  Elec       q    Type
REMARK                         _______ _______ _______ _____ _____    ______ ____
ROOT
ATOM      1  C   UNL     1      13.327  38.112  49.998  0.00  0.00    +0.000 C 
ATOM      2  C   UNL     1      13.776  36.939  49.119  0.00  0.00    +0.000 C 
ATOM      3  C   UNL     1      14.459  35.850  49.941  0.00  0.00    +0.000 C 
ATOM      4  C   UNL     1      15.026  34.785  48.987  0.00  0.00    +0.000 C 
ATOM      5  C   UNL     1      13.526  35.149  50.942  0.00  0.00    +0.000 C 
ATOM      6  O   UNL     1      15.594  36.415  50.610  0.00  0.00    +0.000 OA
ATOM      7  C   UNL     1      15.372  37.515  51.402  0.00  0.00    +0.000 A 
ATOM      8  C   UNL     1      14.256  38.348  51.182  0.00  0.00    +0.000 A 
ATOM      9  C   UNL     1      13.989  39.361  52.115  0.00  0.00    +0.000 A 
ATOM     10  C   UNL     1      14.869  39.634  53.168  0.00  0.00    +0.000 A 
ATOM     11  C   UNL     1      14.667  40.746  54.098  0.00  0.00    +0.000 A 
ATOM     12  C   UNL     1      15.507  40.953  55.115  0.00  0.00    +0.000 A 
ATOM     13  C   UNL     1      16.674  40.096  55.339  0.00  0.00    +0.000 A 
ATOM     14  O   UNL     1      17.419  40.275  56.294  0.00  0.00    +0.000 OA
ATOM     15  O   UNL     1      16.878  39.100  54.402  0.00  0.00    +0.000 OA
ATOM     16  C   UNL     1      16.010  38.825  53.315  0.00  0.00    +0.000 A 
ATOM     17  C   UNL     1      16.308  37.745  52.451  0.00  0.00    +0.000 A 
ENDROOT
BRANCH   1  31
ATOM     18  C   UNL     1      12.294  42.932  47.041  0.00  0.00    +0.000 A 
ATOM     19  C   UNL     1      12.614  41.761  47.772  0.00  0.00    +0.000 A 
ATOM     20  C   UNL     1      13.839  41.077  47.602  0.00  0.00    +0.000 A 
ATOM     21  C   UNL     1      14.737  41.514  46.625  0.00  0.00    +0.000 A 
ATOM     22  C   UNL     1      14.453  42.641  45.850  0.00  0.00    +0.000 A 
ATOM     23  C   UNL     1      13.245  43.336  46.059  0.00  0.00    +0.000 A 
ATOM     24  O   UNL     1      12.908  44.393  45.243  0.00  0.00    +0.000 OA
ATOM     25  C   UNL     1      13.954  45.107  44.557  0.00  0.00    +0.000 C 
ATOM     26  C   UNL     1      14.395  46.283  45.434  0.00  0.00    +0.000 C 
ATOM     27  C   UNL     1      13.310  45.640  43.272  0.00  0.00    +0.000 C 
ATOM     28  C   UNL     1      15.139  44.251  44.200  0.00  0.00    +0.000 C 
ATOM     29  C   UNL     1      15.372  43.082  44.801  0.00  0.00    +0.000 C 
ATOM     30  C   UNL     1      14.147  39.947  48.488  0.00  0.00    +0.000 C 
ATOM     31  C   UNL     1      13.129  39.337  49.116  0.00  0.00    +0.000 C 
ATOM     32  C   UNL     1      11.737  39.868  48.907  0.00  0.00    +0.000 C 
ATOM     33  O   UNL     1      11.718  41.289  48.701  0.00  0.00    +0.000 OA
BRANCH  18  34
ATOM     34  C   UNL     1      10.965  43.726  47.230  0.00  0.00    +0.000 C 
ATOM     35  C   UNL     1      10.179  43.488  48.547  0.00  0.00    +0.000 C 
ATOM     36  C   UNL     1      10.000  43.296  46.094  0.00  0.00    +0.000 C 
BRANCH  34  38
ATOM     37  C   UNL     1      10.250  46.206  47.131  0.00  0.00    +0.000 C 
ATOM     38  C   UNL     1      11.190  45.246  47.144  0.00  0.00    +0.000 C 
ENDBRANCH  34  38
ENDBRANCH  18  34
BRANCH  21  39
ATOM     39  O   UNL     1      15.901  40.826  46.377  0.00  0.00    +0.000 OA
ATOM     40  H   UNL     1      16.480  41.411  45.860  0.00  0.00    +0.000 HD
ENDBRANCH  21  39
ENDBRANCH   1  31
BRANCH  17  41
ATOM     41  C   UNL     1      17.561  36.824  52.590  0.00  0.00    +0.000 C 
ATOM     42  C   UNL     1      17.806  36.560  54.102  0.00  0.00    +0.000 C 
ATOM     43  C   UNL     1      17.462  35.411  51.960  0.00  0.00    +0.000 C 
BRANCH  41  44
ATOM     44  C   UNL     1      18.752  37.453  51.852  0.00  0.00    +0.000 C 
ATOM     45  C   UNL     1      19.775  36.820  51.258  0.00  0.00    +0.000 C 
ENDBRANCH  41  44
ENDBRANCH  17  41
BRANCH   9  46
ATOM     46  O   UNL     1      12.814  40.057  51.975  0.00  0.00    +0.000 OA
ATOM     47  H   UNL     1      12.924  40.934  52.378  0.00  0.00    +0.000 HD
ENDBRANCH   9  46
TORSDOF 7
ENDMDL
