MODEL 1
REMARK VINA RESULT:    -6.253      0.000      0.000
REMARK INTER + INTRA:          -8.544
REMARK INTER:                  -7.720
REMARK INTRA:                  -0.824
REMARK UNBOUND:                -0.829
REMARK  Name = 
REMARK  5 active torsions:
REMARK  status: ('A' for Active; 'I' for Inactive)
REMARK    1  A    between atoms: O_1  and  C_2
REMARK    2  A    between atoms: C_5  and  C_6
REMARK    3  A    between atoms: C_9  and  C_10
REMARK    4  A    between atoms: C_13  and  C_14
REMARK    5  A    between atoms: C_17  and  O_18
REMARK                            x       y       z     vdW  Elec       q    Type
REMARK                         _______ _______ _______ _____ _____    ______ ____
ROOT
ATOM      1  C   UNL     1      12.537  47.214  46.249  0.00  0.00    +0.000 A 
ATOM      2  C   UNL     1      13.623  47.326  45.364  0.00  0.00    +0.000 A 
ATOM      3  C   UNL     1      14.292  46.195  44.875  0.00  0.00    +0.000 A 
ATOM      4  C   UNL     1      13.903  44.904  45.256  0.00  0.00    +0.000 A 
ATOM      5  C   UNL     1      12.825  44.784  46.143  0.00  0.00    +0.000 A 
ATOM      6  C   UNL     1      12.157  45.917  46.632  0.00  0.00    +0.000 A 
ENDROOT
BRANCH   1  10
ATOM      7  C   UNL     1      10.451  50.501  47.775  0.00  0.00    +0.000 A 
ATOM      8  C   UNL     1      11.505  50.790  46.946  0.00  0.00    +0.000 A 
ATOM      9  C   UNL     1      12.221  49.719  46.421  0.00  0.00    +0.000 A 
ATOM     10  C   UNL     1      11.844  48.418  46.750  0.00  0.00    +0.000 A 
ATOM     11  N   UNL     1      10.793  48.202  47.583  0.00  0.00    +0.000 NA
ATOM     12  N   UNL     1      10.085  49.253  48.101  0.00  0.00    +0.000 NA
BRANCH   7  13
ATOM     13  O   UNL     1       9.708  51.496  48.325  0.00  0.00    +0.000 OA
ATOM     14  H   UNL     1      10.392  52.000  48.801  0.00  0.00    +0.000 HD
ENDBRANCH   7  13
ENDBRANCH   1  10
BRANCH   4  15
ATOM     15  C   UNL     1      14.604  43.715  44.746  0.00  0.00    +0.000 A 
ATOM     16  C   UNL     1      14.894  42.629  45.584  0.00  0.00    +0.000 A 
ATOM     17  C   UNL     1      15.558  41.494  45.099  0.00  0.00    +0.000 A 
ATOM     18  C   UNL     1      15.964  41.398  43.757  0.00  0.00    +0.000 A 
ATOM     19  C   UNL     1      15.664  42.489  42.922  0.00  0.00    +0.000 A 
ATOM     20  C   UNL     1      14.999  43.624  43.405  0.00  0.00    +0.000 A 
BRANCH  18  21
ATOM     21  C   UNL     1      16.668  40.214  43.228  0.00  0.00    +0.000 A 
ATOM     22  C   UNL     1      16.762  39.002  43.905  0.00  0.00    +0.000 A 
ATOM     23  C   UNL     1      17.452  37.939  43.323  0.00  0.00    +0.000 A 
ATOM     24  C   UNL     1      18.024  38.140  42.084  0.00  0.00    +0.000 A 
ATOM     25  N   UNL     1      17.938  39.311  41.437  0.00  0.00    +0.000 NA
ATOM     26  N   UNL     1      17.255  40.355  42.016  0.00  0.00    +0.000 NA
BRANCH  24  27
ATOM     27  O   UNL     1      18.717  37.152  41.448  0.00  0.00    +0.000 OA
ATOM     28  H   UNL     1      18.088  36.477  41.160  0.00  0.00    +0.000 HD
ENDBRANCH  24  27
ENDBRANCH  18  21
ENDBRANCH   4  15
TORSDOF 5
ENDMDL
MODEL 2
REMARK VINA RESULT:    -6.235      0.859     10.756
REMARK INTER + INTRA:          -8.522
REMARK INTER:                  -7.694
REMARK INTRA:                  -0.829
REMARK UNBOUND:                -0.829
REMARK  Name = 
REMARK  5 active torsions:
REMARK  status: ('A' for Active; 'I' for Inactive)
REMARK    1  A    between atoms: O_1  and  C_2
REMARK    2  A    between atoms: C_5  and  C_6
REMARK    3  A    between atoms: C_9  and  C_10
REMARK    4  A    between atoms: C_13  and  C_14
REMARK    5  A    between atoms: C_17  and  O_18
REMARK                            x       y       z     vdW  Elec       q    Type
REMARK                         _______ _______ _______ _____ _____    ______ ____
ROOT
ATOM      1  C   UNL     1      15.914  41.497  43.900  0.00  0.00    +0.000 A 
ATOM      2  C   UNL     1      15.715  42.613  43.069  0.00  0.00    +0.000 A 
ATOM      3  C   UNL     1      15.061  43.764  43.530  0.00  0.00    +0.000 A 
ATOM      4  C   UNL     1      14.574  43.843  44.841  0.00  0.00    +0.000 A 
ATOM      5  C   UNL     1      14.762  42.732  45.674  0.00  0.00    +0.000 A 
ATOM      6  C   UNL     1      15.417  41.580  45.211  0.00  0.00    +0.000 A 
ENDROOT
BRANCH   1  10
ATOM      7  C   UNL     1      17.837  38.000  42.650  0.00  0.00    +0.000 A 
ATOM      8  C   UNL     1      17.804  39.027  41.741  0.00  0.00    +0.000 A 
ATOM      9  C   UNL     1      17.172  40.205  42.124  0.00  0.00    +0.000 A 
ATOM     10  C   UNL     1      16.608  40.295  43.396  0.00  0.00    +0.000 A 
ATOM     11  N   UNL     1      16.671  39.238  44.247  0.00  0.00    +0.000 NA
ATOM     12  N   UNL     1      17.293  38.077  43.873  0.00  0.00    +0.000 NA
BRANCH   7  13
ATOM     13  O   UNL     1      18.437  36.821  42.344  0.00  0.00    +0.000 OA
ATOM     14  H   UNL     1      17.819  36.185  42.748  0.00  0.00    +0.000 HD
ENDBRANCH   7  13
ENDBRANCH   1  10
BRANCH   4  15
ATOM     15  C   UNL     1      13.885  45.050  45.327  0.00  0.00    +0.000 A 
ATOM     16  C   UNL     1      12.765  44.957  46.166  0.00  0.00    +0.000 A 
ATOM     17  C   UNL     1      12.111  46.104  46.633  0.00  0.00    +0.000 A 
ATOM     18  C   UNL     1      12.544  47.393  46.278  0.00  0.00    +0.000 A 
ATOM     19  C   UNL     1      13.671  47.478  45.442  0.00  0.00    +0.000 A 
ATOM     20  C   UNL     1      14.328  46.331  44.974  0.00  0.00    +0.000 A 
BRANCH  18  21
ATOM     21  C   UNL     1      11.867  48.614  46.755  0.00  0.00    +0.000 A 
ATOM     22  C   UNL     1      12.247  49.903  46.393  0.00  0.00    +0.000 A 
ATOM     23  C   UNL     1      11.546  50.996  46.900  0.00  0.00    +0.000 A 
ATOM     24  C   UNL     1      10.492  50.750  47.755  0.00  0.00    +0.000 A 
ATOM     25  N   UNL     1      10.132  49.508  48.107  0.00  0.00    +0.000 NA
ATOM     26  N   UNL     1      10.827  48.433  47.604  0.00  0.00    +0.000 NA
BRANCH  24  27
ATOM     27  O   UNL     1       9.756  51.764  48.295  0.00  0.00    +0.000 OA
ATOM     28  H   UNL     1       9.622  51.575  49.234  0.00  0.00    +0.000 HD
ENDBRANCH  24  27
ENDBRANCH  18  21
ENDBRANCH   4  15
TORSDOF 5
ENDMDL
