MODEL 1
REMARK VINA RESULT:    -7.418      0.000      0.000
REMARK INTER + INTRA:         -10.444
REMARK INTER:                  -9.708
REMARK INTRA:                  -0.736
REMARK UNBOUND:                -0.641
REMARK  Name = 
REMARK  8 active torsions:
REMARK  status: ('A' for Active; 'I' for Inactive)
REMARK    1  A    between atoms: C_1  and  C_2
REMARK    2  A    between atoms: C_2  and  C_3
REMARK    3  A    between atoms: C_10  and  C_11
REMARK    4  A    between atoms: N_13  and  C_14
REMARK    5  A    between atoms: C_14  and  C_15
REMARK    6  A    between atoms: C_19  and  C_20
REMARK    7  A    between atoms: C_21  and  C_22
REMARK    8  A    between atoms: N_24  and  O_25
REMARK                            x       y       z     vdW  Elec       q    Type
REMARK                         _______ _______ _______ _____ _____    ______ ____
ROOT
ATOM      1  C   UNL     1      16.340  38.958  46.942  0.00  0.00    +0.000 C 
ATOM      2  O   UNL     1      16.697  37.893  46.451  0.00  0.00    +0.000 OA
ATOM      3  N   UNL     1      16.301  39.200  48.298  0.00  0.00    +0.000 N 
ATOM      4  H   UNL     1      16.239  40.155  48.621  0.00  0.00    +0.000 HD
ENDROOT
BRANCH   1  14
ATOM      5  C   UNL     1      13.332  43.036  42.977  0.00  0.00    +0.000 C 
ATOM      6  C   UNL     1      14.682  43.447  43.602  0.00  0.00    +0.000 C 
ATOM      7  C   UNL     1      15.649  43.832  42.462  0.00  0.00    +0.000 C 
ATOM      8  C   UNL     1      14.496  44.698  44.481  0.00  0.00    +0.000 C 
ATOM      9  C   UNL     1      13.769  44.419  45.773  0.00  0.00    +0.000 C 
ATOM     10  O   UNL     1      13.027  45.241  46.304  0.00  0.00    +0.000 OA
ATOM     11  N   UNL     1      14.063  43.234  46.384  0.00  0.00    +0.000 N 
ATOM     12  C   UNL     1      14.835  42.221  45.811  0.00  0.00    +0.000 A 
ATOM     13  C   UNL     1      15.204  41.134  46.605  0.00  0.00    +0.000 A 
ATOM     14  C   UNL     1      15.959  40.092  46.058  0.00  0.00    +0.000 A 
ATOM     15  C   UNL     1      16.347  40.153  44.715  0.00  0.00    +0.000 A 
ATOM     16  C   UNL     1      15.958  41.237  43.920  0.00  0.00    +0.000 A 
ATOM     17  C   UNL     1      15.198  42.288  44.456  0.00  0.00    +0.000 A 
ATOM     18  H   UNL     1      13.682  43.117  47.315  0.00  0.00    +0.000 HD
ENDBRANCH   1  14
BRANCH   3  19
ATOM     19  C   UNL     1      16.787  38.224  49.249  0.00  0.00    +0.000 C 
BRANCH  19  20
ATOM     20  C   UNL     1      17.088  38.876  50.576  0.00  0.00    +0.000 A 
ATOM     21  C   UNL     1      17.866  38.204  51.528  0.00  0.00    +0.000 A 
ATOM     22  C   UNL     1      18.161  38.806  52.750  0.00  0.00    +0.000 A 
ATOM     23  C   UNL     1      17.690  40.090  53.030  0.00  0.00    +0.000 A 
ATOM     24  C   UNL     1      16.930  40.790  52.085  0.00  0.00    +0.000 A 
ATOM     25  C   UNL     1      16.626  40.170  50.864  0.00  0.00    +0.000 A 
BRANCH  24  26
ATOM     26  C   UNL     1      16.394  42.133  52.353  0.00  0.00    +0.000 C 
ATOM     27  C   UNL     1      15.605  42.413  53.402  0.00  0.00    +0.000 C 
BRANCH  27  28
ATOM     28  C   UNL     1      15.028  43.749  53.678  0.00  0.00    +0.000 C 
ATOM     29  O   UNL     1      13.922  43.861  54.198  0.00  0.00    +0.000 OA
ATOM     30  N   UNL     1      15.830  44.825  53.405  0.00  0.00    +0.000 N 
ATOM     31  H   UNL     1      16.833  44.743  53.290  0.00  0.00    +0.000 HD
BRANCH  30  32
ATOM     32  O   UNL     1      15.361  46.071  53.889  0.00  0.00    +0.000 OA
ATOM     33  H   UNL     1      16.186  46.496  54.211  0.00  0.00    +0.000 HD
ENDBRANCH  30  32
ENDBRANCH  27  28
ENDBRANCH  24  26
ENDBRANCH  19  20
ENDBRANCH   3  19
TORSDOF 6
ENDMDL
MODEL 2
REMARK VINA RESULT:    -7.417      2.089      2.856
REMARK INTER + INTRA:         -10.442
REMARK INTER:                  -9.801
REMARK INTRA:                  -0.641
REMARK UNBOUND:                -0.641
REMARK  Name = 
REMARK  8 active torsions:
REMARK  status: ('A' for Active; 'I' for Inactive)
REMARK    1  A    between atoms: C_1  and  C_2
REMARK    2  A    between atoms: C_2  and  C_3
REMARK    3  A    between atoms: C_10  and  C_11
REMARK    4  A    between atoms: N_13  and  C_14
REMARK    5  A    between atoms: C_14  and  C_15
REMARK    6  A    between atoms: C_19  and  C_20
REMARK    7  A    between atoms: C_21  and  C_22
REMARK    8  A    between atoms: N_24  and  O_25
REMARK                            x       y       z     vdW  Elec       q    Type
REMARK                         _______ _______ _______ _____ _____    ______ ____
ROOT
ATOM      1  C   UNL     1      16.129  38.707  48.039  0.00  0.00    +0.000 C 
ATOM      2  O   UNL     1      15.506  37.656  48.135  0.00  0.00    +0.000 OA
ATOM      3  N   UNL     1      17.037  39.148  48.978  0.00  0.00    +0.000 N 
ATOM      4  H   UNL     1      17.684  39.880  48.723  0.00  0.00    +0.000 HD
ENDROOT
BRANCH   1  14
ATOM      5  C   UNL     1      16.795  42.989  43.282  0.00  0.00    +0.000 C 
ATOM      6  C   UNL     1      15.623  41.987  43.238  0.00  0.00    +0.000 C 
ATOM      7  C   UNL     1      14.307  42.783  43.102  0.00  0.00    +0.000 C 
ATOM      8  C   UNL     1      15.741  41.090  41.991  0.00  0.00    +0.000 C 
ATOM      9  C   UNL     1      16.852  40.074  42.088  0.00  0.00    +0.000 C 
ATOM     10  O   UNL     1      17.492  39.699  41.109  0.00  0.00    +0.000 OA
ATOM     11  N   UNL     1      17.042  39.507  43.316  0.00  0.00    +0.000 N 
ATOM     12  C   UNL     1      16.409  39.930  44.487  0.00  0.00    +0.000 A 
ATOM     13  C   UNL     1      16.557  39.159  45.640  0.00  0.00    +0.000 A 
ATOM     14  C   UNL     1      15.955  39.565  46.836  0.00  0.00    +0.000 A 
ATOM     15  C   UNL     1      15.197  40.740  46.861  0.00  0.00    +0.000 A 
ATOM     16  C   UNL     1      15.067  41.518  45.705  0.00  0.00    +0.000 A 
ATOM     17  C   UNL     1      15.669  41.124  44.500  0.00  0.00    +0.000 A 
ATOM     18  H   UNL     1      17.689  38.728  43.341  0.00  0.00    +0.000 HD
ENDBRANCH   1  14
BRANCH   3  19
ATOM     19  C   UNL     1      17.398  38.330  50.115  0.00  0.00    +0.000 C 
BRANCH  19  20
ATOM     20  C   UNL     1      17.269  39.112  51.398  0.00  0.00    +0.000 A 
ATOM     21  C   UNL     1      17.778  38.588  52.593  0.00  0.00    +0.000 A 
ATOM     22  C   UNL     1      17.677  39.312  53.780  0.00  0.00    +0.000 A 
ATOM     23  C   UNL     1      17.073  40.571  53.783  0.00  0.00    +0.000 A 
ATOM     24  C   UNL     1      16.577  41.124  52.597  0.00  0.00    +0.000 A 
ATOM     25  C   UNL     1      16.671  40.382  51.410  0.00  0.00    +0.000 A 
BRANCH  24  26
ATOM     26  C   UNL     1      15.912  42.435  52.564  0.00  0.00    +0.000 C 
ATOM     27  C   UNL     1      15.436  43.044  53.661  0.00  0.00    +0.000 C 
BRANCH  27  28
ATOM     28  C   UNL     1      14.736  44.350  53.651  0.00  0.00    +0.000 C 
ATOM     29  O   UNL     1      13.597  44.456  54.097  0.00  0.00    +0.000 OA
ATOM     30  N   UNL     1      15.460  45.425  53.207  0.00  0.00    +0.000 N 
ATOM     31  H   UNL     1      16.470  45.414  53.149  0.00  0.00    +0.000 HD
BRANCH  30  32
ATOM     32  O   UNL     1      14.863  46.690  53.423  0.00  0.00    +0.000 OA
ATOM     33  H   UNL     1      15.074  46.864  54.367  0.00  0.00    +0.000 HD
ENDBRANCH  30  32
ENDBRANCH  27  28
ENDBRANCH  24  26
ENDBRANCH  19  20
ENDBRANCH   3  19
TORSDOF 6
ENDMDL
MODEL 3
REMARK VINA RESULT:    -7.373      1.695      2.374
REMARK INTER + INTRA:         -10.384
REMARK INTER:                  -9.601
REMARK INTRA:                  -0.783
REMARK UNBOUND:                -0.641
REMARK  Name = 
REMARK  8 active torsions:
REMARK  status: ('A' for Active; 'I' for Inactive)
REMARK    1  A    between atoms: C_1  and  C_2
REMARK    2  A    between atoms: C_2  and  C_3
REMARK    3  A    between atoms: C_10  and  C_11
REMARK    4  A    between atoms: N_13  and  C_14
REMARK    5  A    between atoms: C_14  and  C_15
REMARK    6  A    between atoms: C_19  and  C_20
REMARK    7  A    between atoms: C_21  and  C_22
REMARK    8  A    between atoms: N_24  and  O_25
REMARK                            x       y       z     vdW  Elec       q    Type
REMARK                         _______ _______ _______ _____ _____    ______ ____
ROOT
ATOM      1  C   UNL     1      14.416  39.918  48.202  0.00  0.00    +0.000 C 
ATOM      2  O   UNL     1      13.503  39.229  48.640  0.00  0.00    +0.000 OA
ATOM      3  N   UNL     1      15.750  39.656  48.427  0.00  0.00    +0.000 N 
ATOM      4  H   UNL     1      16.440  40.107  47.844  0.00  0.00    +0.000 HD
ENDROOT
BRANCH   1  14
ATOM      5  C   UNL     1      14.097  45.731  45.459  0.00  0.00    +0.000 C 
ATOM      6  C   UNL     1      13.422  44.529  44.765  0.00  0.00    +0.000 C 
ATOM      7  C   UNL     1      11.939  44.880  44.520  0.00  0.00    +0.000 C 
ATOM      8  C   UNL     1      14.065  44.288  43.386  0.00  0.00    +0.000 C 
ATOM      9  C   UNL     1      15.453  43.702  43.467  0.00  0.00    +0.000 C 
ATOM     10  O   UNL     1      16.328  43.961  42.646  0.00  0.00    +0.000 OA
ATOM     11  N   UNL     1      15.657  42.775  44.450  0.00  0.00    +0.000 N 
ATOM     12  C   UNL     1      14.740  42.484  45.462  0.00  0.00    +0.000 A 
ATOM     13  C   UNL     1      14.996  41.399  46.301  0.00  0.00    +0.000 A 
ATOM     14  C   UNL     1      14.110  41.090  47.338  0.00  0.00    +0.000 A 
ATOM     15  C   UNL     1      12.964  41.871  47.519  0.00  0.00    +0.000 A 
ATOM     16  C   UNL     1      12.722  42.969  46.686  0.00  0.00    +0.000 A 
ATOM     17  C   UNL     1      13.604  43.291  45.643  0.00  0.00    +0.000 A 
ATOM     18  H   UNL     1      16.542  42.285  44.409  0.00  0.00    +0.000 HD
ENDBRANCH   1  14
BRANCH   3  19
ATOM     19  C   UNL     1      16.173  38.463  49.128  0.00  0.00    +0.000 C 
BRANCH  19  20
ATOM     20  C   UNL     1      16.868  38.819  50.418  0.00  0.00    +0.000 A 
ATOM     21  C   UNL     1      17.891  38.001  50.913  0.00  0.00    +0.000 A 
ATOM     22  C   UNL     1      18.549  38.333  52.097  0.00  0.00    +0.000 A 
ATOM     23  C   UNL     1      18.196  39.490  52.794  0.00  0.00    +0.000 A 
ATOM     24  C   UNL     1      17.192  40.335  52.306  0.00  0.00    +0.000 A 
ATOM     25  C   UNL     1      16.526  39.985  51.122  0.00  0.00    +0.000 A 
BRANCH  24  26
ATOM     26  C   UNL     1      16.775  41.548  53.024  0.00  0.00    +0.000 C 
ATOM     27  C   UNL     1      15.621  42.188  52.776  0.00  0.00    +0.000 C 
BRANCH  27  28
ATOM     28  C   UNL     1      15.191  43.427  53.464  0.00  0.00    +0.000 C 
ATOM     29  O   UNL     1      14.401  43.384  54.403  0.00  0.00    +0.000 OA
ATOM     30  N   UNL     1      15.790  44.589  53.053  0.00  0.00    +0.000 N 
ATOM     31  H   UNL     1      16.653  44.600  52.526  0.00  0.00    +0.000 HD
BRANCH  30  32
ATOM     32  O   UNL     1      15.545  45.720  53.870  0.00  0.00    +0.000 OA
ATOM     33  H   UNL     1      14.855  46.201  53.362  0.00  0.00    +0.000 HD
ENDBRANCH  30  32
ENDBRANCH  27  28
ENDBRANCH  24  26
ENDBRANCH  19  20
ENDBRANCH   3  19
TORSDOF 6
ENDMDL
