MODEL 1
REMARK VINA RESULT:    -6.664      0.000      0.000
REMARK INTER + INTRA:          -6.664
REMARK INTER:                  -6.664
REMARK INTRA:                   0.000
REMARK UNBOUND:                 0.000
REMARK  Name = 
REMARK  2 active torsions:
REMARK  status: ('A' for Active; 'I' for Inactive)
REMARK    1  A    between atoms: C_1  and  C_2
REMARK    2  A    between atoms: C_2  and  C_3
REMARK                            x       y       z     vdW  Elec       q    Type
REMARK                         _______ _______ _______ _____ _____    ______ ____
ROOT
ATOM      1  C   UNL     1       8.828  43.946  47.042  0.00  0.00    +0.000 C 
ATOM      2  C   UNL     1       9.866  44.186  48.149  0.00  0.00    +0.000 C 
ATOM      3  C   UNL     1       9.128  44.645  49.416  0.00  0.00    +0.000 C 
ATOM      4  C   UNL     1      10.690  42.941  48.481  0.00  0.00    +0.000 C 
ATOM      5  C   UNL     1      11.548  42.529  47.297  0.00  0.00    +0.000 C 
ATOM      6  C   UNL     1      12.230  43.720  46.672  0.00  0.00    +0.000 A 
ATOM      7  C   UNL     1      11.778  45.017  46.941  0.00  0.00    +0.000 A 
ATOM      8  C   UNL     1      12.421  46.134  46.372  0.00  0.00    +0.000 A 
ATOM      9  C   UNL     1      12.008  47.460  46.640  0.00  0.00    +0.000 A 
ATOM     10  C   UNL     1      12.650  48.557  46.070  0.00  0.00    +0.000 A 
ATOM     11  C   UNL     1      13.723  48.354  45.215  0.00  0.00    +0.000 A 
ATOM     12  C   UNL     1      14.146  47.055  44.935  0.00  0.00    +0.000 A 
ATOM     13  C   UNL     1      13.513  45.924  45.500  0.00  0.00    +0.000 A 
ATOM     14  C   UNL     1      13.952  44.619  45.203  0.00  0.00    +0.000 A 
ATOM     15  N   UNL     1      14.991  44.416  44.355  0.00  0.00    +0.000 NA
ATOM     16  C   UNL     1      15.377  43.157  44.093  0.00  0.00    +0.000 A 
ATOM     17  C   UNL     1      16.440  42.923  43.227  0.00  0.00    +0.000 A 
ATOM     18  C   UNL     1      16.866  41.628  42.933  0.00  0.00    +0.000 A 
ATOM     19  C   UNL     1      16.217  40.547  43.515  0.00  0.00    +0.000 A 
ATOM     20  C   UNL     1      15.149  40.775  44.385  0.00  0.00    +0.000 A 
ATOM     21  C   UNL     1      14.720  42.063  44.682  0.00  0.00    +0.000 A 
ATOM     22  N   UNL     1      13.690  42.249  45.524  0.00  0.00    +0.000 NA
ATOM     23  C   UNL     1      13.297  43.512  45.795  0.00  0.00    +0.000 A 
ATOM     24  O   UNL     1      10.715  45.280  47.773  0.00  0.00    +0.000 OA
ENDROOT
TORSDOF 0
ENDMDL
MODEL 2
REMARK VINA RESULT:    -6.152      3.638      8.305
REMARK INTER + INTRA:          -6.152
REMARK INTER:                  -6.152
REMARK INTRA:                   0.000
REMARK UNBOUND:                 0.000
REMARK  Name = 
REMARK  2 active torsions:
REMARK  status: ('A' for Active; 'I' for Inactive)
REMARK    1  A    between atoms: C_1  and  C_2
REMARK    2  A    between atoms: C_2  and  C_3
REMARK                            x       y       z     vdW  Elec       q    Type
REMARK                         _______ _______ _______ _____ _____    ______ ____
ROOT
ATOM      1  C   UNL     1      16.394  37.036  41.427  0.00  0.00    +0.000 C 
ATOM      2  C   UNL     1      17.719  37.670  41.876  0.00  0.00    +0.000 C 
ATOM      3  C   UNL     1      18.869  36.741  41.457  0.00  0.00    +0.000 C 
ATOM      4  C   UNL     1      17.959  39.055  41.274  0.00  0.00    +0.000 C 
ATOM      5  C   UNL     1      16.923  40.048  41.772  0.00  0.00    +0.000 C 
ATOM      6  C   UNL     1      16.709  39.918  43.259  0.00  0.00    +0.000 A 
ATOM      7  C   UNL     1      17.133  38.769  43.938  0.00  0.00    +0.000 A 
ATOM      8  C   UNL     1      16.949  38.649  45.330  0.00  0.00    +0.000 A 
ATOM      9  C   UNL     1      17.386  37.515  46.053  0.00  0.00    +0.000 A 
ATOM     10  C   UNL     1      17.197  37.406  47.430  0.00  0.00    +0.000 A 
ATOM     11  C   UNL     1      16.564  38.430  48.117  0.00  0.00    +0.000 A 
ATOM     12  C   UNL     1      16.123  39.557  47.424  0.00  0.00    +0.000 A 
ATOM     13  C   UNL     1      16.302  39.694  46.028  0.00  0.00    +0.000 A 
ATOM     14  C   UNL     1      15.847  40.837  45.343  0.00  0.00    +0.000 A 
ATOM     15  N   UNL     1      15.213  41.835  46.010  0.00  0.00    +0.000 NA
ATOM     16  C   UNL     1      14.789  42.907  45.322  0.00  0.00    +0.000 A 
ATOM     17  C   UNL     1      14.137  43.942  45.983  0.00  0.00    +0.000 A 
ATOM     18  C   UNL     1      13.683  45.069  45.298  0.00  0.00    +0.000 A 
ATOM     19  C   UNL     1      13.885  45.163  43.928  0.00  0.00    +0.000 A 
ATOM     20  C   UNL     1      14.540  44.127  43.258  0.00  0.00    +0.000 A 
ATOM     21  C   UNL     1      14.994  43.002  43.935  0.00  0.00    +0.000 A 
ATOM     22  N   UNL     1      15.620  42.023  43.261  0.00  0.00    +0.000 NA
ATOM     23  C   UNL     1      16.052  40.942  43.947  0.00  0.00    +0.000 A 
ATOM     24  O   UNL     1      17.758  37.719  43.310  0.00  0.00    +0.000 OA
ENDROOT
TORSDOF 0
ENDMDL
MODEL 3
REMARK VINA RESULT:    -6.031      2.476      4.257
REMARK INTER + INTRA:          -6.031
REMARK INTER:                  -6.031
REMARK INTRA:                   0.000
REMARK UNBOUND:                 0.000
REMARK  Name = 
REMARK  2 active torsions:
REMARK  status: ('A' for Active; 'I' for Inactive)
REMARK    1  A    between atoms: C_1  and  C_2
REMARK    2  A    between atoms: C_2  and  C_3
REMARK                            x       y       z     vdW  Elec       q    Type
REMARK                         _______ _______ _______ _____ _____    ______ ____
ROOT
ATOM      1  C   UNL     1      10.624  45.291  45.154  0.00  0.00    +0.000 C 
ATOM      2  C   UNL     1      11.949  46.062  45.046  0.00  0.00    +0.000 C 
ATOM      3  C   UNL     1      11.633  47.565  44.996  0.00  0.00    +0.000 C 
ATOM      4  C   UNL     1      12.898  45.795  46.216  0.00  0.00    +0.000 C 
ATOM      5  C   UNL     1      13.350  44.345  46.225  0.00  0.00    +0.000 C 
ATOM      6  C   UNL     1      13.735  43.881  44.842  0.00  0.00    +0.000 A 
ATOM      7  C   UNL     1      13.328  44.604  43.714  0.00  0.00    +0.000 A 
ATOM      8  C   UNL     1      13.699  44.184  42.421  0.00  0.00    +0.000 A 
ATOM      9  C   UNL     1      13.327  44.901  41.260  0.00  0.00    +0.000 A 
ATOM     10  C   UNL     1      13.696  44.475  39.985  0.00  0.00    +0.000 A 
ATOM     11  C   UNL     1      14.448  43.318  39.841  0.00  0.00    +0.000 A 
ATOM     12  C   UNL     1      14.824  42.594  40.973  0.00  0.00    +0.000 A 
ATOM     13  C   UNL     1      14.463  43.004  42.277  0.00  0.00    +0.000 A 
ATOM     14  C   UNL     1      14.848  42.258  43.408  0.00  0.00    +0.000 A 
ATOM     15  N   UNL     1      15.570  41.118  43.270  0.00  0.00    +0.000 NA
ATOM     16  C   UNL     1      15.914  40.432  44.371  0.00  0.00    +0.000 A 
ATOM     17  C   UNL     1      16.654  39.259  44.256  0.00  0.00    +0.000 A 
ATOM     18  C   UNL     1      17.027  38.522  45.380  0.00  0.00    +0.000 A 
ATOM     19  C   UNL     1      16.654  38.965  46.641  0.00  0.00    +0.000 A 
ATOM     20  C   UNL     1      15.912  40.141  46.765  0.00  0.00    +0.000 A 
ATOM     21  C   UNL     1      15.537  40.880  45.649  0.00  0.00    +0.000 A 
ATOM     22  N   UNL     1      14.823  42.007  45.801  0.00  0.00    +0.000 NA
ATOM     23  C   UNL     1      14.474  42.705  44.698  0.00  0.00    +0.000 A 
ATOM     24  O   UNL     1      12.577  45.752  43.793  0.00  0.00    +0.000 OA
ENDROOT
TORSDOF 0
ENDMDL
