MODEL 1
REMARK VINA RESULT:    -6.754      0.000      0.000
REMARK INTER + INTRA:          -7.510
REMARK INTER:                  -7.174
REMARK INTRA:                  -0.336
REMARK UNBOUND:                 0.034
REMARK  Name = 
REMARK  3 active torsions:
REMARK  status: ('A' for Active; 'I' for Inactive)
REMARK    1  A    between atoms: C_1  and  C_2
REMARK    2  A    between atoms: C_6  and  C_7
REMARK    3  A    between atoms: C_12  and  N_13
REMARK                            x       y       z     vdW  Elec       q    Type
REMARK                         _______ _______ _______ _____ _____    ______ ____
ROOT
ATOM      1  C   UNL     1      17.987  36.969  49.831  0.00  0.00    +0.000 C 
ATOM      2  O   UNL     1      17.637  36.966  48.653  0.00  0.00    +0.000 OA
ATOM      3  N   UNL     1      19.061  36.217  50.317  0.00  0.00    +0.000 N 
ATOM      4  C   UNL     1      19.733  36.530  51.583  0.00  0.00    +0.000 C 
ATOM      5  C   UNL     1      21.149  35.970  51.668  0.00  0.00    +0.000 C 
ATOM      6  C   UNL     1      21.132  34.473  51.339  0.00  0.00    +0.000 C 
ATOM      7  C   UNL     1      20.388  34.131  50.034  0.00  0.00    +0.000 C 
ATOM      8  C   UNL     1      19.756  35.351  49.371  0.00  0.00    +0.000 C 
ENDROOT
BRANCH   1  14
ATOM      9  C   UNL     1      15.349  42.828  53.714  0.00  0.00    +0.000 C 
ATOM     10  C   UNL     1      15.782  41.588  53.025  0.00  0.00    +0.000 A 
ATOM     11  C   UNL     1      16.701  41.388  52.016  0.00  0.00    +0.000 A 
ATOM     12  C   UNL     1      16.735  39.999  51.720  0.00  0.00    +0.000 A 
ATOM     13  C   UNL     1      17.464  39.212  50.808  0.00  0.00    +0.000 A 
ATOM     14  C   UNL     1      17.232  37.830  50.772  0.00  0.00    +0.000 A 
ATOM     15  C   UNL     1      16.331  37.225  51.652  0.00  0.00    +0.000 A 
ATOM     16  C   UNL     1      15.603  37.992  52.567  0.00  0.00    +0.000 A 
ATOM     17  C   UNL     1      15.824  39.374  52.572  0.00  0.00    +0.000 A 
ATOM     18  N   UNL     1      15.262  40.360  53.351  0.00  0.00    +0.000 N 
ATOM     19  H   UNL     1      14.568  40.194  54.068  0.00  0.00    +0.000 HD
ENDBRANCH   1  14
BRANCH   6  20
ATOM     20  N   UNL     1      22.445  33.821  51.518  0.00  0.00    +0.000 N 
ATOM     21  C   UNL     1      22.619  33.094  52.711  0.00  0.00    +0.000 C 
ATOM     22  O   UNL     1      21.757  33.015  53.585  0.00  0.00    +0.000 OA
ATOM     23  O   UNL     1      23.822  32.492  52.923  0.00  0.00    +0.000 OA
ATOM     24  C   UNL     1      24.619  32.145  51.797  0.00  0.00    +0.000 C 
ATOM     25  C   UNL     1      24.685  33.258  50.811  0.00  0.00    +0.000 A 
ATOM     26  C   UNL     1      25.814  33.429  49.997  0.00  0.00    +0.000 A 
ATOM     27  C   UNL     1      25.833  34.427  49.028  0.00  0.00    +0.000 A 
ATOM     28  C   UNL     1      24.719  35.243  48.868  0.00  0.00    +0.000 A 
ATOM     29  C   UNL     1      23.591  35.062  49.675  0.00  0.00    +0.000 A 
ATOM     30  C   UNL     1      23.556  34.067  50.658  0.00  0.00    +0.000 A 
ENDBRANCH   6  20
TORSDOF 2
ENDMDL
MODEL 2
REMARK VINA RESULT:    -6.322      6.775      8.946
REMARK INTER + INTRA:          -7.027
REMARK INTER:                  -6.718
REMARK INTRA:                  -0.309
REMARK UNBOUND:                 0.034
REMARK  Name = 
REMARK  3 active torsions:
REMARK  status: ('A' for Active; 'I' for Inactive)
REMARK    1  A    between atoms: C_1  and  C_2
REMARK    2  A    between atoms: C_6  and  C_7
REMARK    3  A    between atoms: C_12  and  N_13
REMARK                            x       y       z     vdW  Elec       q    Type
REMARK                         _______ _______ _______ _____ _____    ______ ____
ROOT
ATOM      1  C   UNL     1      14.286  39.226  48.963  0.00  0.00    +0.000 C 
ATOM      2  O   UNL     1      13.815  38.129  48.672  0.00  0.00    +0.000 OA
ATOM      3  N   UNL     1      14.553  39.626  50.277  0.00  0.00    +0.000 N 
ATOM      4  C   UNL     1      15.478  40.718  50.596  0.00  0.00    +0.000 C 
ATOM      5  C   UNL     1      16.030  40.645  52.017  0.00  0.00    +0.000 C 
ATOM      6  C   UNL     1      14.872  40.515  53.012  0.00  0.00    +0.000 C 
ATOM      7  C   UNL     1      13.870  39.399  52.659  0.00  0.00    +0.000 C 
ATOM      8  C   UNL     1      14.199  38.697  51.345  0.00  0.00    +0.000 C 
ENDROOT
BRANCH   1  14
ATOM      9  C   UNL     1      14.262  45.029  44.201  0.00  0.00    +0.000 C 
ATOM     10  C   UNL     1      14.374  43.827  45.063  0.00  0.00    +0.000 A 
ATOM     11  C   UNL     1      13.668  43.453  46.187  0.00  0.00    +0.000 A 
ATOM     12  C   UNL     1      14.178  42.203  46.631  0.00  0.00    +0.000 A 
ATOM     13  C   UNL     1      13.862  41.343  47.700  0.00  0.00    +0.000 A 
ATOM     14  C   UNL     1      14.597  40.159  47.855  0.00  0.00    +0.000 A 
ATOM     15  C   UNL     1      15.596  39.804  46.945  0.00  0.00    +0.000 A 
ATOM     16  C   UNL     1      15.919  40.645  45.875  0.00  0.00    +0.000 A 
ATOM     17  C   UNL     1      15.196  41.838  45.750  0.00  0.00    +0.000 A 
ATOM     18  N   UNL     1      15.293  42.839  44.810  0.00  0.00    +0.000 N 
ATOM     19  H   UNL     1      15.946  42.836  44.039  0.00  0.00    +0.000 HD
ENDBRANCH   1  14
BRANCH   6  20
ATOM     20  N   UNL     1      15.308  40.563  54.423  0.00  0.00    +0.000 N 
ATOM     21  C   UNL     1      15.104  41.785  55.093  0.00  0.00    +0.000 C 
ATOM     22  O   UNL     1      14.624  42.779  54.553  0.00  0.00    +0.000 OA
ATOM     23  O   UNL     1      15.509  41.875  56.391  0.00  0.00    +0.000 OA
ATOM     24  C   UNL     1      15.593  40.684  57.164  0.00  0.00    +0.000 C 
ATOM     25  C   UNL     1      16.272  39.594  56.413  0.00  0.00    +0.000 A 
ATOM     26  C   UNL     1      17.008  38.608  57.089  0.00  0.00    +0.000 A 
ATOM     27  C   UNL     1      17.574  37.553  56.382  0.00  0.00    +0.000 A 
ATOM     28  C   UNL     1      17.395  37.477  55.006  0.00  0.00    +0.000 A 
ATOM     29  C   UNL     1      16.651  38.456  54.339  0.00  0.00    +0.000 A 
ATOM     30  C   UNL     1      16.078  39.528  55.031  0.00  0.00    +0.000 A 
ENDBRANCH   6  20
TORSDOF 2
ENDMDL
MODEL 3
REMARK VINA RESULT:    -6.315     10.638     15.744
REMARK INTER + INTRA:          -7.020
REMARK INTER:                  -7.054
REMARK INTRA:                   0.034
REMARK UNBOUND:                 0.034
REMARK  Name = 
REMARK  3 active torsions:
REMARK  status: ('A' for Active; 'I' for Inactive)
REMARK    1  A    between atoms: C_1  and  C_2
REMARK    2  A    between atoms: C_6  and  C_7
REMARK    3  A    between atoms: C_12  and  N_13
REMARK                            x       y       z     vdW  Elec       q    Type
REMARK                         _______ _______ _______ _____ _____    ______ ____
ROOT
ATOM      1  C   UNL     1      12.791  44.923  43.710  0.00  0.00    +0.000 C 
ATOM      2  O   UNL     1      11.633  44.705  43.365  0.00  0.00    +0.000 OA
ATOM      3  N   UNL     1      13.243  46.175  44.141  0.00  0.00    +0.000 N 
ATOM      4  C   UNL     1      14.465  46.342  44.934  0.00  0.00    +0.000 C 
ATOM      5  C   UNL     1      14.495  47.642  45.730  0.00  0.00    +0.000 C 
ATOM      6  C   UNL     1      14.205  48.824  44.798  0.00  0.00    +0.000 C 
ATOM      7  C   UNL     1      12.948  48.637  43.928  0.00  0.00    +0.000 C 
ATOM      8  C   UNL     1      12.286  47.276  44.123  0.00  0.00    +0.000 C 
ENDROOT
BRANCH   1  14
ATOM      9  C   UNL     1      16.876  38.881  45.489  0.00  0.00    +0.000 C 
ATOM     10  C   UNL     1      16.139  40.077  45.012  0.00  0.00    +0.000 A 
ATOM     11  C   UNL     1      15.159  40.836  45.618  0.00  0.00    +0.000 A 
ATOM     12  C   UNL     1      14.789  41.874  44.721  0.00  0.00    +0.000 A 
ATOM     13  C   UNL     1      13.866  42.935  44.782  0.00  0.00    +0.000 A 
ATOM     14  C   UNL     1      13.746  43.791  43.678  0.00  0.00    +0.000 A 
ATOM     15  C   UNL     1      14.555  43.633  42.550  0.00  0.00    +0.000 A 
ATOM     16  C   UNL     1      15.479  42.586  42.475  0.00  0.00    +0.000 A 
ATOM     17  C   UNL     1      15.568  41.723  43.573  0.00  0.00    +0.000 A 
ATOM     18  N   UNL     1      16.376  40.627  43.777  0.00  0.00    +0.000 N 
ATOM     19  H   UNL     1      17.054  40.286  43.109  0.00  0.00    +0.000 HD
ENDBRANCH   1  14
BRANCH   6  20
ATOM     20  N   UNL     1      14.336  50.137  45.463  0.00  0.00    +0.000 N 
ATOM     21  C   UNL     1      13.198  50.602  46.148  0.00  0.00    +0.000 C 
ATOM     22  O   UNL     1      12.134  49.988  46.182  0.00  0.00    +0.000 OA
ATOM     23  O   UNL     1      13.273  51.817  46.759  0.00  0.00    +0.000 OA
ATOM     24  C   UNL     1      14.548  52.302  47.159  0.00  0.00    +0.000 C 
ATOM     25  C   UNL     1      15.561  52.123  46.083  0.00  0.00    +0.000 A 
ATOM     26  C   UNL     1      16.640  53.012  45.959  0.00  0.00    +0.000 A 
ATOM     27  C   UNL     1      17.620  52.790  44.998  0.00  0.00    +0.000 A 
ATOM     28  C   UNL     1      17.528  51.677  44.171  0.00  0.00    +0.000 A 
ATOM     29  C   UNL     1      16.456  50.788  44.307  0.00  0.00    +0.000 A 
ATOM     30  C   UNL     1      15.458  50.997  45.264  0.00  0.00    +0.000 A 
ENDBRANCH   6  20
TORSDOF 2
ENDMDL
