MODEL 1
REMARK VINA RESULT:    -6.607      0.000      0.000
REMARK INTER + INTRA:         -10.818
REMARK INTER:                  -9.372
REMARK INTRA:                  -1.447
REMARK UNBOUND:                -1.507
REMARK  Name = 
REMARK  8 active torsions:
REMARK  status: ('A' for Active; 'I' for Inactive)
REMARK    1  A    between atoms: C_1  and  S_2
REMARK    2  A    between atoms: S_2  and  N_5
REMARK    3  A    between atoms: C_11  and  N_12
REMARK    4  A    between atoms: N_12  and  C_23
REMARK    5  A    between atoms: C_13  and  C_15
REMARK    6  A    between atoms: C_16  and  C_17
REMARK    7  A    between atoms: N_26  and  C_27
REMARK    8  A    between atoms: C_27  and  C_28
REMARK                            x       y       z     vdW  Elec       q    Type
REMARK                         _______ _______ _______ _____ _____    ______ ____
ROOT
ATOM      1  N   UNL     1      16.907  39.348  52.375  0.00  0.00    +0.000 N 
ATOM      2  C   UNL     1      17.068  40.368  53.330  0.00  0.00    +0.000 C 
ATOM      3  O   UNL     1      17.808  40.286  54.309  0.00  0.00    +0.000 OA
ENDROOT
BRANCH   1  10
ATOM      4  N   UNL     1      14.165  39.240  48.228  0.00  0.00    +0.000 N 
ATOM      5  C   UNL     1      12.685  39.239  48.047  0.00  0.00    +0.000 C 
ATOM      6  C   UNL     1      12.097  38.824  49.408  0.00  0.00    +0.000 C 
ATOM      7  C   UNL     1      13.258  39.009  50.334  0.00  0.00    +0.000 A 
ATOM      8  C   UNL     1      13.250  38.923  51.718  0.00  0.00    +0.000 A 
ATOM      9  C   UNL     1      14.466  39.046  52.391  0.00  0.00    +0.000 A 
ATOM     10  C   UNL     1      15.669  39.216  51.678  0.00  0.00    +0.000 A 
ATOM     11  C   UNL     1      15.656  39.305  50.281  0.00  0.00    +0.000 A 
ATOM     12  C   UNL     1      14.440  39.230  49.627  0.00  0.00    +0.000 A 
BRANCH   4  14
ATOM     13  C   UNL     1      14.292  39.797  45.580  0.00  0.00    +0.000 C 
ATOM     14  S   UNL     1      15.100  40.116  47.139  0.00  0.00    +0.000 S 
ATOM     15  O   UNL     1      14.973  41.531  47.418  0.00  0.00    +0.000 OA
ATOM     16  O   UNL     1      16.406  39.490  47.086  0.00  0.00    +0.000 OA
ENDBRANCH   4  14
ENDBRANCH   1  10
BRANCH   1  17
ATOM     17  C   UNL     1      17.701  38.112  52.606  0.00  0.00    +0.000 C 
ATOM     18  C   UNL     1      16.826  36.883  52.886  0.00  0.00    +0.000 C 
ATOM     19  C   UNL     1      17.685  35.717  53.397  0.00  0.00    +0.000 C 
ATOM     20  N   UNL     1      19.079  35.758  52.927  0.00  0.00    +0.000 NA
ATOM     21  C   UNL     1      19.172  36.289  51.568  0.00  0.00    +0.000 C 
ATOM     22  C   UNL     1      18.746  37.765  51.526  0.00  0.00    +0.000 C 
BRANCH  20  23
ATOM     23  C   UNL     1      19.709  34.436  53.069  0.00  0.00    +0.000 C 
BRANCH  23  24
ATOM     24  C   UNL     1      20.753  34.378  54.165  0.00  0.00    +0.000 A 
ATOM     25  C   UNL     1      20.415  34.692  55.490  0.00  0.00    +0.000 A 
ATOM     26  C   UNL     1      21.383  34.656  56.496  0.00  0.00    +0.000 A 
ATOM     27  C   UNL     1      22.699  34.312  56.188  0.00  0.00    +0.000 A 
ATOM     28  C   UNL     1      23.048  34.005  54.875  0.00  0.00    +0.000 A 
ATOM     29  C   UNL     1      22.083  34.041  53.868  0.00  0.00    +0.000 A 
ENDBRANCH  23  24
ENDBRANCH  20  23
ENDBRANCH   1  17
BRANCH   2  30
ATOM     30  C   UNL     1      16.315  41.632  53.064  0.00  0.00    +0.000 C 
ATOM     31  C   UNL     1      15.537  42.163  54.018  0.00  0.00    +0.000 C 
BRANCH  31  32
ATOM     32  C   UNL     1      14.781  43.410  53.847  0.00  0.00    +0.000 A 
ATOM     33  C   UNL     1      15.405  44.630  53.553  0.00  0.00    +0.000 A 
ATOM     34  C   UNL     1      14.646  45.789  53.371  0.00  0.00    +0.000 A 
ATOM     35  C   UNL     1      13.257  45.738  53.471  0.00  0.00    +0.000 A 
ATOM     36  C   UNL     1      12.626  44.527  53.748  0.00  0.00    +0.000 A 
ATOM     37  C   UNL     1      13.383  43.368  53.929  0.00  0.00    +0.000 A 
ENDBRANCH  31  32
ENDBRANCH   2  30
TORSDOF 7
ENDMDL
MODEL 2
REMARK VINA RESULT:    -6.327      3.433      8.119
REMARK INTER + INTRA:         -10.423
REMARK INTER:                  -9.297
REMARK INTRA:                  -1.125
REMARK UNBOUND:                -1.507
REMARK  Name = 
REMARK  8 active torsions:
REMARK  status: ('A' for Active; 'I' for Inactive)
REMARK    1  A    between atoms: C_1  and  S_2
REMARK    2  A    between atoms: S_2  and  N_5
REMARK    3  A    between atoms: C_11  and  N_12
REMARK    4  A    between atoms: N_12  and  C_23
REMARK    5  A    between atoms: C_13  and  C_15
REMARK    6  A    between atoms: C_16  and  C_17
REMARK    7  A    between atoms: N_26  and  C_27
REMARK    8  A    between atoms: C_27  and  C_28
REMARK                            x       y       z     vdW  Elec       q    Type
REMARK                         _______ _______ _______ _____ _____    ______ ____
ROOT
ATOM      1  N   UNL     1      15.941  39.296  51.147  0.00  0.00    +0.000 N 
ATOM      2  C   UNL     1      15.702  38.066  51.787  0.00  0.00    +0.000 C 
ATOM      3  O   UNL     1      15.470  37.014  51.193  0.00  0.00    +0.000 OA
ENDROOT
BRANCH   1  10
ATOM      4  N   UNL     1      12.661  42.385  53.251  0.00  0.00    +0.000 N 
ATOM      5  C   UNL     1      12.807  43.807  53.677  0.00  0.00    +0.000 C 
ATOM      6  C   UNL     1      14.323  44.063  53.769  0.00  0.00    +0.000 C 
ATOM      7  C   UNL     1      14.895  42.903  53.016  0.00  0.00    +0.000 A 
ATOM      8  C   UNL     1      16.220  42.707  52.655  0.00  0.00    +0.000 A 
ATOM      9  C   UNL     1      16.559  41.509  52.025  0.00  0.00    +0.000 A 
ATOM     10  C   UNL     1      15.587  40.515  51.798  0.00  0.00    +0.000 A 
ATOM     11  C   UNL     1      14.253  40.733  52.166  0.00  0.00    +0.000 A 
ATOM     12  C   UNL     1      13.919  41.944  52.745  0.00  0.00    +0.000 A 
BRANCH   4  14
ATOM     13  C   UNL     1      10.039  43.062  53.266  0.00  0.00    +0.000 C 
ATOM     14  S   UNL     1      11.203  41.907  52.564  0.00  0.00    +0.000 S 
ATOM     15  O   UNL     1      11.241  42.134  51.135  0.00  0.00    +0.000 OA
ATOM     16  O   UNL     1      10.884  40.596  53.094  0.00  0.00    +0.000 OA
ENDBRANCH   4  14
ENDBRANCH   1  10
BRANCH   1  17
ATOM     17  C   UNL     1      15.899  39.273  49.661  0.00  0.00    +0.000 C 
ATOM     18  C   UNL     1      17.067  38.492  49.042  0.00  0.00    +0.000 C 
ATOM     19  C   UNL     1      17.137  38.741  47.529  0.00  0.00    +0.000 C 
ATOM     20  N   UNL     1      15.839  39.076  46.922  0.00  0.00    +0.000 NA
ATOM     21  C   UNL     1      14.743  38.354  47.567  0.00  0.00    +0.000 C 
ATOM     22  C   UNL     1      14.574  38.805  49.026  0.00  0.00    +0.000 C 
BRANCH  20  23
ATOM     23  C   UNL     1      15.882  38.869  45.466  0.00  0.00    +0.000 C 
BRANCH  23  24
ATOM     24  C   UNL     1      16.041  40.151  44.677  0.00  0.00    +0.000 A 
ATOM     25  C   UNL     1      15.628  41.378  45.217  0.00  0.00    +0.000 A 
ATOM     26  C   UNL     1      15.758  42.557  44.480  0.00  0.00    +0.000 A 
ATOM     27  C   UNL     1      16.295  42.522  43.194  0.00  0.00    +0.000 A 
ATOM     28  C   UNL     1      16.702  41.309  42.644  0.00  0.00    +0.000 A 
ATOM     29  C   UNL     1      16.572  40.130  43.377  0.00  0.00    +0.000 A 
ENDBRANCH  23  24
ENDBRANCH  20  23
ENDBRANCH   1  17
BRANCH   2  30
ATOM     30  C   UNL     1      15.804  38.079  53.278  0.00  0.00    +0.000 C 
ATOM     31  C   UNL     1      16.965  38.396  53.869  0.00  0.00    +0.000 C 
BRANCH  31  32
ATOM     32  C   UNL     1      17.147  38.452  55.324  0.00  0.00    +0.000 A 
ATOM     33  C   UNL     1      17.552  37.339  56.072  0.00  0.00    +0.000 A 
ATOM     34  C   UNL     1      17.740  37.441  57.453  0.00  0.00    +0.000 A 
ATOM     35  C   UNL     1      17.535  38.660  58.097  0.00  0.00    +0.000 A 
ATOM     36  C   UNL     1      17.147  39.777  57.361  0.00  0.00    +0.000 A 
ATOM     37  C   UNL     1      16.960  39.676  55.981  0.00  0.00    +0.000 A 
ENDBRANCH  31  32
ENDBRANCH   2  30
TORSDOF 7
ENDMDL
MODEL 3
REMARK VINA RESULT:    -6.155      3.671      8.645
REMARK INTER + INTRA:         -10.181
REMARK INTER:                  -8.674
REMARK INTRA:                  -1.507
REMARK UNBOUND:                -1.507
REMARK  Name = 
REMARK  8 active torsions:
REMARK  status: ('A' for Active; 'I' for Inactive)
REMARK    1  A    between atoms: C_1  and  S_2
REMARK    2  A    between atoms: S_2  and  N_5
REMARK    3  A    between atoms: C_11  and  N_12
REMARK    4  A    between atoms: N_12  and  C_23
REMARK    5  A    between atoms: C_13  and  C_15
REMARK    6  A    between atoms: C_16  and  C_17
REMARK    7  A    between atoms: N_26  and  C_27
REMARK    8  A    between atoms: C_27  and  C_28
REMARK                            x       y       z     vdW  Elec       q    Type
REMARK                         _______ _______ _______ _____ _____    ______ ____
ROOT
ATOM      1  N   UNL     1      17.141  38.725  51.611  0.00  0.00    +0.000 N 
ATOM      2  C   UNL     1      17.341  39.856  52.423  0.00  0.00    +0.000 C 
ATOM      3  O   UNL     1      17.165  41.014  52.048  0.00  0.00    +0.000 OA
ENDROOT
BRANCH   1  10
ATOM      4  N   UNL     1      17.682  34.051  53.220  0.00  0.00    +0.000 N 
ATOM      5  C   UNL     1      18.911  33.226  53.401  0.00  0.00    +0.000 C 
ATOM      6  C   UNL     1      20.006  33.920  52.572  0.00  0.00    +0.000 C 
ATOM      7  C   UNL     1      19.417  35.272  52.319  0.00  0.00    +0.000 A 
ATOM      8  C   UNL     1      20.041  36.367  51.741  0.00  0.00    +0.000 A 
ATOM      9  C   UNL     1      19.282  37.515  51.518  0.00  0.00    +0.000 A 
ATOM     10  C   UNL     1      17.910  37.544  51.837  0.00  0.00    +0.000 A 
ATOM     11  C   UNL     1      17.297  36.430  52.423  0.00  0.00    +0.000 A 
ATOM     12  C   UNL     1      18.071  35.314  52.686  0.00  0.00    +0.000 A 
BRANCH   4  14
ATOM     13  C   UNL     1      16.660  32.231  54.947  0.00  0.00    +0.000 C 
ATOM     14  S   UNL     1      16.448  33.900  54.352  0.00  0.00    +0.000 S 
ATOM     15  O   UNL     1      16.695  34.797  55.462  0.00  0.00    +0.000 OA
ATOM     16  O   UNL     1      15.190  33.947  53.634  0.00  0.00    +0.000 OA
ENDBRANCH   4  14
ENDBRANCH   1  10
BRANCH   1  17
ATOM     17  C   UNL     1      16.691  38.996  50.221  0.00  0.00    +0.000 C 
ATOM     18  C   UNL     1      17.298  38.029  49.195  0.00  0.00    +0.000 C 
ATOM     19  C   UNL     1      17.035  38.525  47.766  0.00  0.00    +0.000 C 
ATOM     20  N   UNL     1      15.821  39.348  47.639  0.00  0.00    +0.000 NA
ATOM     21  C   UNL     1      14.763  38.885  48.536  0.00  0.00    +0.000 C 
ATOM     22  C   UNL     1      15.165  39.082  50.006  0.00  0.00    +0.000 C 
BRANCH  20  23
ATOM     23  C   UNL     1      15.390  39.415  46.234  0.00  0.00    +0.000 C 
BRANCH  23  24
ATOM     24  C   UNL     1      15.431  40.814  45.655  0.00  0.00    +0.000 A 
ATOM     25  C   UNL     1      14.882  41.895  46.361  0.00  0.00    +0.000 A 
ATOM     26  C   UNL     1      14.904  43.181  45.817  0.00  0.00    +0.000 A 
ATOM     27  C   UNL     1      15.468  43.399  44.561  0.00  0.00    +0.000 A 
ATOM     28  C   UNL     1      16.011  42.333  43.847  0.00  0.00    +0.000 A 
ATOM     29  C   UNL     1      15.990  41.047  44.388  0.00  0.00    +0.000 A 
ENDBRANCH  23  24
ENDBRANCH  20  23
ENDBRANCH   1  17
BRANCH   2  30
ATOM     30  C   UNL     1      17.736  39.578  53.838  0.00  0.00    +0.000 C 
ATOM     31  C   UNL     1      16.812  39.607  54.810  0.00  0.00    +0.000 C 
BRANCH  31  32
ATOM     32  C   UNL     1      17.109  39.327  56.220  0.00  0.00    +0.000 A 
ATOM     33  C   UNL     1      17.039  40.316  57.211  0.00  0.00    +0.000 A 
ATOM     34  C   UNL     1      17.303  40.002  58.547  0.00  0.00    +0.000 A 
ATOM     35  C   UNL     1      17.629  38.696  58.906  0.00  0.00    +0.000 A 
ATOM     36  C   UNL     1      17.686  37.701  57.931  0.00  0.00    +0.000 A 
ATOM     37  C   UNL     1      17.422  38.014  56.597  0.00  0.00    +0.000 A 
ENDBRANCH  31  32
ENDBRANCH   2  30
TORSDOF 7
ENDMDL
