MODEL 1
REMARK VINA RESULT:    -6.500      0.000      0.000
REMARK INTER + INTRA:          -9.907
REMARK INTER:                  -8.832
REMARK INTRA:                  -1.075
REMARK UNBOUND:                -1.317
REMARK  Name = 
REMARK  8 active torsions:
REMARK  status: ('A' for Active; 'I' for Inactive)
REMARK    1  A    between atoms: C_1  and  O_2
REMARK    2  A    between atoms: O_2  and  C_3
REMARK    3  A    between atoms: C_5  and  C_6
REMARK    4  A    between atoms: C_13  and  N_14
REMARK    5  A    between atoms: N_14  and  C_15
REMARK    6  A    between atoms: C_32  and  O_33
REMARK    7  A    between atoms: O_33  and  C_34
REMARK    8  A    between atoms: C_35  and  O_36
REMARK                            x       y       z     vdW  Elec       q    Type
REMARK                         _______ _______ _______ _____ _____    ______ ____
ROOT
ATOM      1  C   UNL     1      21.781  34.095  48.352  0.00  0.00    +0.000 C 
ATOM      2  C   UNL     1      21.019  34.990  49.346  0.00  0.00    +0.000 A 
ATOM      3  C   UNL     1      19.793  35.551  48.935  0.00  0.00    +0.000 A 
ATOM      4  C   UNL     1      19.132  36.388  49.806  0.00  0.00    +0.000 A 
ATOM      5  C   UNL     1      19.634  36.686  51.048  0.00  0.00    +0.000 A 
ATOM      6  C   UNL     1      20.826  36.161  51.495  0.00  0.00    +0.000 A 
ATOM      7  C   UNL     1      21.544  35.297  50.643  0.00  0.00    +0.000 A 
ATOM      8  C   UNL     1      22.849  34.686  51.172  0.00  0.00    +0.000 C 
ATOM      9  C   UNL     1      23.644  34.056  50.033  0.00  0.00    +0.000 C 
ATOM     10  C   UNL     1      24.747  33.078  50.352  0.00  0.00    +0.000 C 
ATOM     11  O   UNL     1      24.933  32.364  49.118  0.00  0.00    +0.000 OA
ATOM     12  C   UNL     1      23.757  32.380  48.410  0.00  0.00    +0.000 C 
ATOM     13  O   UNL     1      23.563  31.746  47.387  0.00  0.00    +0.000 OA
ATOM     14  C   UNL     1      22.750  33.214  49.144  0.00  0.00    +0.000 C 
ATOM     15  O   UNL     1      18.829  37.529  51.746  0.00  0.00    +0.000 OA
ATOM     16  C   UNL     1      17.760  37.732  50.797  0.00  0.00    +0.000 C 
ATOM     17  O   UNL     1      17.946  37.009  49.563  0.00  0.00    +0.000 OA
ENDROOT
BRANCH   1  20
ATOM     18  C   UNL     1      22.232  35.717  44.915  0.00  0.00    +0.000 A 
ATOM     19  C   UNL     1      21.687  35.036  46.004  0.00  0.00    +0.000 A 
ATOM     20  C   UNL     1      22.413  34.885  47.200  0.00  0.00    +0.000 A 
ATOM     21  C   UNL     1      23.695  35.465  47.287  0.00  0.00    +0.000 A 
ATOM     22  C   UNL     1      24.244  36.181  46.218  0.00  0.00    +0.000 A 
ATOM     23  C   UNL     1      23.503  36.291  45.038  0.00  0.00    +0.000 A 
BRANCH  18  25
ATOM     24  C   UNL     1      21.592  34.768  42.834  0.00  0.00    +0.000 C 
ATOM     25  O   UNL     1      21.624  35.900  43.697  0.00  0.00    +0.000 OA
ENDBRANCH  18  25
BRANCH  22  26
ATOM     26  O   UNL     1      25.478  36.776  46.225  0.00  0.00    +0.000 OA
ATOM     27  C   UNL     1      26.595  35.957  46.537  0.00  0.00    +0.000 C 
ENDBRANCH  22  26
BRANCH  23  28
ATOM     28  O   UNL     1      24.026  36.975  43.965  0.00  0.00    +0.000 OA
ATOM     29  H   UNL     1      23.477  36.710  43.204  0.00  0.00    +0.000 HD
ENDBRANCH  23  28
ENDBRANCH   1  20
BRANCH   8  30
ATOM     30  N   UNL     1      22.498  33.678  52.173  0.00  0.00    +0.000 N 
ATOM     31  H   UNL     1      21.559  33.302  52.041  0.00  0.00    +0.000 HD
BRANCH  30  32
ATOM     32  C   UNL     1      22.795  33.858  53.527  0.00  0.00    +0.000 A 
ATOM     33  C   UNL     1      23.993  33.441  54.126  0.00  0.00    +0.000 A 
ATOM     34  C   UNL     1      24.208  33.581  55.503  0.00  0.00    +0.000 A 
ATOM     35  C   UNL     1      23.211  34.115  56.313  0.00  0.00    +0.000 A 
ATOM     36  C   UNL     1      22.008  34.491  55.738  0.00  0.00    +0.000 A 
ATOM     37  F   UNL     1      21.034  34.988  56.513  0.00  0.00    +0.000 F 
ATOM     38  C   UNL     1      21.791  34.355  54.369  0.00  0.00    +0.000 A 
ENDBRANCH  30  32
ENDBRANCH   8  30
TORSDOF 6
ENDMDL
MODEL 2
REMARK VINA RESULT:    -6.398      0.590      2.161
REMARK INTER + INTRA:          -9.772
REMARK INTER:                  -8.730
REMARK INTRA:                  -1.041
REMARK UNBOUND:                -1.317
REMARK  Name = 
REMARK  8 active torsions:
REMARK  status: ('A' for Active; 'I' for Inactive)
REMARK    1  A    between atoms: C_1  and  O_2
REMARK    2  A    between atoms: O_2  and  C_3
REMARK    3  A    between atoms: C_5  and  C_6
REMARK    4  A    between atoms: C_13  and  N_14
REMARK    5  A    between atoms: N_14  and  C_15
REMARK    6  A    between atoms: C_32  and  O_33
REMARK    7  A    between atoms: O_33  and  C_34
REMARK    8  A    between atoms: C_35  and  O_36
REMARK                            x       y       z     vdW  Elec       q    Type
REMARK                         _______ _______ _______ _____ _____    ______ ____
ROOT
ATOM      1  C   UNL     1      21.268  34.040  48.380  0.00  0.00    +0.000 C 
ATOM      2  C   UNL     1      20.635  35.011  49.393  0.00  0.00    +0.000 A 
ATOM      3  C   UNL     1      19.427  35.647  49.044  0.00  0.00    +0.000 A 
ATOM      4  C   UNL     1      18.883  36.550  49.930  0.00  0.00    +0.000 A 
ATOM      5  C   UNL     1      19.484  36.843  51.129  0.00  0.00    +0.000 A 
ATOM      6  C   UNL     1      20.664  36.245  51.515  0.00  0.00    +0.000 A 
ATOM      7  C   UNL     1      21.264  35.312  50.645  0.00  0.00    +0.000 A 
ATOM      8  C   UNL     1      22.555  34.624  51.108  0.00  0.00    +0.000 C 
ATOM      9  C   UNL     1      23.228  33.911  49.940  0.00  0.00    +0.000 C 
ATOM     10  C   UNL     1      24.280  32.865  50.217  0.00  0.00    +0.000 C 
ATOM     11  O   UNL     1      24.335  32.110  48.995  0.00  0.00    +0.000 OA
ATOM     12  C   UNL     1      23.119  32.191  48.363  0.00  0.00    +0.000 C 
ATOM     13  O   UNL     1      22.816  31.548  47.373  0.00  0.00    +0.000 OA
ATOM     14  C   UNL     1      22.223  33.113  49.135  0.00  0.00    +0.000 C 
ATOM     15  O   UNL     1      18.786  37.758  51.852  0.00  0.00    +0.000 OA
ATOM     16  C   UNL     1      17.675  38.012  50.967  0.00  0.00    +0.000 C 
ATOM     17  O   UNL     1      17.730  37.247  49.744  0.00  0.00    +0.000 OA
ENDROOT
BRANCH   1  20
ATOM     18  C   UNL     1      23.777  35.935  46.197  0.00  0.00    +0.000 A 
ATOM     19  C   UNL     1      23.191  35.247  47.261  0.00  0.00    +0.000 A 
ATOM     20  C   UNL     1      21.876  34.755  47.168  0.00  0.00    +0.000 A 
ATOM     21  C   UNL     1      21.170  34.945  45.962  0.00  0.00    +0.000 A 
ATOM     22  C   UNL     1      21.754  35.601  44.873  0.00  0.00    +0.000 A 
ATOM     23  C   UNL     1      23.053  36.096  45.010  0.00  0.00    +0.000 A 
BRANCH  18  25
ATOM     24  C   UNL     1      25.952  35.955  47.148  0.00  0.00    +0.000 C 
ATOM     25  O   UNL     1      25.038  36.478  46.191  0.00  0.00    +0.000 OA
ENDBRANCH  18  25
BRANCH  22  26
ATOM     26  O   UNL     1      21.137  35.821  43.669  0.00  0.00    +0.000 OA
ATOM     27  C   UNL     1      19.726  35.976  43.679  0.00  0.00    +0.000 C 
ENDBRANCH  22  26
BRANCH  23  28
ATOM     28  O   UNL     1      23.644  36.761  43.961  0.00  0.00    +0.000 OA
ATOM     29  H   UNL     1      23.998  36.059  43.384  0.00  0.00    +0.000 HD
ENDBRANCH  23  28
ENDBRANCH   1  20
BRANCH   8  30
ATOM     30  N   UNL     1      22.201  33.668  52.159  0.00  0.00    +0.000 N 
ATOM     31  H   UNL     1      21.230  33.359  52.099  0.00  0.00    +0.000 HD
BRANCH  30  32
ATOM     32  C   UNL     1      22.601  33.857  53.485  0.00  0.00    +0.000 A 
ATOM     33  C   UNL     1      23.847  33.457  53.989  0.00  0.00    +0.000 A 
ATOM     34  C   UNL     1      24.168  33.605  55.345  0.00  0.00    +0.000 A 
ATOM     35  C   UNL     1      23.232  34.132  56.229  0.00  0.00    +0.000 A 
ATOM     36  C   UNL     1      21.982  34.492  55.748  0.00  0.00    +0.000 A 
ATOM     37  F   UNL     1      21.067  34.982  56.596  0.00  0.00    +0.000 F 
ATOM     38  C   UNL     1      21.660  34.347  54.401  0.00  0.00    +0.000 A 
ENDBRANCH  30  32
ENDBRANCH   8  30
TORSDOF 6
ENDMDL
MODEL 3
REMARK VINA RESULT:    -6.192     10.292     13.921
REMARK INTER + INTRA:          -9.500
REMARK INTER:                  -8.183
REMARK INTRA:                  -1.317
REMARK UNBOUND:                -1.317
REMARK  Name = 
REMARK  8 active torsions:
REMARK  status: ('A' for Active; 'I' for Inactive)
REMARK    1  A    between atoms: C_1  and  O_2
REMARK    2  A    between atoms: O_2  and  C_3
REMARK    3  A    between atoms: C_5  and  C_6
REMARK    4  A    between atoms: C_13  and  N_14
REMARK    5  A    between atoms: N_14  and  C_15
REMARK    6  A    between atoms: C_32  and  O_33
REMARK    7  A    between atoms: O_33  and  C_34
REMARK    8  A    between atoms: C_35  and  O_36
REMARK                            x       y       z     vdW  Elec       q    Type
REMARK                         _______ _______ _______ _____ _____    ______ ____
ROOT
ATOM      1  C   UNL     1      15.256  41.902  42.213  0.00  0.00    +0.000 C 
ATOM      2  C   UNL     1      15.408  41.454  43.677  0.00  0.00    +0.000 A 
ATOM      3  C   UNL     1      16.212  40.329  43.952  0.00  0.00    +0.000 A 
ATOM      4  C   UNL     1      16.313  39.899  45.257  0.00  0.00    +0.000 A 
ATOM      5  C   UNL     1      15.656  40.532  46.282  0.00  0.00    +0.000 A 
ATOM      6  C   UNL     1      14.861  41.636  46.064  0.00  0.00    +0.000 A 
ATOM      7  C   UNL     1      14.723  42.118  44.746  0.00  0.00    +0.000 A 
ATOM      8  C   UNL     1      13.869  43.374  44.525  0.00  0.00    +0.000 C 
ATOM      9  C   UNL     1      13.565  43.559  43.042  0.00  0.00    +0.000 C 
ATOM     10  C   UNL     1      13.081  44.899  42.547  0.00  0.00    +0.000 C 
ATOM     11  O   UNL     1      13.351  44.855  41.136  0.00  0.00    +0.000 OA
ATOM     12  C   UNL     1      14.402  44.002  40.907  0.00  0.00    +0.000 C 
ATOM     13  O   UNL     1      14.947  43.859  39.826  0.00  0.00    +0.000 OA
ATOM     14  C   UNL     1      14.811  43.365  42.202  0.00  0.00    +0.000 C 
ATOM     15  O   UNL     1      15.889  39.950  47.488  0.00  0.00    +0.000 OA
ATOM     16  C   UNL     1      16.768  38.872  47.103  0.00  0.00    +0.000 C 
ATOM     17  O   UNL     1      17.042  38.834  45.687  0.00  0.00    +0.000 OA
ENDROOT
BRANCH   1  20
ATOM     18  C   UNL     1      14.148  39.557  39.397  0.00  0.00    +0.000 A 
ATOM     19  C   UNL     1      14.914  40.401  40.202  0.00  0.00    +0.000 A 
ATOM     20  C   UNL     1      14.384  40.950  41.385  0.00  0.00    +0.000 A 
ATOM     21  C   UNL     1      13.069  40.603  41.757  0.00  0.00    +0.000 A 
ATOM     22  C   UNL     1      12.299  39.731  40.981  0.00  0.00    +0.000 A 
ATOM     23  C   UNL     1      12.850  39.224  39.801  0.00  0.00    +0.000 A 
BRANCH  18  25
ATOM     24  C   UNL     1      15.654  38.088  38.294  0.00  0.00    +0.000 C 
ATOM     25  O   UNL     1      14.556  38.990  38.215  0.00  0.00    +0.000 OA
ENDBRANCH  18  25
BRANCH  22  26
ATOM     26  O   UNL     1      11.019  39.343  41.276  0.00  0.00    +0.000 OA
ATOM     27  C   UNL     1      10.767  38.870  42.591  0.00  0.00    +0.000 C 
ENDBRANCH  22  26
BRANCH  23  28
ATOM     28  O   UNL     1      12.108  38.378  39.010  0.00  0.00    +0.000 OA
ATOM     29  H   UNL     1      12.153  38.764  38.116  0.00  0.00    +0.000 HD
ENDBRANCH  23  28
ENDBRANCH   1  20
BRANCH   8  30
ATOM     30  N   UNL     1      14.616  44.521  45.045  0.00  0.00    +0.000 N 
ATOM     31  H   UNL     1      15.382  44.245  45.661  0.00  0.00    +0.000 HD
BRANCH  30  32
ATOM     32  C   UNL     1      13.966  45.666  45.511  0.00  0.00    +0.000 A 
ATOM     33  C   UNL     1      12.732  45.648  46.176  0.00  0.00    +0.000 A 
ATOM     34  C   UNL     1      12.090  46.833  46.559  0.00  0.00    +0.000 A 
ATOM     35  C   UNL     1      12.661  48.064  46.254  0.00  0.00    +0.000 A 
ATOM     36  C   UNL     1      13.860  48.095  45.559  0.00  0.00    +0.000 A 
ATOM     37  F   UNL     1      14.408  49.276  45.243  0.00  0.00    +0.000 F 
ATOM     38  C   UNL     1      14.501  46.918  45.179  0.00  0.00    +0.000 A 
ENDBRANCH  30  32
ENDBRANCH   8  30
TORSDOF 6
ENDMDL
