MODEL 1
REMARK VINA RESULT:    -6.803      0.000      0.000
REMARK INTER + INTRA:         -10.202
REMARK INTER:                  -9.295
REMARK INTRA:                  -0.906
REMARK UNBOUND:                -1.411
REMARK  Name = 
REMARK  5 active torsions:
REMARK  status: ('A' for Active; 'I' for Inactive)
REMARK    1  A    between atoms: N_14  and  C_15
REMARK    2  A    between atoms: C_15  and  C_16
REMARK    3  A    between atoms: C_16  and  N_17
REMARK    4  A    between atoms: C_20  and  C_21
REMARK    5  A    between atoms: C_21  and  C_22
REMARK                            x       y       z     vdW  Elec       q    Type
REMARK                         _______ _______ _______ _____ _____    ______ ____
ROOT
ATOM      1  N   UNL     1      18.627  36.188  52.631  0.00  0.00    +0.000 NA
ATOM      2  C   UNL     1      17.557  36.760  53.469  0.00  0.00    +0.000 C 
ATOM      3  C   UNL     1      17.543  38.288  53.453  0.00  0.00    +0.000 C 
ATOM      4  C   UNL     1      17.239  38.807  52.036  0.00  0.00    +0.000 C 
ATOM      5  C   UNL     1      17.873  37.908  50.959  0.00  0.00    +0.000 C 
ATOM      6  C   UNL     1      19.021  37.066  51.517  0.00  0.00    +0.000 C 
ENDROOT
BRANCH   1   7
ATOM      7  C   UNL     1      18.280  34.831  52.162  0.00  0.00    +0.000 C 
BRANCH   7   8
ATOM      8  C   UNL     1      18.831  33.708  53.067  0.00  0.00    +0.000 C 
BRANCH   8  22
ATOM      9  O   UNL     1      19.448  35.505  55.967  0.00  0.00    +0.000 OA
ATOM     10  S   UNL     1      19.853  34.177  55.570  0.00  0.00    +0.000 S 
ATOM     11  O   UNL     1      19.197  32.977  56.040  0.00  0.00    +0.000 OA
ATOM     12  C   UNL     1      21.569  33.991  55.838  0.00  0.00    +0.000 A 
ATOM     13  C   UNL     1      22.253  34.032  57.039  0.00  0.00    +0.000 A 
ATOM     14  C   UNL     1      23.634  33.813  56.997  0.00  0.00    +0.000 A 
ATOM     15  C   UNL     1      24.291  33.557  55.774  0.00  0.00    +0.000 A 
ATOM     16  C   UNL     1      23.569  33.524  54.560  0.00  0.00    +0.000 A 
ATOM     17  C   UNL     1      24.095  33.291  53.275  0.00  0.00    +0.000 A 
ATOM     18  C   UNL     1      23.253  33.315  52.146  0.00  0.00    +0.000 A 
ATOM     19  C   UNL     1      21.877  33.563  52.271  0.00  0.00    +0.000 A 
ATOM     20  C   UNL     1      21.349  33.752  53.538  0.00  0.00    +0.000 A 
ATOM     21  C   UNL     1      22.195  33.752  54.637  0.00  0.00    +0.000 A 
ATOM     22  N   UNL     1      20.000  34.124  53.860  0.00  0.00    +0.000 N 
ENDBRANCH   8  22
ENDBRANCH   7   8
ENDBRANCH   1   7
BRANCH   4  23
ATOM     23  C   UNL     1      17.546  40.307  51.867  0.00  0.00    +0.000 C 
BRANCH  23  24
ATOM     24  C   UNL     1      16.456  41.236  52.300  0.00  0.00    +0.000 A 
ATOM     25  C   UNL     1      15.087  41.056  52.365  0.00  0.00    +0.000 A 
ATOM     26  C   UNL     1      14.501  42.269  52.818  0.00  0.00    +0.000 A 
ATOM     27  C   UNL     1      13.180  42.678  53.075  0.00  0.00    +0.000 A 
ATOM     28  C   UNL     1      12.959  43.985  53.513  0.00  0.00    +0.000 A 
ATOM     29  F   UNL     1      11.702  44.389  53.756  0.00  0.00    +0.000 F 
ATOM     30  C   UNL     1      14.006  44.880  53.699  0.00  0.00    +0.000 A 
ATOM     31  C   UNL     1      15.326  44.492  53.452  0.00  0.00    +0.000 A 
ATOM     32  C   UNL     1      15.540  43.179  53.011  0.00  0.00    +0.000 A 
ATOM     33  N   UNL     1      16.709  42.532  52.684  0.00  0.00    +0.000 N 
ATOM     34  H   UNL     1      17.624  42.959  52.716  0.00  0.00    +0.000 HD
ENDBRANCH  23  24
ENDBRANCH   4  23
TORSDOF 5
ENDMDL
MODEL 2
REMARK VINA RESULT:    -6.746      5.650      6.978
REMARK INTER + INTRA:         -10.129
REMARK INTER:                  -9.343
REMARK INTRA:                  -0.786
REMARK UNBOUND:                -1.411
REMARK  Name = 
REMARK  5 active torsions:
REMARK  status: ('A' for Active; 'I' for Inactive)
REMARK    1  A    between atoms: N_14  and  C_15
REMARK    2  A    between atoms: C_15  and  C_16
REMARK    3  A    between atoms: C_16  and  N_17
REMARK    4  A    between atoms: C_20  and  C_21
REMARK    5  A    between atoms: C_21  and  C_22
REMARK                            x       y       z     vdW  Elec       q    Type
REMARK                         _______ _______ _______ _____ _____    ______ ____
ROOT
ATOM      1  N   UNL     1      14.990  39.072  48.202  0.00  0.00    +0.000 NA
ATOM      2  C   UNL     1      16.134  39.553  47.405  0.00  0.00    +0.000 C 
ATOM      3  C   UNL     1      15.708  40.349  46.173  0.00  0.00    +0.000 C 
ATOM      4  C   UNL     1      14.968  41.631  46.592  0.00  0.00    +0.000 C 
ATOM      5  C   UNL     1      14.108  41.401  47.848  0.00  0.00    +0.000 C 
ATOM      6  C   UNL     1      13.794  39.920  48.064  0.00  0.00    +0.000 C 
ENDROOT
BRANCH   1   7
ATOM      7  C   UNL     1      15.362  38.875  49.618  0.00  0.00    +0.000 C 
BRANCH   7   8
ATOM      8  C   UNL     1      15.875  37.452  49.926  0.00  0.00    +0.000 C 
BRANCH   8  22
ATOM      9  O   UNL     1      18.460  38.737  51.845  0.00  0.00    +0.000 OA
ATOM     10  S   UNL     1      18.119  37.376  51.502  0.00  0.00    +0.000 S 
ATOM     11  O   UNL     1      17.430  36.483  52.406  0.00  0.00    +0.000 OA
ATOM     12  C   UNL     1      19.545  36.552  50.916  0.00  0.00    +0.000 A 
ATOM     13  C   UNL     1      20.711  36.274  51.605  0.00  0.00    +0.000 A 
ATOM     14  C   UNL     1      21.702  35.560  50.922  0.00  0.00    +0.000 A 
ATOM     15  C   UNL     1      21.506  35.143  49.588  0.00  0.00    +0.000 A 
ATOM     16  C   UNL     1      20.306  35.444  48.905  0.00  0.00    +0.000 A 
ATOM     17  C   UNL     1      19.984  35.100  47.580  0.00  0.00    +0.000 A 
ATOM     18  C   UNL     1      18.752  35.494  47.020  0.00  0.00    +0.000 A 
ATOM     19  C   UNL     1      17.818  36.228  47.768  0.00  0.00    +0.000 A 
ATOM     20  C   UNL     1      18.114  36.534  49.087  0.00  0.00    +0.000 A 
ATOM     21  C   UNL     1      19.342  36.161  49.614  0.00  0.00    +0.000 A 
ATOM     22  N   UNL     1      17.344  37.362  49.970  0.00  0.00    +0.000 N 
ENDBRANCH   8  22
ENDBRANCH   7   8
ENDBRANCH   1   7
BRANCH   4  23
ATOM     23  C   UNL     1      14.214  42.300  45.426  0.00  0.00    +0.000 C 
BRANCH  23  24
ATOM     24  C   UNL     1      13.849  43.735  45.640  0.00  0.00    +0.000 A 
ATOM     25  C   UNL     1      12.728  44.308  46.210  0.00  0.00    +0.000 A 
ATOM     26  C   UNL     1      12.864  45.721  46.137  0.00  0.00    +0.000 A 
ATOM     27  C   UNL     1      12.063  46.802  46.546  0.00  0.00    +0.000 A 
ATOM     28  C   UNL     1      12.514  48.098  46.298  0.00  0.00    +0.000 A 
ATOM     29  F   UNL     1      11.755  49.139  46.679  0.00  0.00    +0.000 F 
ATOM     30  C   UNL     1      13.727  48.342  45.665  0.00  0.00    +0.000 A 
ATOM     31  C   UNL     1      14.540  47.282  45.253  0.00  0.00    +0.000 A 
ATOM     32  C   UNL     1      14.080  45.982  45.503  0.00  0.00    +0.000 A 
ATOM     33  N   UNL     1      14.650  44.766  45.207  0.00  0.00    +0.000 N 
ATOM     34  H   UNL     1      15.533  44.652  44.729  0.00  0.00    +0.000 HD
ENDBRANCH  23  24
ENDBRANCH   4  23
TORSDOF 5
ENDMDL
MODEL 3
REMARK VINA RESULT:    -6.737      7.008     10.075
REMARK INTER + INTRA:         -10.116
REMARK INTER:                  -8.706
REMARK INTRA:                  -1.411
REMARK UNBOUND:                -1.411
REMARK  Name = 
REMARK  5 active torsions:
REMARK  status: ('A' for Active; 'I' for Inactive)
REMARK    1  A    between atoms: N_14  and  C_15
REMARK    2  A    between atoms: C_15  and  C_16
REMARK    3  A    between atoms: C_16  and  N_17
REMARK    4  A    between atoms: C_20  and  C_21
REMARK    5  A    between atoms: C_21  and  C_22
REMARK                            x       y       z     vdW  Elec       q    Type
REMARK                         _______ _______ _______ _____ _____    ______ ____
ROOT
ATOM      1  N   UNL     1      15.900  36.489  47.255  0.00  0.00    +0.000 NA
ATOM      2  C   UNL     1      14.737  37.100  47.923  0.00  0.00    +0.000 C 
ATOM      3  C   UNL     1      15.059  37.611  49.327  0.00  0.00    +0.000 C 
ATOM      4  C   UNL     1      16.100  38.742  49.260  0.00  0.00    +0.000 C 
ATOM      5  C   UNL     1      17.128  38.497  48.141  0.00  0.00    +0.000 C 
ATOM      6  C   UNL     1      17.187  37.025  47.729  0.00  0.00    +0.000 C 
ENDROOT
BRANCH   1   7
ATOM      7  C   UNL     1      15.783  36.568  45.784  0.00  0.00    +0.000 C 
BRANCH   7   8
ATOM      8  C   UNL     1      14.837  37.690  45.303  0.00  0.00    +0.000 C 
BRANCH   8  22
ATOM      9  O   UNL     1      17.437  38.564  43.183  0.00  0.00    +0.000 OA
ATOM     10  S   UNL     1      16.083  39.059  43.279  0.00  0.00    +0.000 S 
ATOM     11  O   UNL     1      15.028  38.650  42.379  0.00  0.00    +0.000 OA
ATOM     12  C   UNL     1      16.107  40.805  43.319  0.00  0.00    +0.000 A 
ATOM     13  C   UNL     1      16.544  41.674  42.336  0.00  0.00    +0.000 A 
ATOM     14  C   UNL     1      16.422  43.044  42.593  0.00  0.00    +0.000 A 
ATOM     15  C   UNL     1      15.870  43.508  43.807  0.00  0.00    +0.000 A 
ATOM     16  C   UNL     1      15.434  42.599  44.796  0.00  0.00    +0.000 A 
ATOM     17  C   UNL     1      14.877  42.921  46.048  0.00  0.00    +0.000 A 
ATOM     18  C   UNL     1      14.512  41.901  46.949  0.00  0.00    +0.000 A 
ATOM     19  C   UNL     1      14.687  40.547  46.623  0.00  0.00    +0.000 A 
ATOM     20  C   UNL     1      15.197  40.225  45.375  0.00  0.00    +0.000 A 
ATOM     21  C   UNL     1      15.576  41.240  44.510  0.00  0.00    +0.000 A 
ATOM     22  N   UNL     1      15.548  38.915  44.904  0.00  0.00    +0.000 N 
ENDBRANCH   8  22
ENDBRANCH   7   8
ENDBRANCH   1   7
BRANCH   4  23
ATOM     23  C   UNL     1      16.725  39.067  50.630  0.00  0.00    +0.000 C 
BRANCH  23  24
ATOM     24  C   UNL     1      16.077  40.188  51.379  0.00  0.00    +0.000 A 
ATOM     25  C   UNL     1      14.775  40.352  51.813  0.00  0.00    +0.000 A 
ATOM     26  C   UNL     1      14.675  41.619  52.451  0.00  0.00    +0.000 A 
ATOM     27  C   UNL     1      13.626  42.317  53.077  0.00  0.00    +0.000 A 
ATOM     28  C   UNL     1      13.887  43.583  53.602  0.00  0.00    +0.000 A 
ATOM     29  F   UNL     1      12.893  44.262  54.197  0.00  0.00    +0.000 F 
ATOM     30  C   UNL     1      15.149  44.162  53.523  0.00  0.00    +0.000 A 
ATOM     31  C   UNL     1      16.205  43.483  52.908  0.00  0.00    +0.000 A 
ATOM     32  C   UNL     1      15.935  42.213  52.380  0.00  0.00    +0.000 A 
ATOM     33  N   UNL     1      16.761  41.331  51.722  0.00  0.00    +0.000 N 
ATOM     34  H   UNL     1      17.733  41.509  51.514  0.00  0.00    +0.000 HD
ENDBRANCH  23  24
ENDBRANCH   4  23
TORSDOF 5
ENDMDL
