MODEL 1
REMARK VINA RESULT:    -5.147      0.000      0.000
REMARK INTER + INTRA:         -10.976
REMARK INTER:                  -8.901
REMARK INTRA:                  -2.076
REMARK UNBOUND:                -4.023
REMARK  Name = 
REMARK  7 active torsions:
REMARK  status: ('A' for Active; 'I' for Inactive)
REMARK    1  A    between atoms: C_1  and  C_2
REMARK    2  A    between atoms: C_2  and  C_3
REMARK    3  A    between atoms: C_2  and  C_16
REMARK    4  A    between atoms: C_3  and  N_4
REMARK    5  A    between atoms: C_9  and  C_10
REMARK    6  A    between atoms: C_20  and  C_21
REMARK    7  A    between atoms: C_21  and  C_23
REMARK                            x       y       z     vdW  Elec       q    Type
REMARK                         _______ _______ _______ _____ _____    ______ ____
ROOT
ATOM      1  C   UNL     1      21.034  36.393  51.329  0.00  0.00    +0.000 C 
ATOM      2  C   UNL     1      19.552  36.014  51.238  0.00  0.00    +0.000 C 
ENDROOT
BRANCH   2   3
ATOM      3  C   UNL     1      18.596  37.184  51.006  0.00  0.00    +0.000 A 
ATOM      4  C   UNL     1      17.817  37.321  49.847  0.00  0.00    +0.000 A 
ATOM      5  C   UNL     1      16.966  38.417  49.675  0.00  0.00    +0.000 A 
ATOM      6  C   UNL     1      16.864  39.391  50.667  0.00  0.00    +0.000 A 
ATOM      7  C   UNL     1      17.603  39.258  51.845  0.00  0.00    +0.000 A 
ATOM      8  C   UNL     1      18.471  38.169  52.003  0.00  0.00    +0.000 A 
BRANCH   7   9
ATOM      9  C   UNL     1      17.537  40.272  52.930  0.00  0.00    +0.000 C 
ATOM     10  O   UNL     1      18.491  40.400  53.692  0.00  0.00    +0.000 OA
BRANCH   9  11
ATOM     11  C   UNL     1      16.345  41.136  53.117  0.00  0.00    +0.000 A 
ATOM     12  C   UNL     1      15.116  40.614  53.534  0.00  0.00    +0.000 A 
ATOM     13  C   UNL     1      14.022  41.465  53.709  0.00  0.00    +0.000 A 
ATOM     14  C   UNL     1      14.158  42.834  53.481  0.00  0.00    +0.000 A 
ATOM     15  C   UNL     1      15.388  43.360  53.087  0.00  0.00    +0.000 A 
ATOM     16  C   UNL     1      16.483  42.514  52.911  0.00  0.00    +0.000 A 
ENDBRANCH   9  11
ENDBRANCH   7   9
ENDBRANCH   2   3
BRANCH   2  17
ATOM     17  C   UNL     1      19.111  35.032  52.373  0.00  0.00    +0.000 C 
BRANCH  17  18
ATOM     18  N   UNL     1      19.685  35.091  53.728  0.00  0.00    +0.000 NA
ATOM     19  C   UNL     1      20.958  34.388  53.862  0.00  0.00    +0.000 C 
ATOM     20  C   UNL     1      21.626  34.696  55.198  0.00  0.00    +0.000 C 
ATOM     21  C   UNL     1      20.741  34.337  56.385  0.00  0.00    +0.000 C 
ATOM     22  C   UNL     1      19.299  34.045  55.984  0.00  0.00    +0.000 C 
ATOM     23  C   UNL     1      18.739  34.932  54.845  0.00  0.00    +0.000 C 
BRANCH  23  24
ATOM     24  C   UNL     1      18.183  36.291  55.394  0.00  0.00    +0.000 C 
ATOM     25  C   UNL     1      16.915  36.812  54.685  0.00  0.00    +0.000 C 
ATOM     26  C   UNL     1      16.111  37.824  55.511  0.00  0.00    +0.000 C 
ATOM     27  C   UNL     1      16.991  38.609  56.471  0.00  0.00    +0.000 C 
ATOM     28  C   UNL     1      17.701  37.689  57.463  0.00  0.00    +0.000 C 
ATOM     29  C   UNL     1      17.955  36.280  56.915  0.00  0.00    +0.000 C 
ENDBRANCH  23  24
ENDBRANCH  17  18
ENDBRANCH   2  17
TORSDOF 6
ENDMDL
MODEL 2
REMARK VINA RESULT:    -4.979      4.845      8.326
REMARK INTER + INTRA:         -10.749
REMARK INTER:                  -7.150
REMARK INTRA:                  -3.599
REMARK UNBOUND:                -4.023
REMARK  Name = 
REMARK  7 active torsions:
REMARK  status: ('A' for Active; 'I' for Inactive)
REMARK    1  A    between atoms: C_1  and  C_2
REMARK    2  A    between atoms: C_2  and  C_3
REMARK    3  A    between atoms: C_2  and  C_16
REMARK    4  A    between atoms: C_3  and  N_4
REMARK    5  A    between atoms: C_9  and  C_10
REMARK    6  A    between atoms: C_20  and  C_21
REMARK    7  A    between atoms: C_21  and  C_23
REMARK                            x       y       z     vdW  Elec       q    Type
REMARK                         _______ _______ _______ _____ _____    ______ ____
ROOT
ATOM      1  C   UNL     1      24.929  31.457  51.455  0.00  0.00    +0.000 C 
ATOM      2  C   UNL     1      25.223  32.737  52.244  0.00  0.00    +0.000 C 
ENDROOT
BRANCH   2   3
ATOM      3  C   UNL     1      24.109  33.188  53.188  0.00  0.00    +0.000 A 
ATOM      4  C   UNL     1      24.346  33.643  54.495  0.00  0.00    +0.000 A 
ATOM      5  C   UNL     1      23.292  34.033  55.325  0.00  0.00    +0.000 A 
ATOM      6  C   UNL     1      21.978  33.991  54.861  0.00  0.00    +0.000 A 
ATOM      7  C   UNL     1      21.720  33.575  53.553  0.00  0.00    +0.000 A 
ATOM      8  C   UNL     1      22.779  33.165  52.732  0.00  0.00    +0.000 A 
BRANCH   7   9
ATOM      9  C   UNL     1      20.337  33.504  53.012  0.00  0.00    +0.000 C 
ATOM     10  O   UNL     1      19.622  32.552  53.311  0.00  0.00    +0.000 OA
BRANCH   9  11
ATOM     11  C   UNL     1      19.796  34.558  52.118  0.00  0.00    +0.000 A 
ATOM     12  C   UNL     1      18.536  34.440  51.520  0.00  0.00    +0.000 A 
ATOM     13  C   UNL     1      18.061  35.461  50.694  0.00  0.00    +0.000 A 
ATOM     14  C   UNL     1      18.834  36.602  50.475  0.00  0.00    +0.000 A 
ATOM     15  C   UNL     1      20.080  36.731  51.089  0.00  0.00    +0.000 A 
ATOM     16  C   UNL     1      20.559  35.714  51.914  0.00  0.00    +0.000 A 
ENDBRANCH   9  11
ENDBRANCH   7   9
ENDBRANCH   2   3
BRANCH   2  17
ATOM     17  C   UNL     1      25.812  33.875  51.346  0.00  0.00    +0.000 C 
BRANCH  17  18
ATOM     18  N   UNL     1      25.535  33.957  49.902  0.00  0.00    +0.000 NA
ATOM     19  C   UNL     1      26.733  33.943  49.069  0.00  0.00    +0.000 C 
ATOM     20  C   UNL     1      26.383  33.770  47.594  0.00  0.00    +0.000 C 
ATOM     21  C   UNL     1      25.448  34.862  47.088  0.00  0.00    +0.000 C 
ATOM     22  C   UNL     1      24.837  35.689  48.215  0.00  0.00    +0.000 C 
ATOM     23  C   UNL     1      24.475  34.895  49.493  0.00  0.00    +0.000 C 
BRANCH  23  24
ATOM     24  C   UNL     1      23.060  34.230  49.378  0.00  0.00    +0.000 C 
ATOM     25  C   UNL     1      22.029  35.027  48.553  0.00  0.00    +0.000 C 
ATOM     26  C   UNL     1      20.860  34.182  48.031  0.00  0.00    +0.000 C 
ATOM     27  C   UNL     1      20.565  32.993  48.932  0.00  0.00    +0.000 C 
ATOM     28  C   UNL     1      21.772  32.062  49.048  0.00  0.00    +0.000 C 
ATOM     29  C   UNL     1      23.114  32.779  48.870  0.00  0.00    +0.000 C 
ENDBRANCH  23  24
ENDBRANCH  17  18
ENDBRANCH   2  17
TORSDOF 6
ENDMDL
MODEL 3
REMARK VINA RESULT:    -4.884     11.001     13.783
REMARK INTER + INTRA:         -10.621
REMARK INTER:                  -6.598
REMARK INTRA:                  -4.023
REMARK UNBOUND:                -4.023
REMARK  Name = 
REMARK  7 active torsions:
REMARK  status: ('A' for Active; 'I' for Inactive)
REMARK    1  A    between atoms: C_1  and  C_2
REMARK    2  A    between atoms: C_2  and  C_3
REMARK    3  A    between atoms: C_2  and  C_16
REMARK    4  A    between atoms: C_3  and  N_4
REMARK    5  A    between atoms: C_9  and  C_10
REMARK    6  A    between atoms: C_20  and  C_21
REMARK    7  A    between atoms: C_21  and  C_23
REMARK                            x       y       z     vdW  Elec       q    Type
REMARK                         _______ _______ _______ _____ _____    ______ ____
ROOT
ATOM      1  C   UNL     1      13.642  42.854  45.757  0.00  0.00    +0.000 C 
ATOM      2  C   UNL     1      14.445  44.135  45.506  0.00  0.00    +0.000 C 
ENDROOT
BRANCH   2   3
ATOM      3  C   UNL     1      13.701  45.436  45.801  0.00  0.00    +0.000 A 
ATOM      4  C   UNL     1      14.212  46.704  45.483  0.00  0.00    +0.000 A 
ATOM      5  C   UNL     1      13.498  47.867  45.784  0.00  0.00    +0.000 A 
ATOM      6  C   UNL     1      12.248  47.786  46.396  0.00  0.00    +0.000 A 
ATOM      7  C   UNL     1      11.702  46.535  46.691  0.00  0.00    +0.000 A 
ATOM      8  C   UNL     1      12.432  45.372  46.406  0.00  0.00    +0.000 A 
BRANCH   7   9
ATOM      9  C   UNL     1      10.377  46.393  47.350  0.00  0.00    +0.000 C 
ATOM     10  O   UNL     1      10.283  46.586  48.559  0.00  0.00    +0.000 OA
BRANCH   9  11
ATOM     11  C   UNL     1       9.161  46.025  46.583  0.00  0.00    +0.000 A 
ATOM     12  C   UNL     1       8.592  44.749  46.672  0.00  0.00    +0.000 A 
ATOM     13  C   UNL     1       7.441  44.449  45.942  0.00  0.00    +0.000 A 
ATOM     14  C   UNL     1       6.851  45.421  45.134  0.00  0.00    +0.000 A 
ATOM     15  C   UNL     1       7.403  46.700  45.061  0.00  0.00    +0.000 A 
ATOM     16  C   UNL     1       8.553  47.005  45.789  0.00  0.00    +0.000 A 
ENDBRANCH   9  11
ENDBRANCH   7   9
ENDBRANCH   2   3
BRANCH   2  17
ATOM     17  C   UNL     1      15.198  44.114  44.135  0.00  0.00    +0.000 C 
BRANCH  17  18
ATOM     18  N   UNL     1      14.617  43.497  42.931  0.00  0.00    +0.000 NA
ATOM     19  C   UNL     1      15.416  42.405  42.382  0.00  0.00    +0.000 C 
ATOM     20  C   UNL     1      14.651  41.642  41.305  0.00  0.00    +0.000 C 
ATOM     21  C   UNL     1      14.204  42.544  40.162  0.00  0.00    +0.000 C 
ATOM     22  C   UNL     1      14.347  44.028  40.486  0.00  0.00    +0.000 C 
ATOM     23  C   UNL     1      14.020  44.417  41.948  0.00  0.00    +0.000 C 
BRANCH  23  24
ATOM     24  C   UNL     1      12.483  44.644  42.155  0.00  0.00    +0.000 C 
ATOM     25  C   UNL     1      11.761  43.537  42.951  0.00  0.00    +0.000 C 
ATOM     26  C   UNL     1      10.429  43.981  43.569  0.00  0.00    +0.000 C 
ATOM     27  C   UNL     1       9.766  45.090  42.765  0.00  0.00    +0.000 C 
ATOM     28  C   UNL     1      10.653  46.331  42.681  0.00  0.00    +0.000 C 
ATOM     29  C   UNL     1      12.151  46.016  42.765  0.00  0.00    +0.000 C 
ENDBRANCH  23  24
ENDBRANCH  17  18
ENDBRANCH   2  17
TORSDOF 6
ENDMDL
