MODEL 1
REMARK VINA RESULT:    -6.920      0.000      0.000
REMARK INTER + INTRA:         -13.018
REMARK INTER:                  -9.416
REMARK INTRA:                  -3.602
REMARK UNBOUND:                -3.064
REMARK  Name = 
REMARK  8 active torsions:
REMARK  status: ('A' for Active; 'I' for Inactive)
REMARK    1  A    between atoms: C_4  and  O_5
REMARK    2  A    between atoms: C_4  and  C_6
REMARK    3  A    between atoms: C_9  and  O_10
REMARK    4  A    between atoms: O_10  and  C_11
REMARK    5  A    between atoms: C_11  and  C_12
REMARK    6  A    between atoms: C_20  and  C_21
REMARK    7  A    between atoms: C_21  and  C_22
REMARK    8  A    between atoms: C_28  and  C_29
REMARK                            x       y       z     vdW  Elec       q    Type
REMARK                         _______ _______ _______ _____ _____    ______ ____
ROOT
ATOM      1  O   UNL     1      17.075  41.310  51.833  0.00  0.00    +0.000 OA
ATOM      2  C   UNL     1      16.946  40.099  51.810  0.00  0.00    +0.000 C 
ATOM      3  O   UNL     1      17.147  39.318  50.718  0.00  0.00    +0.000 OA
ATOM      4  C   UNL     1      16.948  37.955  51.079  0.00  0.00    +0.000 C 
ATOM      5  C   UNL     1      16.496  37.998  52.498  0.00  0.00    +0.000 C 
ATOM      6  C   UNL     1      16.512  39.262  52.942  0.00  0.00    +0.000 C 
ENDROOT
BRANCH   6   7
ATOM      7  C   UNL     1      16.091  39.777  54.238  0.00  0.00    +0.000 A 
ATOM      8  C   UNL     1      14.738  40.107  54.467  0.00  0.00    +0.000 A 
ATOM      9  C   UNL     1      14.323  40.624  55.698  0.00  0.00    +0.000 A 
ATOM     10  C   UNL     1      15.278  40.794  56.676  0.00  0.00    +0.000 A 
ATOM     11  C   UNL     1      16.596  40.466  56.463  0.00  0.00    +0.000 A 
ATOM     12  C   UNL     1      17.036  39.955  55.259  0.00  0.00    +0.000 A 
ATOM     13  O   UNL     1      17.373  40.705  57.554  0.00  0.00    +0.000 OA
ATOM     14  C   UNL     1      16.390  41.212  58.481  0.00  0.00    +0.000 C 
ATOM     15  O   UNL     1      15.060  41.282  57.926  0.00  0.00    +0.000 OA
ENDBRANCH   6   7
BRANCH   4  16
ATOM     16  C   UNL     1      18.253  37.213  50.821  0.00  0.00    +0.000 A 
ATOM     17  C   UNL     1      19.357  37.368  51.680  0.00  0.00    +0.000 A 
ATOM     18  C   UNL     1      20.543  36.661  51.463  0.00  0.00    +0.000 A 
ATOM     19  C   UNL     1      20.664  35.785  50.386  0.00  0.00    +0.000 A 
ATOM     20  C   UNL     1      19.593  35.641  49.507  0.00  0.00    +0.000 A 
ATOM     21  C   UNL     1      18.405  36.350  49.721  0.00  0.00    +0.000 A 
BRANCH  19  22
ATOM     22  O   UNL     1      21.869  35.143  50.302  0.00  0.00    +0.000 OA
BRANCH  22  23
ATOM     23  C   UNL     1      21.901  33.780  50.715  0.00  0.00    +0.000 C 
BRANCH  23  24
ATOM     24  C   UNL     1      22.677  33.688  52.007  0.00  0.00    +0.000 A 
ATOM     25  C   UNL     1      22.060  33.959  53.236  0.00  0.00    +0.000 A 
ATOM     26  C   UNL     1      22.784  33.867  54.427  0.00  0.00    +0.000 A 
ATOM     27  C   UNL     1      24.130  33.510  54.399  0.00  0.00    +0.000 A 
ATOM     28  C   UNL     1      24.757  33.248  53.182  0.00  0.00    +0.000 A 
ATOM     29  C   UNL     1      24.035  33.339  51.991  0.00  0.00    +0.000 A 
ENDBRANCH  23  24
ENDBRANCH  22  23
ENDBRANCH  19  22
ENDBRANCH   4  16
BRANCH   4  30
ATOM     30  O   UNL     1      15.895  37.439  50.277  0.00  0.00    +0.000 OA
ATOM     31  H   UNL     1      16.097  37.716  49.370  0.00  0.00    +0.000 HD
ENDBRANCH   4  30
BRANCH   5  32
ATOM     32  C   UNL     1      15.984  36.784  53.219  0.00  0.00    +0.000 C 
BRANCH  32  33
ATOM     33  C   UNL     1      17.034  35.962  53.925  0.00  0.00    +0.000 A 
ATOM     34  C   UNL     1      17.618  36.410  55.118  0.00  0.00    +0.000 A 
ATOM     35  C   UNL     1      18.609  35.656  55.750  0.00  0.00    +0.000 A 
ATOM     36  C   UNL     1      19.021  34.443  55.202  0.00  0.00    +0.000 A 
ATOM     37  C   UNL     1      18.437  33.979  54.024  0.00  0.00    +0.000 A 
ATOM     38  C   UNL     1      17.449  34.733  53.391  0.00  0.00    +0.000 A 
ENDBRANCH  32  33
ENDBRANCH   5  32
TORSDOF 8
ENDMDL
MODEL 2
REMARK VINA RESULT:    -6.827     11.466     14.623
REMARK INTER + INTRA:         -12.884
REMARK INTER:                  -8.922
REMARK INTRA:                  -3.962
REMARK UNBOUND:                -3.064
REMARK  Name = 
REMARK  8 active torsions:
REMARK  status: ('A' for Active; 'I' for Inactive)
REMARK    1  A    between atoms: C_4  and  O_5
REMARK    2  A    between atoms: C_4  and  C_6
REMARK    3  A    between atoms: C_9  and  O_10
REMARK    4  A    between atoms: O_10  and  C_11
REMARK    5  A    between atoms: C_11  and  C_12
REMARK    6  A    between atoms: C_20  and  C_21
REMARK    7  A    between atoms: C_21  and  C_22
REMARK    8  A    between atoms: C_28  and  C_29
REMARK                            x       y       z     vdW  Elec       q    Type
REMARK                         _______ _______ _______ _____ _____    ______ ____
ROOT
ATOM      1  O   UNL     1      12.161  50.484  42.190  0.00  0.00    +0.000 OA
ATOM      2  C   UNL     1      11.953  49.591  42.991  0.00  0.00    +0.000 C 
ATOM      3  O   UNL     1      10.942  48.690  42.902  0.00  0.00    +0.000 OA
ATOM      4  C   UNL     1      11.040  47.772  43.986  0.00  0.00    +0.000 C 
ATOM      5  C   UNL     1      12.170  48.280  44.814  0.00  0.00    +0.000 C 
ATOM      6  C   UNL     1      12.727  49.344  44.219  0.00  0.00    +0.000 C 
ENDROOT
BRANCH   6   7
ATOM      7  C   UNL     1      13.810  50.191  44.699  0.00  0.00    +0.000 A 
ATOM      8  C   UNL     1      13.579  51.124  45.733  0.00  0.00    +0.000 A 
ATOM      9  C   UNL     1      14.603  51.961  46.188  0.00  0.00    +0.000 A 
ATOM     10  C   UNL     1      15.841  51.838  45.596  0.00  0.00    +0.000 A 
ATOM     11  C   UNL     1      16.076  50.926  44.595  0.00  0.00    +0.000 A 
ATOM     12  C   UNL     1      15.085  50.088  44.124  0.00  0.00    +0.000 A 
ATOM     13  O   UNL     1      17.361  50.962  44.150  0.00  0.00    +0.000 OA
ATOM     14  C   UNL     1      17.910  51.996  44.995  0.00  0.00    +0.000 C 
ATOM     15  O   UNL     1      16.947  52.564  45.907  0.00  0.00    +0.000 OA
ENDBRANCH   6   7
BRANCH   4  16
ATOM     16  C   UNL     1      11.222  46.379  43.399  0.00  0.00    +0.000 A 
ATOM     17  C   UNL     1      12.276  46.101  42.508  0.00  0.00    +0.000 A 
ATOM     18  C   UNL     1      12.464  44.813  41.995  0.00  0.00    +0.000 A 
ATOM     19  C   UNL     1      11.609  43.772  42.351  0.00  0.00    +0.000 A 
ATOM     20  C   UNL     1      10.542  44.035  43.207  0.00  0.00    +0.000 A 
ATOM     21  C   UNL     1      10.351  45.324  43.721  0.00  0.00    +0.000 A 
BRANCH  19  22
ATOM     22  O   UNL     1      11.917  42.562  41.794  0.00  0.00    +0.000 OA
BRANCH  22  23
ATOM     23  C   UNL     1      13.224  42.423  41.243  0.00  0.00    +0.000 C 
BRANCH  23  24
ATOM     24  C   UNL     1      14.169  42.014  42.348  0.00  0.00    +0.000 A 
ATOM     25  C   UNL     1      13.805  41.028  43.275  0.00  0.00    +0.000 A 
ATOM     26  C   UNL     1      14.686  40.652  44.291  0.00  0.00    +0.000 A 
ATOM     27  C   UNL     1      15.935  41.261  44.392  0.00  0.00    +0.000 A 
ATOM     28  C   UNL     1      16.305  42.248  43.481  0.00  0.00    +0.000 A 
ATOM     29  C   UNL     1      15.425  42.626  42.465  0.00  0.00    +0.000 A 
ENDBRANCH  23  24
ENDBRANCH  22  23
ENDBRANCH  19  22
ENDBRANCH   4  16
BRANCH   4  30
ATOM     30  O   UNL     1       9.842  47.859  44.744  0.00  0.00    +0.000 OA
ATOM     31  H   UNL     1      10.047  47.464  45.605  0.00  0.00    +0.000 HD
ENDBRANCH   4  30
BRANCH   5  32
ATOM     32  C   UNL     1      12.495  47.718  46.168  0.00  0.00    +0.000 C 
BRANCH  32  33
ATOM     33  C   UNL     1      12.789  46.238  46.199  0.00  0.00    +0.000 A 
ATOM     34  C   UNL     1      13.958  45.722  45.622  0.00  0.00    +0.000 A 
ATOM     35  C   UNL     1      14.207  44.349  45.631  0.00  0.00    +0.000 A 
ATOM     36  C   UNL     1      13.297  43.477  46.223  0.00  0.00    +0.000 A 
ATOM     37  C   UNL     1      12.138  43.977  46.814  0.00  0.00    +0.000 A 
ATOM     38  C   UNL     1      11.887  45.349  46.804  0.00  0.00    +0.000 A 
ENDBRANCH  32  33
ENDBRANCH   5  32
TORSDOF 8
ENDMDL
MODEL 3
REMARK VINA RESULT:    -6.528      3.042      5.175
REMARK INTER + INTRA:         -12.454
REMARK INTER:                  -9.391
REMARK INTRA:                  -3.064
REMARK UNBOUND:                -3.064
REMARK  Name = 
REMARK  8 active torsions:
REMARK  status: ('A' for Active; 'I' for Inactive)
REMARK    1  A    between atoms: C_4  and  O_5
REMARK    2  A    between atoms: C_4  and  C_6
REMARK    3  A    between atoms: C_9  and  O_10
REMARK    4  A    between atoms: O_10  and  C_11
REMARK    5  A    between atoms: C_11  and  C_12
REMARK    6  A    between atoms: C_20  and  C_21
REMARK    7  A    between atoms: C_21  and  C_22
REMARK    8  A    between atoms: C_28  and  C_29
REMARK                            x       y       z     vdW  Elec       q    Type
REMARK                         _______ _______ _______ _____ _____    ______ ____
ROOT
ATOM      1  O   UNL     1      15.384  41.344  56.382  0.00  0.00    +0.000 OA
ATOM      2  C   UNL     1      15.876  41.090  55.298  0.00  0.00    +0.000 C 
ATOM      3  O   UNL     1      17.097  40.528  55.111  0.00  0.00    +0.000 OA
ATOM      4  C   UNL     1      17.314  40.339  53.716  0.00  0.00    +0.000 C 
ATOM      5  C   UNL     1      16.125  40.951  53.059  0.00  0.00    +0.000 C 
ATOM      6  C   UNL     1      15.261  41.378  53.990  0.00  0.00    +0.000 C 
ENDROOT
BRANCH   6   7
ATOM      7  C   UNL     1      14.004  42.090  53.806  0.00  0.00    +0.000 A 
ATOM      8  C   UNL     1      12.824  41.382  53.489  0.00  0.00    +0.000 A 
ATOM      9  C   UNL     1      11.615  42.054  53.286  0.00  0.00    +0.000 A 
ATOM     10  C   UNL     1      11.616  43.426  53.411  0.00  0.00    +0.000 A 
ATOM     11  C   UNL     1      12.758  44.121  53.729  0.00  0.00    +0.000 A 
ATOM     12  C   UNL     1      13.966  43.486  53.933  0.00  0.00    +0.000 A 
ATOM     13  O   UNL     1      12.545  45.462  53.808  0.00  0.00    +0.000 OA
ATOM     14  C   UNL     1      11.133  45.529  53.515  0.00  0.00    +0.000 C 
ATOM     15  O   UNL     1      10.540  44.240  53.249  0.00  0.00    +0.000 OA
ENDBRANCH   6   7
BRANCH   4  16
ATOM     16  C   UNL     1      17.512  38.849  53.476  0.00  0.00    +0.000 A 
ATOM     17  C   UNL     1      18.161  38.381  52.318  0.00  0.00    +0.000 A 
ATOM     18  C   UNL     1      18.374  37.015  52.113  0.00  0.00    +0.000 A 
ATOM     19  C   UNL     1      17.944  36.078  53.052  0.00  0.00    +0.000 A 
ATOM     20  C   UNL     1      17.272  36.519  54.190  0.00  0.00    +0.000 A 
ATOM     21  C   UNL     1      17.057  37.887  54.396  0.00  0.00    +0.000 A 
BRANCH  19  22
ATOM     22  O   UNL     1      18.233  34.779  52.738  0.00  0.00    +0.000 OA
BRANCH  22  23
ATOM     23  C   UNL     1      18.428  33.883  53.828  0.00  0.00    +0.000 C 
BRANCH  23  24
ATOM     24  C   UNL     1      19.826  34.077  54.364  0.00  0.00    +0.000 A 
ATOM     25  C   UNL     1      20.945  33.854  53.549  0.00  0.00    +0.000 A 
ATOM     26  C   UNL     1      22.234  34.040  54.051  0.00  0.00    +0.000 A 
ATOM     27  C   UNL     1      22.417  34.446  55.372  0.00  0.00    +0.000 A 
ATOM     28  C   UNL     1      21.313  34.663  56.194  0.00  0.00    +0.000 A 
ATOM     29  C   UNL     1      20.023  34.476  55.694  0.00  0.00    +0.000 A 
ENDBRANCH  23  24
ENDBRANCH  22  23
ENDBRANCH  19  22
ENDBRANCH   4  16
BRANCH   4  30
ATOM     30  O   UNL     1      18.471  41.077  53.350  0.00  0.00    +0.000 OA
ATOM     31  H   UNL     1      18.430  41.900  53.861  0.00  0.00    +0.000 HD
ENDBRANCH   4  30
BRANCH   5  32
ATOM     32  C   UNL     1      16.036  41.147  51.573  0.00  0.00    +0.000 C 
BRANCH  32  33
ATOM     33  C   UNL     1      15.018  40.285  50.868  0.00  0.00    +0.000 A 
ATOM     34  C   UNL     1      14.380  40.729  49.701  0.00  0.00    +0.000 A 
ATOM     35  C   UNL     1      13.420  39.936  49.072  0.00  0.00    +0.000 A 
ATOM     36  C   UNL     1      13.091  38.688  49.595  0.00  0.00    +0.000 A 
ATOM     37  C   UNL     1      13.728  38.228  50.746  0.00  0.00    +0.000 A 
ATOM     38  C   UNL     1      14.687  39.020  51.377  0.00  0.00    +0.000 A 
ENDBRANCH  32  33
ENDBRANCH   5  32
TORSDOF 8
ENDMDL
