MODEL 1
REMARK VINA RESULT:    -6.999      0.000      0.000
REMARK INTER + INTRA:          -9.927
REMARK INTER:                  -9.249
REMARK INTRA:                  -0.678
REMARK UNBOUND:                -0.678
REMARK  Name = 
REMARK  6 active torsions:
REMARK  status: ('A' for Active; 'I' for Inactive)
REMARK    1  A    between atoms: O_1  and  C_2
REMARK    2  A    between atoms: C_4  and  C_5
REMARK    3  A    between atoms: C_8  and  C_9
REMARK    4  A    between atoms: C_9  and  C_10
REMARK    5  A    between atoms: C_10  and  N_11
REMARK    6  A    between atoms: N_14  and  C_15
REMARK                            x       y       z     vdW  Elec       q    Type
REMARK                         _______ _______ _______ _____ _____    ______ ____
ROOT
ATOM      1  N   UNL     1      16.504  36.570  47.607  0.00  0.00    +0.000 NA
ATOM      2  C   UNL     1      17.785  37.077  47.054  0.00  0.00    +0.000 C 
ATOM      3  C   UNL     1      17.690  38.447  46.341  0.00  0.00    +0.000 C 
ATOM      4  N   UNL     1      16.743  38.360  45.218  0.00  0.00    +0.000 N 
ATOM      5  C   UNL     1      15.528  37.555  45.477  0.00  0.00    +0.000 C 
ATOM      6  C   UNL     1      15.347  37.255  46.985  0.00  0.00    +0.000 C 
ENDROOT
BRANCH   4   7
ATOM      7  C   UNL     1      16.558  39.471  44.376  0.00  0.00    +0.000 A 
ATOM      8  C   UNL     1      16.940  39.421  43.023  0.00  0.00    +0.000 A 
ATOM      9  C   UNL     1      16.816  40.531  42.186  0.00  0.00    +0.000 A 
ATOM     10  C   UNL     1      16.305  41.724  42.684  0.00  0.00    +0.000 A 
ATOM     11  C   UNL     1      15.889  41.820  44.020  0.00  0.00    +0.000 A 
ATOM     12  C   UNL     1      15.347  43.026  44.501  0.00  0.00    +0.000 A 
ATOM     13  C   UNL     1      14.890  43.137  45.815  0.00  0.00    +0.000 A 
ATOM     14  C   UNL     1      14.960  42.037  46.660  0.00  0.00    +0.000 A 
ATOM     15  C   UNL     1      15.499  40.835  46.194  0.00  0.00    +0.000 A 
ATOM     16  C   UNL     1      15.998  40.691  44.878  0.00  0.00    +0.000 A 
ENDBRANCH   4   7
BRANCH   1  17
ATOM     17  C   UNL     1      16.479  36.643  49.079  0.00  0.00    +0.000 C 
BRANCH  17  18
ATOM     18  C   UNL     1      17.542  37.591  49.659  0.00  0.00    +0.000 C 
BRANCH  18  22
ATOM     19  C   UNL     1      15.759  40.969  51.725  0.00  0.00    +0.000 A 
ATOM     20  C   UNL     1      15.093  40.347  50.658  0.00  0.00    +0.000 A 
ATOM     21  C   UNL     1      15.671  39.263  49.986  0.00  0.00    +0.000 A 
ATOM     22  C   UNL     1      16.922  38.770  50.372  0.00  0.00    +0.000 A 
ATOM     23  C   UNL     1      17.597  39.393  51.429  0.00  0.00    +0.000 A 
ATOM     24  C   UNL     1      17.017  40.476  52.099  0.00  0.00    +0.000 A 
BRANCH  19  27
ATOM     25  C   UNL     1      15.201  44.036  53.485  0.00  0.00    +0.000 A 
ATOM     26  N   UNL     1      15.937  43.202  52.801  0.00  0.00    +0.000 NA
ATOM     27  C   UNL     1      15.173  42.083  52.473  0.00  0.00    +0.000 A 
ATOM     28  C   UNL     1      13.859  42.138  52.906  0.00  0.00    +0.000 A 
ATOM     29  S   UNL     1      13.585  43.600  53.771  0.00  0.00    +0.000 S 
BRANCH  25  30
ATOM     30  O   UNL     1      15.734  45.164  53.913  0.00  0.00    +0.000 OA
ATOM     31  H   UNL     1      15.974  44.922  54.823  0.00  0.00    +0.000 HD
ENDBRANCH  25  30
ENDBRANCH  19  27
ENDBRANCH  18  22
ENDBRANCH  17  18
ENDBRANCH   1  17
TORSDOF 6
ENDMDL
MODEL 2
REMARK VINA RESULT:    -6.899      5.213      8.913
REMARK INTER + INTRA:          -9.795
REMARK INTER:                  -9.512
REMARK INTRA:                  -0.283
REMARK UNBOUND:                -0.678
REMARK  Name = 
REMARK  6 active torsions:
REMARK  status: ('A' for Active; 'I' for Inactive)
REMARK    1  A    between atoms: O_1  and  C_2
REMARK    2  A    between atoms: C_4  and  C_5
REMARK    3  A    between atoms: C_8  and  C_9
REMARK    4  A    between atoms: C_9  and  C_10
REMARK    5  A    between atoms: C_10  and  N_11
REMARK    6  A    between atoms: N_14  and  C_15
REMARK                            x       y       z     vdW  Elec       q    Type
REMARK                         _______ _______ _______ _____ _____    ______ ____
ROOT
ATOM      1  N   UNL     1      17.854  35.090  51.224  0.00  0.00    +0.000 NA
ATOM      2  C   UNL     1      18.270  35.474  52.597  0.00  0.00    +0.000 C 
ATOM      3  C   UNL     1      19.798  35.482  52.836  0.00  0.00    +0.000 C 
ATOM      4  N   UNL     1      20.350  34.142  52.579  0.00  0.00    +0.000 N 
ATOM      5  C   UNL     1      19.768  33.431  51.418  0.00  0.00    +0.000 C 
ATOM      6  C   UNL     1      18.944  34.380  50.516  0.00  0.00    +0.000 C 
ENDROOT
BRANCH   4   7
ATOM      7  C   UNL     1      21.715  33.895  52.811  0.00  0.00    +0.000 A 
ATOM      8  C   UNL     1      22.580  33.575  51.749  0.00  0.00    +0.000 A 
ATOM      9  C   UNL     1      23.926  33.272  51.967  0.00  0.00    +0.000 A 
ATOM     10  C   UNL     1      24.440  33.282  53.259  0.00  0.00    +0.000 A 
ATOM     11  C   UNL     1      23.625  33.616  54.350  0.00  0.00    +0.000 A 
ATOM     12  C   UNL     1      24.168  33.649  55.647  0.00  0.00    +0.000 A 
ATOM     13  C   UNL     1      23.389  34.015  56.745  0.00  0.00    +0.000 A 
ATOM     14  C   UNL     1      22.058  34.364  56.555  0.00  0.00    +0.000 A 
ATOM     15  C   UNL     1      21.506  34.332  55.272  0.00  0.00    +0.000 A 
ATOM     16  C   UNL     1      22.257  33.940  54.137  0.00  0.00    +0.000 A 
ENDBRANCH   4   7
BRANCH   1  17
ATOM     17  C   UNL     1      17.345  36.247  50.465  0.00  0.00    +0.000 C 
BRANCH  17  18
ATOM     18  C   UNL     1      18.245  37.489  50.577  0.00  0.00    +0.000 C 
BRANCH  18  22
ATOM     19  C   UNL     1      16.151  40.890  52.283  0.00  0.00    +0.000 A 
ATOM     20  C   UNL     1      17.274  40.344  52.923  0.00  0.00    +0.000 A 
ATOM     21  C   UNL     1      17.945  39.242  52.377  0.00  0.00    +0.000 A 
ATOM     22  C   UNL     1      17.514  38.668  51.176  0.00  0.00    +0.000 A 
ATOM     23  C   UNL     1      16.387  39.201  50.539  0.00  0.00    +0.000 A 
ATOM     24  C   UNL     1      15.719  40.302  51.086  0.00  0.00    +0.000 A 
BRANCH  19  27
ATOM     25  C   UNL     1      15.278  44.135  53.518  0.00  0.00    +0.000 A 
ATOM     26  N   UNL     1      16.116  43.260  53.030  0.00  0.00    +0.000 NA
ATOM     27  C   UNL     1      15.443  42.059  52.805  0.00  0.00    +0.000 A 
ATOM     28  C   UNL     1      14.092  42.094  53.110  0.00  0.00    +0.000 A 
ATOM     29  S   UNL     1      13.666  43.644  53.723  0.00  0.00    +0.000 S 
BRANCH  25  30
ATOM     30  O   UNL     1      15.713  45.343  53.820  0.00  0.00    +0.000 OA
ATOM     31  H   UNL     1      15.819  45.266  54.783  0.00  0.00    +0.000 HD
ENDBRANCH  25  30
ENDBRANCH  19  27
ENDBRANCH  18  22
ENDBRANCH  17  18
ENDBRANCH   1  17
TORSDOF 6
ENDMDL
MODEL 3
REMARK VINA RESULT:    -6.847      5.545      8.342
REMARK INTER + INTRA:          -9.727
REMARK INTER:                  -9.092
REMARK INTRA:                  -0.635
REMARK UNBOUND:                -0.678
REMARK  Name = 
REMARK  6 active torsions:
REMARK  status: ('A' for Active; 'I' for Inactive)
REMARK    1  A    between atoms: O_1  and  C_2
REMARK    2  A    between atoms: C_4  and  C_5
REMARK    3  A    between atoms: C_8  and  C_9
REMARK    4  A    between atoms: C_9  and  C_10
REMARK    5  A    between atoms: C_10  and  N_11
REMARK    6  A    between atoms: N_14  and  C_15
REMARK                            x       y       z     vdW  Elec       q    Type
REMARK                         _______ _______ _______ _____ _____    ______ ____
ROOT
ATOM      1  N   UNL     1      11.058  43.915  45.691  0.00  0.00    +0.000 NA
ATOM      2  C   UNL     1      12.111  43.550  46.673  0.00  0.00    +0.000 C 
ATOM      3  C   UNL     1      13.474  43.163  46.052  0.00  0.00    +0.000 C 
ATOM      4  N   UNL     1      13.305  42.010  45.155  0.00  0.00    +0.000 N 
ATOM      5  C   UNL     1      12.074  42.024  44.332  0.00  0.00    +0.000 C 
ATOM      6  C   UNL     1      11.394  43.414  44.338  0.00  0.00    +0.000 C 
ENDROOT
BRANCH   4   7
ATOM      7  C   UNL     1      14.431  41.435  44.540  0.00  0.00    +0.000 A 
ATOM      8  C   UNL     1      14.813  41.812  43.240  0.00  0.00    +0.000 A 
ATOM      9  C   UNL     1      15.895  41.212  42.591  0.00  0.00    +0.000 A 
ATOM     10  C   UNL     1      16.623  40.216  43.232  0.00  0.00    +0.000 A 
ATOM     11  C   UNL     1      16.298  39.820  44.537  0.00  0.00    +0.000 A 
ATOM     12  C   UNL     1      17.063  38.830  45.181  0.00  0.00    +0.000 A 
ATOM     13  C   UNL     1      16.785  38.445  46.493  0.00  0.00    +0.000 A 
ATOM     14  C   UNL     1      15.742  39.054  47.179  0.00  0.00    +0.000 A 
ATOM     15  C   UNL     1      14.973  40.035  46.549  0.00  0.00    +0.000 A 
ATOM     16  C   UNL     1      15.207  40.434  45.211  0.00  0.00    +0.000 A 
ENDBRANCH   4   7
BRANCH   1  17
ATOM     17  C   UNL     1      10.778  45.362  45.705  0.00  0.00    +0.000 C 
BRANCH  17  18
ATOM     18  C   UNL     1      11.526  46.115  46.819  0.00  0.00    +0.000 C 
BRANCH  18  22
ATOM     19  C   UNL     1      14.467  48.894  45.242  0.00  0.00    +0.000 A 
ATOM     20  C   UNL     1      13.218  49.349  45.693  0.00  0.00    +0.000 A 
ATOM     21  C   UNL     1      12.266  48.452  46.194  0.00  0.00    +0.000 A 
ATOM     22  C   UNL     1      12.545  47.083  46.264  0.00  0.00    +0.000 A 
ATOM     23  C   UNL     1      13.784  46.622  45.805  0.00  0.00    +0.000 A 
ATOM     24  C   UNL     1      14.734  47.519  45.305  0.00  0.00    +0.000 A 
BRANCH  19  27
ATOM     25  C   UNL     1      17.563  50.510  44.452  0.00  0.00    +0.000 A 
ATOM     26  N   UNL     1      16.850  49.545  44.971  0.00  0.00    +0.000 NA
ATOM     27  C   UNL     1      15.499  49.804  44.742  0.00  0.00    +0.000 A 
ATOM     28  C   UNL     1      15.250  50.959  44.018  0.00  0.00    +0.000 A 
ATOM     29  S   UNL     1      16.731  51.754  43.650  0.00  0.00    +0.000 S 
BRANCH  25  30
ATOM     30  O   UNL     1      18.876  50.472  44.568  0.00  0.00    +0.000 OA
ATOM     31  H   UNL     1      18.973  50.263  45.513  0.00  0.00    +0.000 HD
ENDBRANCH  25  30
ENDBRANCH  19  27
ENDBRANCH  18  22
ENDBRANCH  17  18
ENDBRANCH   1  17
TORSDOF 6
ENDMDL
