MODEL 1
REMARK VINA RESULT:    -5.289      0.000      0.000
REMARK INTER + INTRA:         -10.646
REMARK INTER:                  -9.096
REMARK INTRA:                  -1.550
REMARK UNBOUND:                -3.192
REMARK  Name = 
REMARK  7 active torsions:
REMARK  status: ('A' for Active; 'I' for Inactive)
REMARK    1  A    between atoms: C_2  and  C_4
REMARK    2  A    between atoms: C_7  and  C_8
REMARK    3  A    between atoms: C_8  and  N_9
REMARK    4  A    between atoms: C_10  and  C_12
REMARK    5  A    between atoms: C_17  and  C_18
REMARK    6  A    between atoms: N_20  and  C_21
REMARK    7  A    between atoms: C_21  and  C_22
REMARK                            x       y       z     vdW  Elec       q    Type
REMARK                         _______ _______ _______ _____ _____    ______ ____
ROOT
ATOM      1  N   UNL     1      18.175  36.628  55.006  0.00  0.00    +0.000 N 
ATOM      2  C   UNL     1      17.107  37.455  55.270  0.00  0.00    +0.000 C 
ATOM      3  O   UNL     1      16.181  37.126  56.009  0.00  0.00    +0.000 OA
ATOM      4  H   UNL     1      18.843  36.888  54.295  0.00  0.00    +0.000 HD
ENDROOT
BRANCH   2   5
ATOM      5  C   UNL     1      17.081  38.788  54.504  0.00  0.00    +0.000 C 
ATOM      6  C   UNL     1      17.024  39.967  55.495  0.00  0.00    +0.000 C 
ATOM      7  C   UNL     1      15.600  40.379  55.863  0.00  0.00    +0.000 C 
ATOM      8  C   UNL     1      14.760  40.685  54.623  0.00  0.00    +0.000 C 
ATOM      9  C   UNL     1      14.940  39.682  53.522  0.00  0.00    +0.000 C 
ATOM     10  C   UNL     1      15.970  38.816  53.480  0.00  0.00    +0.000 C 
BRANCH  10  11
ATOM     11  C   UNL     1      16.106  37.845  52.360  0.00  0.00    +0.000 C 
ATOM     12  O   UNL     1      15.171  37.134  52.021  0.00  0.00    +0.000 OA
ATOM     13  N   UNL     1      17.320  37.902  51.722  0.00  0.00    +0.000 N 
ATOM     14  H   UNL     1      17.975  38.624  51.981  0.00  0.00    +0.000 HD
BRANCH  13  15
ATOM     15  C   UNL     1      17.507  37.286  50.427  0.00  0.00    +0.000 C 
BRANCH  15  16
ATOM     16  C   UNL     1      18.884  36.676  50.336  0.00  0.00    +0.000 A 
ATOM     17  C   UNL     1      19.831  36.928  51.341  0.00  0.00    +0.000 A 
ATOM     18  C   UNL     1      21.099  36.349  51.283  0.00  0.00    +0.000 A 
ATOM     19  C   UNL     1      21.431  35.510  50.222  0.00  0.00    +0.000 A 
ATOM     20  C   UNL     1      20.496  35.249  49.219  0.00  0.00    +0.000 A 
ATOM     21  C   UNL     1      19.227  35.825  49.277  0.00  0.00    +0.000 A 
ENDBRANCH  15  16
ENDBRANCH  13  15
ENDBRANCH  10  11
ENDBRANCH   2   5
BRANCH   1  22
ATOM     22  C   UNL     1      18.255  35.283  55.527  0.00  0.00    +0.000 C 
BRANCH  22  26
ATOM     23  C   UNL     1      22.375  33.993  55.482  0.00  0.00    +0.000 A 
ATOM     24  C   UNL     1      21.678  34.162  54.285  0.00  0.00    +0.000 A 
ATOM     25  C   UNL     1      20.342  34.567  54.305  0.00  0.00    +0.000 A 
ATOM     26  C   UNL     1      19.687  34.810  55.523  0.00  0.00    +0.000 A 
ATOM     27  C   UNL     1      20.399  34.649  56.719  0.00  0.00    +0.000 A 
ATOM     28  C   UNL     1      21.734  34.239  56.701  0.00  0.00    +0.000 A 
BRANCH  23  30
ATOM     29  N   UNL     1      24.429  33.301  54.351  0.00  0.00    +0.000 NA
ATOM     30  C   UNL     1      23.801  33.568  55.451  0.00  0.00    +0.000 C 
ATOM     31  N   UNL     1      24.505  33.436  56.609  0.00  0.00    +0.000 N 
ATOM     32  H   UNL     1      23.836  33.481  53.538  0.00  0.00    +0.000 HD
ATOM     33  H   UNL     1      23.989  33.091  57.409  0.00  0.00    +0.000 HD
ATOM     34  H   UNL     1      25.378  32.939  56.455  0.00  0.00    +0.000 HD
ENDBRANCH  23  30
ENDBRANCH  22  26
ENDBRANCH   1  22
TORSDOF 7
ENDMDL
MODEL 2
REMARK VINA RESULT:    -5.245     10.763     12.945
REMARK INTER + INTRA:         -10.583
REMARK INTER:                  -7.283
REMARK INTRA:                  -3.300
REMARK UNBOUND:                -3.192
REMARK  Name = 
REMARK  7 active torsions:
REMARK  status: ('A' for Active; 'I' for Inactive)
REMARK    1  A    between atoms: C_2  and  C_4
REMARK    2  A    between atoms: C_7  and  C_8
REMARK    3  A    between atoms: C_8  and  N_9
REMARK    4  A    between atoms: C_10  and  C_12
REMARK    5  A    between atoms: C_17  and  C_18
REMARK    6  A    between atoms: N_20  and  C_21
REMARK    7  A    between atoms: C_21  and  C_22
REMARK                            x       y       z     vdW  Elec       q    Type
REMARK                         _______ _______ _______ _____ _____    ______ ____
ROOT
ATOM      1  N   UNL     1      15.246  43.551  45.372  0.00  0.00    +0.000 N 
ATOM      2  C   UNL     1      14.114  44.310  45.563  0.00  0.00    +0.000 C 
ATOM      3  O   UNL     1      13.149  43.908  46.211  0.00  0.00    +0.000 OA
ATOM      4  H   UNL     1      15.957  43.868  44.729  0.00  0.00    +0.000 HD
ENDROOT
BRANCH   2   5
ATOM      5  C   UNL     1      14.079  45.663  44.833  0.00  0.00    +0.000 C 
ATOM      6  C   UNL     1      13.868  46.806  45.846  0.00  0.00    +0.000 C 
ATOM      7  C   UNL     1      12.396  47.127  46.097  0.00  0.00    +0.000 C 
ATOM      8  C   UNL     1      11.651  47.424  44.794  0.00  0.00    +0.000 C 
ATOM      9  C   UNL     1      11.984  46.467  43.688  0.00  0.00    +0.000 C 
ATOM     10  C   UNL     1      13.062  45.661  43.716  0.00  0.00    +0.000 C 
BRANCH  10  11
ATOM     11  C   UNL     1      13.351  44.734  42.587  0.00  0.00    +0.000 C 
ATOM     12  O   UNL     1      14.430  44.757  42.011  0.00  0.00    +0.000 OA
ATOM     13  N   UNL     1      12.348  43.832  42.338  0.00  0.00    +0.000 N 
ATOM     14  H   UNL     1      11.556  43.797  42.964  0.00  0.00    +0.000 HD
BRANCH  13  15
ATOM     15  C   UNL     1      12.586  42.664  41.522  0.00  0.00    +0.000 C 
BRANCH  15  16
ATOM     16  C   UNL     1      12.653  41.429  42.388  0.00  0.00    +0.000 A 
ATOM     17  C   UNL     1      13.148  40.227  41.859  0.00  0.00    +0.000 A 
ATOM     18  C   UNL     1      13.240  39.086  42.656  0.00  0.00    +0.000 A 
ATOM     19  C   UNL     1      12.842  39.136  43.989  0.00  0.00    +0.000 A 
ATOM     20  C   UNL     1      12.352  40.327  44.528  0.00  0.00    +0.000 A 
ATOM     21  C   UNL     1      12.262  41.471  43.734  0.00  0.00    +0.000 A 
ENDBRANCH  15  16
ENDBRANCH  13  15
ENDBRANCH  10  11
ENDBRANCH   2   5
BRANCH   1  22
ATOM     22  C   UNL     1      15.358  42.197  45.862  0.00  0.00    +0.000 C 
BRANCH  22  26
ATOM     23  C   UNL     1      16.956  39.655  42.760  0.00  0.00    +0.000 A 
ATOM     24  C   UNL     1      16.694  41.001  42.501  0.00  0.00    +0.000 A 
ATOM     25  C   UNL     1      16.165  41.816  43.504  0.00  0.00    +0.000 A 
ATOM     26  C   UNL     1      15.894  41.295  44.778  0.00  0.00    +0.000 A 
ATOM     27  C   UNL     1      16.171  39.945  45.033  0.00  0.00    +0.000 A 
ATOM     28  C   UNL     1      16.695  39.127  44.029  0.00  0.00    +0.000 A 
BRANCH  23  30
ATOM     29  N   UNL     1      18.455  37.922  41.908  0.00  0.00    +0.000 NA
ATOM     30  C   UNL     1      17.526  38.795  41.687  0.00  0.00    +0.000 C 
ATOM     31  N   UNL     1      17.081  38.910  40.405  0.00  0.00    +0.000 N 
ATOM     32  H   UNL     1      18.681  37.872  42.903  0.00  0.00    +0.000 HD
ATOM     33  H   UNL     1      16.834  39.843  40.099  0.00  0.00    +0.000 HD
ATOM     34  H   UNL     1      17.698  38.429  39.756  0.00  0.00    +0.000 HD
ENDBRANCH  23  30
ENDBRANCH  22  26
ENDBRANCH   1  22
TORSDOF 7
ENDMDL
MODEL 3
REMARK VINA RESULT:    -5.096     11.087     14.807
REMARK INTER + INTRA:         -10.374
REMARK INTER:                  -7.182
REMARK INTRA:                  -3.192
REMARK UNBOUND:                -3.192
REMARK  Name = 
REMARK  7 active torsions:
REMARK  status: ('A' for Active; 'I' for Inactive)
REMARK    1  A    between atoms: C_2  and  C_4
REMARK    2  A    between atoms: C_7  and  C_8
REMARK    3  A    between atoms: C_8  and  N_9
REMARK    4  A    between atoms: C_10  and  C_12
REMARK    5  A    between atoms: C_17  and  C_18
REMARK    6  A    between atoms: N_20  and  C_21
REMARK    7  A    between atoms: C_21  and  C_22
REMARK                            x       y       z     vdW  Elec       q    Type
REMARK                         _______ _______ _______ _____ _____    ______ ____
ROOT
ATOM      1  N   UNL     1      13.160  42.061  45.431  0.00  0.00    +0.000 N 
ATOM      2  C   UNL     1      14.354  41.424  45.180  0.00  0.00    +0.000 C 
ATOM      3  O   UNL     1      15.286  41.425  45.982  0.00  0.00    +0.000 OA
ATOM      4  H   UNL     1      12.475  42.143  44.694  0.00  0.00    +0.000 HD
ENDROOT
BRANCH   2   5
ATOM      5  C   UNL     1      14.499  40.788  43.788  0.00  0.00    +0.000 C 
ATOM      6  C   UNL     1      14.814  39.285  43.921  0.00  0.00    +0.000 C 
ATOM      7  C   UNL     1      16.310  38.986  43.996  0.00  0.00    +0.000 C 
ATOM      8  C   UNL     1      17.067  39.585  42.811  0.00  0.00    +0.000 C 
ATOM      9  C   UNL     1      16.646  40.988  42.485  0.00  0.00    +0.000 C 
ATOM     10  C   UNL     1      15.504  41.535  42.942  0.00  0.00    +0.000 C 
BRANCH  10  11
ATOM     11  C   UNL     1      15.128  42.930  42.581  0.00  0.00    +0.000 C 
ATOM     12  O   UNL     1      15.967  43.818  42.533  0.00  0.00    +0.000 OA
ATOM     13  N   UNL     1      13.808  43.077  42.237  0.00  0.00    +0.000 N 
ATOM     14  H   UNL     1      13.227  42.255  42.166  0.00  0.00    +0.000 HD
BRANCH  13  15
ATOM     15  C   UNL     1      13.349  44.262  41.549  0.00  0.00    +0.000 C 
BRANCH  15  16
ATOM     16  C   UNL     1      12.176  44.867  42.281  0.00  0.00    +0.000 A 
ATOM     17  C   UNL     1      11.309  44.045  43.018  0.00  0.00    +0.000 A 
ATOM     18  C   UNL     1      10.238  44.594  43.722  0.00  0.00    +0.000 A 
ATOM     19  C   UNL     1      10.023  45.970  43.698  0.00  0.00    +0.000 A 
ATOM     20  C   UNL     1      10.881  46.798  42.972  0.00  0.00    +0.000 A 
ATOM     21  C   UNL     1      11.955  46.251  42.270  0.00  0.00    +0.000 A 
ENDBRANCH  15  16
ENDBRANCH  13  15
ENDBRANCH  10  11
ENDBRANCH   2   5
BRANCH   1  22
ATOM     22  C   UNL     1      12.937  42.836  46.629  0.00  0.00    +0.000 C 
BRANCH  22  26
ATOM     23  C   UNL     1      13.161  47.068  45.805  0.00  0.00    +0.000 A 
ATOM     24  C   UNL     1      12.110  46.555  46.567  0.00  0.00    +0.000 A 
ATOM     25  C   UNL     1      12.036  45.183  46.820  0.00  0.00    +0.000 A 
ATOM     26  C   UNL     1      13.011  44.310  46.315  0.00  0.00    +0.000 A 
ATOM     27  C   UNL     1      14.068  44.836  45.561  0.00  0.00    +0.000 A 
ATOM     28  C   UNL     1      14.142  46.207  45.302  0.00  0.00    +0.000 A 
BRANCH  23  30
ATOM     29  N   UNL     1      13.990  49.043  44.626  0.00  0.00    +0.000 NA
ATOM     30  C   UNL     1      13.236  48.532  45.545  0.00  0.00    +0.000 C 
ATOM     31  N   UNL     1      12.500  49.401  46.292  0.00  0.00    +0.000 N 
ATOM     32  H   UNL     1      14.457  48.311  44.088  0.00  0.00    +0.000 HD
ATOM     33  H   UNL     1      12.378  49.161  47.268  0.00  0.00    +0.000 HD
ATOM     34  H   UNL     1      12.810  50.359  46.155  0.00  0.00    +0.000 HD
ENDBRANCH  23  30
ENDBRANCH  22  26
ENDBRANCH   1  22
TORSDOF 7
ENDMDL
