MODEL 1
REMARK VINA RESULT:    -7.154      0.000      0.000
REMARK INTER + INTRA:         -10.737
REMARK INTER:                  -9.415
REMARK INTRA:                  -1.322
REMARK UNBOUND:                -1.283
REMARK  Name = 
REMARK  6 active torsions:
REMARK  status: ('A' for Active; 'I' for Inactive)
REMARK    1  A    between atoms: C_2  and  O_3
REMARK    2  A    between atoms: C_2  and  C_4
REMARK    3  A    between atoms: N_6  and  C_7
REMARK    4  A    between atoms: C_7  and  C_8
REMARK    5  A    between atoms: C_17  and  C_18
REMARK    6  A    between atoms: C_18  and  C_19
REMARK                            x       y       z     vdW  Elec       q    Type
REMARK                         _______ _______ _______ _____ _____    ______ ____
ROOT
ATOM      1  C   UNL     1      17.574  38.463  57.864  0.00  0.00    +0.000 A 
ATOM      2  C   UNL     1      17.767  37.243  57.341  0.00  0.00    +0.000 A 
ATOM      3  N   UNL     1      17.694  36.892  55.998  0.00  0.00    +0.000 N 
ATOM      4  C   UNL     1      17.451  37.905  55.043  0.00  0.00    +0.000 A 
ATOM      5  C   UNL     1      17.449  37.690  53.656  0.00  0.00    +0.000 A 
ATOM      6  C   UNL     1      17.201  38.730  52.747  0.00  0.00    +0.000 A 
ATOM      7  C   UNL     1      16.949  40.030  53.193  0.00  0.00    +0.000 A 
ATOM      8  C   UNL     1      16.956  40.271  54.568  0.00  0.00    +0.000 A 
ATOM      9  C   UNL     1      17.209  39.227  55.477  0.00  0.00    +0.000 A 
ATOM     10  C   UNL     1      17.206  39.547  56.930  0.00  0.00    +0.000 A 
ATOM     11  O   UNL     1      16.876  40.664  57.312  0.00  0.00    +0.000 OA
ENDROOT
BRANCH   1  13
ATOM     12  O   UNL     1      18.499  37.984  60.020  0.00  0.00    +0.000 OA
ATOM     13  C   UNL     1      17.727  38.616  59.315  0.00  0.00    +0.000 C 
BRANCH  13  14
ATOM     14  O   UNL     1      16.972  39.594  59.833  0.00  0.00    +0.000 OA
ATOM     15  H   UNL     1      16.268  39.747  59.170  0.00  0.00    +0.000 HD
ENDBRANCH  13  14
ENDBRANCH   1  13
BRANCH   3  16
ATOM     16  C   UNL     1      17.853  35.480  55.591  0.00  0.00    +0.000 C 
BRANCH  16  17
ATOM     17  C   UNL     1      19.308  35.067  55.474  0.00  0.00    +0.000 A 
ATOM     18  C   UNL     1      19.898  34.941  54.206  0.00  0.00    +0.000 A 
ATOM     19  C   UNL     1      21.243  34.590  54.077  0.00  0.00    +0.000 A 
ATOM     20  C   UNL     1      22.018  34.365  55.211  0.00  0.00    +0.000 A 
ATOM     21  C   UNL     1      21.451  34.495  56.476  0.00  0.00    +0.000 A 
ATOM     22  C   UNL     1      20.106  34.847  56.607  0.00  0.00    +0.000 A 
ENDBRANCH  16  17
ENDBRANCH   3  16
BRANCH   7  23
ATOM     23  C   UNL     1      16.674  41.148  52.214  0.00  0.00    +0.000 C 
BRANCH  23  24
ATOM     24  C   UNL     1      15.697  42.181  52.726  0.00  0.00    +0.000 A 
ATOM     25  C   UNL     1      16.121  43.491  52.993  0.00  0.00    +0.000 A 
ATOM     26  C   UNL     1      15.220  44.445  53.468  0.00  0.00    +0.000 A 
ATOM     27  C   UNL     1      13.886  44.102  53.678  0.00  0.00    +0.000 A 
ATOM     28  C   UNL     1      13.452  42.805  53.415  0.00  0.00    +0.000 A 
ATOM     29  C   UNL     1      14.351  41.848  52.940  0.00  0.00    +0.000 A 
ENDBRANCH  23  24
ENDBRANCH   7  23
TORSDOF 6
ENDMDL
MODEL 2
REMARK VINA RESULT:    -6.638      1.327      7.752
REMARK INTER + INTRA:         -10.055
REMARK INTER:                  -8.976
REMARK INTRA:                  -1.080
REMARK UNBOUND:                -1.283
REMARK  Name = 
REMARK  6 active torsions:
REMARK  status: ('A' for Active; 'I' for Inactive)
REMARK    1  A    between atoms: C_2  and  O_3
REMARK    2  A    between atoms: C_2  and  C_4
REMARK    3  A    between atoms: N_6  and  C_7
REMARK    4  A    between atoms: C_7  and  C_8
REMARK    5  A    between atoms: C_17  and  C_18
REMARK    6  A    between atoms: C_18  and  C_19
REMARK                            x       y       z     vdW  Elec       q    Type
REMARK                         _______ _______ _______ _____ _____    ______ ____
ROOT
ATOM      1  C   UNL     1      16.591  40.449  57.196  0.00  0.00    +0.000 A 
ATOM      2  C   UNL     1      16.295  40.813  55.940  0.00  0.00    +0.000 A 
ATOM      3  N   UNL     1      16.468  40.052  54.790  0.00  0.00    +0.000 N 
ATOM      4  C   UNL     1      16.946  38.728  54.916  0.00  0.00    +0.000 A 
ATOM      5  C   UNL     1      17.072  37.834  53.841  0.00  0.00    +0.000 A 
ATOM      6  C   UNL     1      17.554  36.528  54.018  0.00  0.00    +0.000 A 
ATOM      7  C   UNL     1      17.927  36.065  55.283  0.00  0.00    +0.000 A 
ATOM      8  C   UNL     1      17.802  36.932  56.370  0.00  0.00    +0.000 A 
ATOM      9  C   UNL     1      17.315  38.239  56.190  0.00  0.00    +0.000 A 
ATOM     10  C   UNL     1      17.201  39.116  57.386  0.00  0.00    +0.000 A 
ATOM     11  O   UNL     1      17.633  38.736  58.469  0.00  0.00    +0.000 OA
ENDROOT
BRANCH   1  13
ATOM     12  O   UNL     1      15.203  41.865  58.537  0.00  0.00    +0.000 OA
ATOM     13  C   UNL     1      16.301  41.405  58.271  0.00  0.00    +0.000 C 
BRANCH  13  14
ATOM     14  O   UNL     1      17.370  41.703  59.024  0.00  0.00    +0.000 OA
ATOM     15  H   UNL     1      17.762  42.494  58.604  0.00  0.00    +0.000 HD
ENDBRANCH  13  14
ENDBRANCH   1  13
BRANCH   3  16
ATOM     16  C   UNL     1      16.167  40.632  53.465  0.00  0.00    +0.000 C 
BRANCH  16  17
ATOM     17  C   UNL     1      15.402  41.939  53.560  0.00  0.00    +0.000 A 
ATOM     18  C   UNL     1      16.059  43.153  53.301  0.00  0.00    +0.000 A 
ATOM     19  C   UNL     1      15.367  44.364  53.355  0.00  0.00    +0.000 A 
ATOM     20  C   UNL     1      14.009  44.379  53.662  0.00  0.00    +0.000 A 
ATOM     21  C   UNL     1      13.340  43.184  53.912  0.00  0.00    +0.000 A 
ATOM     22  C   UNL     1      14.031  41.971  53.858  0.00  0.00    +0.000 A 
ENDBRANCH  16  17
ENDBRANCH   3  16
BRANCH   7  23
ATOM     23  C   UNL     1      18.455  34.661  55.471  0.00  0.00    +0.000 C 
BRANCH  23  24
ATOM     24  C   UNL     1      19.964  34.571  55.474  0.00  0.00    +0.000 A 
ATOM     25  C   UNL     1      20.679  34.556  54.267  0.00  0.00    +0.000 A 
ATOM     26  C   UNL     1      22.072  34.469  54.269  0.00  0.00    +0.000 A 
ATOM     27  C   UNL     1      22.765  34.400  55.476  0.00  0.00    +0.000 A 
ATOM     28  C   UNL     1      22.067  34.417  56.682  0.00  0.00    +0.000 A 
ATOM     29  C   UNL     1      20.673  34.503  56.682  0.00  0.00    +0.000 A 
ENDBRANCH  23  24
ENDBRANCH   7  23
TORSDOF 6
ENDMDL
MODEL 3
REMARK VINA RESULT:    -6.333      3.890      8.593
REMARK INTER + INTRA:          -9.652
REMARK INTER:                  -8.370
REMARK INTRA:                  -1.283
REMARK UNBOUND:                -1.283
REMARK  Name = 
REMARK  6 active torsions:
REMARK  status: ('A' for Active; 'I' for Inactive)
REMARK    1  A    between atoms: C_2  and  O_3
REMARK    2  A    between atoms: C_2  and  C_4
REMARK    3  A    between atoms: N_6  and  C_7
REMARK    4  A    between atoms: C_7  and  C_8
REMARK    5  A    between atoms: C_17  and  C_18
REMARK    6  A    between atoms: C_18  and  C_19
REMARK                            x       y       z     vdW  Elec       q    Type
REMARK                         _______ _______ _______ _____ _____    ______ ____
ROOT
ATOM      1  C   UNL     1      16.085  41.092  51.925  0.00  0.00    +0.000 A 
ATOM      2  C   UNL     1      15.302  40.704  50.908  0.00  0.00    +0.000 A 
ATOM      3  N   UNL     1      15.495  39.603  50.081  0.00  0.00    +0.000 N 
ATOM      4  C   UNL     1      16.586  38.742  50.340  0.00  0.00    +0.000 A 
ATOM      5  C   UNL     1      16.829  37.552  49.635  0.00  0.00    +0.000 A 
ATOM      6  C   UNL     1      17.928  36.730  49.930  0.00  0.00    +0.000 A 
ATOM      7  C   UNL     1      18.826  37.068  50.946  0.00  0.00    +0.000 A 
ATOM      8  C   UNL     1      18.600  38.241  51.667  0.00  0.00    +0.000 A 
ATOM      9  C   UNL     1      17.495  39.061  51.373  0.00  0.00    +0.000 A 
ATOM     10  C   UNL     1      17.305  40.297  52.178  0.00  0.00    +0.000 A 
ATOM     11  O   UNL     1      18.158  40.638  52.991  0.00  0.00    +0.000 OA
ENDROOT
BRANCH   1  13
ATOM     12  O   UNL     1      14.550  42.504  53.099  0.00  0.00    +0.000 OA
ATOM     13  C   UNL     1      15.677  42.276  52.688  0.00  0.00    +0.000 C 
BRANCH  13  14
ATOM     14  O   UNL     1      16.692  43.103  52.977  0.00  0.00    +0.000 OA
ATOM     15  H   UNL     1      16.618  43.267  53.938  0.00  0.00    +0.000 HD
ENDBRANCH  13  14
ENDBRANCH   1  13
BRANCH   3  16
ATOM     16  C   UNL     1      14.580  39.358  48.948  0.00  0.00    +0.000 C 
BRANCH  16  17
ATOM     17  C   UNL     1      14.980  40.118  47.698  0.00  0.00    +0.000 A 
ATOM     18  C   UNL     1      15.778  39.493  46.726  0.00  0.00    +0.000 A 
ATOM     19  C   UNL     1      16.134  40.165  45.555  0.00  0.00    +0.000 A 
ATOM     20  C   UNL     1      15.694  41.468  45.337  0.00  0.00    +0.000 A 
ATOM     21  C   UNL     1      14.895  42.099  46.287  0.00  0.00    +0.000 A 
ATOM     22  C   UNL     1      14.537  41.428  47.458  0.00  0.00    +0.000 A 
ENDBRANCH  16  17
ENDBRANCH   3  16
BRANCH   7  23
ATOM     23  C   UNL     1      20.014  36.187  51.256  0.00  0.00    +0.000 C 
BRANCH  23  24
ATOM     24  C   UNL     1      19.953  35.535  52.618  0.00  0.00    +0.000 A 
ATOM     25  C   UNL     1      21.115  35.025  53.216  0.00  0.00    +0.000 A 
ATOM     26  C   UNL     1      21.058  34.420  54.473  0.00  0.00    +0.000 A 
ATOM     27  C   UNL     1      19.841  34.321  55.146  0.00  0.00    +0.000 A 
ATOM     28  C   UNL     1      18.681  34.825  54.563  0.00  0.00    +0.000 A 
ATOM     29  C   UNL     1      18.735  35.430  53.306  0.00  0.00    +0.000 A 
ENDBRANCH  23  24
ENDBRANCH   7  23
TORSDOF 6
ENDMDL
