MODEL 1
REMARK VINA RESULT:    -6.342      0.000      0.000
REMARK INTER + INTRA:          -9.875
REMARK INTER:                  -8.670
REMARK INTRA:                  -1.205
REMARK UNBOUND:                -1.124
REMARK  Name = 
REMARK  7 active torsions:
REMARK  status: ('A' for Active; 'I' for Inactive)
REMARK    1  A    between atoms: C_2  and  O_13
REMARK    2  A    between atoms: N_3  and  C_4
REMARK    3  A    between atoms: C_7  and  C_8
REMARK    4  A    between atoms: C_8  and  O_10
REMARK    5  A    between atoms: O_13  and  C_14
REMARK    6  A    between atoms: C_14  and  C_15
REMARK    7  A    between atoms: C_15  and  C_16
REMARK                            x       y       z     vdW  Elec       q    Type
REMARK                         _______ _______ _______ _____ _____    ______ ____
ROOT
ATOM      1  O   UNL     1      10.933  44.659  46.195  0.00  0.00    +0.000 OA
ENDROOT
BRANCH   1   3
ATOM      2  O   UNL     1      11.483  45.603  44.195  0.00  0.00    +0.000 OA
ATOM      3  C   UNL     1      11.583  45.561  45.411  0.00  0.00    +0.000 C 
ATOM      4  N   UNL     1      12.332  46.361  46.225  0.00  0.00    +0.000 N 
ATOM      5  H   UNL     1      12.246  46.129  47.204  0.00  0.00    +0.000 HD
BRANCH   4   6
ATOM      6  C   UNL     1      13.180  47.423  45.867  0.00  0.00    +0.000 A 
ATOM      7  C   UNL     1      14.508  47.105  45.557  0.00  0.00    +0.000 A 
ATOM      8  C   UNL     1      15.414  48.106  45.190  0.00  0.00    +0.000 A 
ATOM      9  C   UNL     1      14.999  49.440  45.129  0.00  0.00    +0.000 A 
ATOM     10  C   UNL     1      13.674  49.763  45.438  0.00  0.00    +0.000 A 
ATOM     11  C   UNL     1      12.770  48.757  45.805  0.00  0.00    +0.000 A 
BRANCH   9  12
ATOM     12  C   UNL     1      15.992  50.468  44.735  0.00  0.00    +0.000 C 
ATOM     13  O   UNL     1      16.496  50.586  43.633  0.00  0.00    +0.000 OA
BRANCH  12  14
ATOM     14  O   UNL     1      16.308  51.302  45.741  0.00  0.00    +0.000 OA
ATOM     15  H   UNL     1      15.961  52.170  45.447  0.00  0.00    +0.000 HD
ENDBRANCH  12  14
ENDBRANCH   9  12
ENDBRANCH   4   6
ENDBRANCH   1   3
BRANCH   1  16
ATOM     16  C   UNL     1      11.784  43.894  47.058  0.00  0.00    +0.000 C 
BRANCH  16  17
ATOM     17  C   UNL     1      12.521  42.840  46.238  0.00  0.00    +0.000 C 
BRANCH  17  18
ATOM     18  C   UNL     1      14.056  42.908  46.321  0.00  0.00    +0.000 C 
ATOM     19  C   UNL     1      14.769  42.947  44.972  0.00  0.00    +0.000 A 
ATOM     20  C   UNL     1      14.746  43.939  44.001  0.00  0.00    +0.000 A 
ATOM     21  C   UNL     1      15.501  43.753  42.840  0.00  0.00    +0.000 A 
ATOM     22  C   UNL     1      16.280  42.598  42.668  0.00  0.00    +0.000 A 
ATOM     23  C   UNL     1      16.327  41.614  43.660  0.00  0.00    +0.000 A 
ATOM     24  C   UNL     1      15.577  41.799  44.811  0.00  0.00    +0.000 A 
ATOM     25  C   UNL     1      15.479  40.982  46.001  0.00  0.00    +0.000 A 
ATOM     26  C   UNL     1      16.095  39.783  46.325  0.00  0.00    +0.000 A 
ATOM     27  C   UNL     1      15.837  39.217  47.578  0.00  0.00    +0.000 A 
ATOM     28  C   UNL     1      14.981  39.852  48.491  0.00  0.00    +0.000 A 
ATOM     29  C   UNL     1      14.360  41.060  48.166  0.00  0.00    +0.000 A 
ATOM     30  C   UNL     1      14.611  41.611  46.917  0.00  0.00    +0.000 A 
ENDBRANCH  17  18
ENDBRANCH  16  17
ENDBRANCH   1  16
TORSDOF 7
ENDMDL
MODEL 2
REMARK VINA RESULT:    -6.332      3.104      6.057
REMARK INTER + INTRA:          -9.861
REMARK INTER:                  -7.926
REMARK INTRA:                  -1.935
REMARK UNBOUND:                -1.124
REMARK  Name = 
REMARK  7 active torsions:
REMARK  status: ('A' for Active; 'I' for Inactive)
REMARK    1  A    between atoms: C_2  and  O_13
REMARK    2  A    between atoms: N_3  and  C_4
REMARK    3  A    between atoms: C_7  and  C_8
REMARK    4  A    between atoms: C_8  and  O_10
REMARK    5  A    between atoms: O_13  and  C_14
REMARK    6  A    between atoms: C_14  and  C_15
REMARK    7  A    between atoms: C_15  and  C_16
REMARK                            x       y       z     vdW  Elec       q    Type
REMARK                         _______ _______ _______ _____ _____    ______ ____
ROOT
ATOM      1  O   UNL     1       9.770  45.973  43.503  0.00  0.00    +0.000 OA
ENDROOT
BRANCH   1   3
ATOM      2  O   UNL     1       9.888  43.728  43.874  0.00  0.00    +0.000 OA
ATOM      3  C   UNL     1      10.391  44.763  43.467  0.00  0.00    +0.000 C 
ATOM      4  N   UNL     1      11.627  44.942  42.916  0.00  0.00    +0.000 N 
ATOM      5  H   UNL     1      11.814  45.899  42.654  0.00  0.00    +0.000 HD
BRANCH   4   6
ATOM      6  C   UNL     1      12.630  43.984  42.689  0.00  0.00    +0.000 A 
ATOM      7  C   UNL     1      13.869  44.451  42.233  0.00  0.00    +0.000 A 
ATOM      8  C   UNL     1      14.919  43.561  41.985  0.00  0.00    +0.000 A 
ATOM      9  C   UNL     1      14.741  42.190  42.192  0.00  0.00    +0.000 A 
ATOM     10  C   UNL     1      13.506  41.718  42.646  0.00  0.00    +0.000 A 
ATOM     11  C   UNL     1      12.456  42.613  42.893  0.00  0.00    +0.000 A 
BRANCH   9  12
ATOM     12  C   UNL     1      15.881  41.282  41.916  0.00  0.00    +0.000 C 
ATOM     13  O   UNL     1      16.897  41.193  42.581  0.00  0.00    +0.000 OA
BRANCH  12  14
ATOM     14  O   UNL     1      15.695  40.527  40.820  0.00  0.00    +0.000 OA
ATOM     15  H   UNL     1      14.735  40.609  40.637  0.00  0.00    +0.000 HD
ENDBRANCH  12  14
ENDBRANCH   9  12
ENDBRANCH   4   6
ENDBRANCH   1   3
BRANCH   1  16
ATOM     16  C   UNL     1      10.471  46.983  44.240  0.00  0.00    +0.000 C 
BRANCH  16  17
ATOM     17  C   UNL     1      10.267  46.753  45.734  0.00  0.00    +0.000 C 
BRANCH  17  18
ATOM     18  C   UNL     1      11.556  46.760  46.575  0.00  0.00    +0.000 C 
ATOM     19  C   UNL     1      12.650  47.693  46.062  0.00  0.00    +0.000 A 
ATOM     20  C   UNL     1      12.651  49.080  45.989  0.00  0.00    +0.000 A 
ATOM     21  C   UNL     1      13.788  49.719  45.490  0.00  0.00    +0.000 A 
ATOM     22  C   UNL     1      14.911  48.978  45.089  0.00  0.00    +0.000 A 
ATOM     23  C   UNL     1      14.920  47.584  45.192  0.00  0.00    +0.000 A 
ATOM     24  C   UNL     1      13.791  46.950  45.687  0.00  0.00    +0.000 A 
ATOM     25  C   UNL     1      13.548  45.548  45.946  0.00  0.00    +0.000 A 
ATOM     26  C   UNL     1      14.364  44.442  45.764  0.00  0.00    +0.000 A 
ATOM     27  C   UNL     1      13.876  43.184  46.132  0.00  0.00    +0.000 A 
ATOM     28  C   UNL     1      12.591  43.043  46.679  0.00  0.00    +0.000 A 
ATOM     29  C   UNL     1      11.768  44.156  46.862  0.00  0.00    +0.000 A 
ATOM     30  C   UNL     1      12.253  45.401  46.486  0.00  0.00    +0.000 A 
ENDBRANCH  17  18
ENDBRANCH  16  17
ENDBRANCH   1  16
TORSDOF 7
ENDMDL
MODEL 3
REMARK VINA RESULT:    -6.218      3.707      7.434
REMARK INTER + INTRA:          -9.704
REMARK INTER:                  -8.580
REMARK INTRA:                  -1.124
REMARK UNBOUND:                -1.124
REMARK  Name = 
REMARK  7 active torsions:
REMARK  status: ('A' for Active; 'I' for Inactive)
REMARK    1  A    between atoms: C_2  and  O_13
REMARK    2  A    between atoms: N_3  and  C_4
REMARK    3  A    between atoms: C_7  and  C_8
REMARK    4  A    between atoms: C_8  and  O_10
REMARK    5  A    between atoms: O_13  and  C_14
REMARK    6  A    between atoms: C_14  and  C_15
REMARK    7  A    between atoms: C_15  and  C_16
REMARK                            x       y       z     vdW  Elec       q    Type
REMARK                         _______ _______ _______ _____ _____    ______ ____
ROOT
ATOM      1  O   UNL     1      13.295  44.874  41.801  0.00  0.00    +0.000 OA
ENDROOT
BRANCH   1   3
ATOM      2  O   UNL     1      15.144  44.471  40.531  0.00  0.00    +0.000 OA
ATOM      3  C   UNL     1      14.323  44.102  41.355  0.00  0.00    +0.000 C 
ATOM      4  N   UNL     1      14.243  42.893  41.985  0.00  0.00    +0.000 N 
ATOM      5  H   UNL     1      13.470  42.829  42.632  0.00  0.00    +0.000 HD
BRANCH   4   6
ATOM      6  C   UNL     1      15.078  41.773  41.837  0.00  0.00    +0.000 A 
ATOM      7  C   UNL     1      16.315  41.805  42.493  0.00  0.00    +0.000 A 
ATOM      8  C   UNL     1      17.202  40.728  42.396  0.00  0.00    +0.000 A 
ATOM      9  C   UNL     1      16.860  39.603  41.640  0.00  0.00    +0.000 A 
ATOM     10  C   UNL     1      15.626  39.565  40.982  0.00  0.00    +0.000 A 
ATOM     11  C   UNL     1      14.741  40.647  41.082  0.00  0.00    +0.000 A 
BRANCH   9  12
ATOM     12  C   UNL     1      17.830  38.483  41.565  0.00  0.00    +0.000 C 
ATOM     13  O   UNL     1      18.328  37.909  42.515  0.00  0.00    +0.000 OA
BRANCH  12  14
ATOM     14  O   UNL     1      18.129  38.135  40.301  0.00  0.00    +0.000 OA
ATOM     15  H   UNL     1      17.576  37.343  40.137  0.00  0.00    +0.000 HD
ENDBRANCH  12  14
ENDBRANCH   9  12
ENDBRANCH   4   6
ENDBRANCH   1   3
BRANCH   1  16
ATOM     16  C   UNL     1      13.028  44.762  43.205  0.00  0.00    +0.000 C 
BRANCH  16  17
ATOM     17  C   UNL     1      14.025  45.616  43.980  0.00  0.00    +0.000 C 
BRANCH  17  18
ATOM     18  C   UNL     1      14.105  45.316  45.487  0.00  0.00    +0.000 C 
ATOM     19  C   UNL     1      14.111  43.832  45.845  0.00  0.00    +0.000 A 
ATOM     20  C   UNL     1      15.075  42.872  45.569  0.00  0.00    +0.000 A 
ATOM     21  C   UNL     1      14.861  41.566  46.017  0.00  0.00    +0.000 A 
ATOM     22  C   UNL     1      13.708  41.236  46.745  0.00  0.00    +0.000 A 
ATOM     23  C   UNL     1      12.753  42.211  47.048  0.00  0.00    +0.000 A 
ATOM     24  C   UNL     1      12.965  43.506  46.603  0.00  0.00    +0.000 A 
ATOM     25  C   UNL     1      12.181  44.704  46.813  0.00  0.00    +0.000 A 
ATOM     26  C   UNL     1      10.996  44.896  47.506  0.00  0.00    +0.000 A 
ATOM     27  C   UNL     1      10.463  46.188  47.573  0.00  0.00    +0.000 A 
ATOM     28  C   UNL     1      11.118  47.268  46.959  0.00  0.00    +0.000 A 
ATOM     29  C   UNL     1      12.312  47.075  46.261  0.00  0.00    +0.000 A 
ATOM     30  C   UNL     1      12.830  45.789  46.189  0.00  0.00    +0.000 A 
ENDBRANCH  17  18
ENDBRANCH  16  17
ENDBRANCH   1  16
TORSDOF 7
ENDMDL
