MODEL 1
REMARK VINA RESULT:    -6.449      0.000      0.000
REMARK INTER + INTRA:          -8.834
REMARK INTER:                  -7.774
REMARK INTRA:                  -1.059
REMARK UNBOUND:                -1.065
REMARK  Name = 
REMARK  6 active torsions:
REMARK  status: ('A' for Active; 'I' for Inactive)
REMARK    1  A    between atoms: C_1  and  C_2
REMARK    2  A    between atoms: C_2  and  C_3
REMARK    3  A    between atoms: C_8  and  C_9
REMARK    4  A    between atoms: C_17  and  N_18
REMARK    5  A    between atoms: C_19  and  C_21
REMARK    6  A    between atoms: C_28  and  O_29
REMARK                            x       y       z     vdW  Elec       q    Type
REMARK                         _______ _______ _______ _____ _____    ______ ____
ROOT
ATOM      1  C   UNL     1      11.556  44.377  44.654  0.00  0.00    +0.000 C 
ATOM      2  C   UNL     1      12.641  44.928  45.599  0.00  0.00    +0.000 C 
ATOM      3  C   UNL     1      12.058  46.160  46.316  0.00  0.00    +0.000 C 
ATOM      4  O   UNL     1      12.868  43.956  46.636  0.00  0.00    +0.000 OA
ATOM      5  C   UNL     1      13.734  42.940  46.358  0.00  0.00    +0.000 A 
ATOM      6  C   UNL     1      13.712  41.873  47.257  0.00  0.00    +0.000 A 
ATOM      7  C   UNL     1      14.554  40.774  47.074  0.00  0.00    +0.000 A 
ATOM      8  C   UNL     1      15.445  40.722  45.993  0.00  0.00    +0.000 A 
ATOM      9  C   UNL     1      15.461  41.811  45.105  0.00  0.00    +0.000 A 
ATOM     10  C   UNL     1      14.613  42.924  45.278  0.00  0.00    +0.000 A 
ATOM     11  C   UNL     1      14.688  44.078  44.311  0.00  0.00    +0.000 C 
ATOM     12  C   UNL     1      13.933  45.319  44.841  0.00  0.00    +0.000 C 
ENDROOT
BRANCH   8  13
ATOM     13  C   UNL     1      16.339  39.570  45.799  0.00  0.00    +0.000 A 
ATOM     14  C   UNL     1      16.959  38.940  46.891  0.00  0.00    +0.000 A 
ATOM     15  C   UNL     1      17.807  37.845  46.706  0.00  0.00    +0.000 A 
ATOM     16  C   UNL     1      18.048  37.359  45.424  0.00  0.00    +0.000 A 
ATOM     17  C   UNL     1      17.445  37.969  44.327  0.00  0.00    +0.000 A 
ATOM     18  C   UNL     1      16.598  39.065  44.514  0.00  0.00    +0.000 A 
ENDBRANCH   8  13
BRANCH  11  19
ATOM     19  N   UNL     1      14.232  43.661  42.990  0.00  0.00    +0.000 N 
ATOM     20  C   UNL     1      15.123  43.488  41.954  0.00  0.00    +0.000 C 
ATOM     21  O   UNL     1      16.323  43.710  42.066  0.00  0.00    +0.000 OA
ATOM     22  H   UNL     1      13.291  43.299  42.913  0.00  0.00    +0.000 HD
BRANCH  20  23
ATOM     23  C   UNL     1      14.565  42.982  40.670  0.00  0.00    +0.000 A 
ATOM     24  C   UNL     1      14.383  43.816  39.556  0.00  0.00    +0.000 A 
ATOM     25  C   UNL     1      13.860  43.291  38.371  0.00  0.00    +0.000 A 
ATOM     26  C   UNL     1      13.530  41.941  38.302  0.00  0.00    +0.000 A 
ATOM     27  F   UNL     1      13.030  41.444  37.164  0.00  0.00    +0.000 F 
ATOM     28  C   UNL     1      13.718  41.101  39.393  0.00  0.00    +0.000 A 
ATOM     29  C   UNL     1      14.241  41.620  40.578  0.00  0.00    +0.000 A 
ENDBRANCH  20  23
ENDBRANCH  11  19
BRANCH  12  30
ATOM     30  O   UNL     1      14.813  46.085  45.688  0.00  0.00    +0.000 OA
ATOM     31  H   UNL     1      14.244  46.620  46.272  0.00  0.00    +0.000 HD
ENDBRANCH  12  30
TORSDOF 4
ENDMDL
MODEL 2
REMARK VINA RESULT:    -6.245      5.178      8.750
REMARK INTER + INTRA:          -8.588
REMARK INTER:                  -7.523
REMARK INTRA:                  -1.065
REMARK UNBOUND:                -1.065
REMARK  Name = 
REMARK  6 active torsions:
REMARK  status: ('A' for Active; 'I' for Inactive)
REMARK    1  A    between atoms: C_1  and  C_2
REMARK    2  A    between atoms: C_2  and  C_3
REMARK    3  A    between atoms: C_8  and  C_9
REMARK    4  A    between atoms: C_17  and  N_18
REMARK    5  A    between atoms: C_19  and  C_21
REMARK    6  A    between atoms: C_28  and  O_29
REMARK                            x       y       z     vdW  Elec       q    Type
REMARK                         _______ _______ _______ _____ _____    ______ ____
ROOT
ATOM      1  C   UNL     1      15.633  40.548  50.830  0.00  0.00    +0.000 C 
ATOM      2  C   UNL     1      14.304  40.162  50.154  0.00  0.00    +0.000 C 
ATOM      3  C   UNL     1      13.158  40.592  51.088  0.00  0.00    +0.000 C 
ATOM      4  O   UNL     1      14.152  40.967  48.970  0.00  0.00    +0.000 OA
ATOM      5  C   UNL     1      14.770  40.528  47.836  0.00  0.00    +0.000 A 
ATOM      6  C   UNL     1      14.848  41.460  46.800  0.00  0.00    +0.000 A 
ATOM      7  C   UNL     1      15.460  41.124  45.589  0.00  0.00    +0.000 A 
ATOM      8  C   UNL     1      15.999  39.847  45.386  0.00  0.00    +0.000 A 
ATOM      9  C   UNL     1      15.901  38.919  46.436  0.00  0.00    +0.000 A 
ATOM     10  C   UNL     1      15.288  39.247  47.663  0.00  0.00    +0.000 A 
ATOM     11  C   UNL     1      15.186  38.207  48.749  0.00  0.00    +0.000 C 
ATOM     12  C   UNL     1      14.213  38.642  49.869  0.00  0.00    +0.000 C 
ENDROOT
BRANCH   8  13
ATOM     13  C   UNL     1      16.639  39.486  44.111  0.00  0.00    +0.000 A 
ATOM     14  C   UNL     1      17.204  38.214  43.917  0.00  0.00    +0.000 A 
ATOM     15  C   UNL     1      17.810  37.871  42.706  0.00  0.00    +0.000 A 
ATOM     16  C   UNL     1      17.860  38.794  41.665  0.00  0.00    +0.000 A 
ATOM     17  C   UNL     1      17.306  40.061  41.835  0.00  0.00    +0.000 A 
ATOM     18  C   UNL     1      16.701  40.402  43.048  0.00  0.00    +0.000 A 
ENDBRANCH   8  13
BRANCH  11  19
ATOM     19  N   UNL     1      16.512  37.869  49.252  0.00  0.00    +0.000 N 
ATOM     20  C   UNL     1      17.002  36.586  49.156  0.00  0.00    +0.000 C 
ATOM     21  O   UNL     1      16.349  35.659  48.689  0.00  0.00    +0.000 OA
ATOM     22  H   UNL     1      17.137  38.633  49.473  0.00  0.00    +0.000 HD
BRANCH  20  23
ATOM     23  C   UNL     1      18.397  36.365  49.625  0.00  0.00    +0.000 A 
ATOM     24  C   UNL     1      18.858  36.864  50.854  0.00  0.00    +0.000 A 
ATOM     25  C   UNL     1      20.177  36.625  51.251  0.00  0.00    +0.000 A 
ATOM     26  C   UNL     1      21.021  35.888  50.429  0.00  0.00    +0.000 A 
ATOM     27  F   UNL     1      22.283  35.662  50.816  0.00  0.00    +0.000 F 
ATOM     28  C   UNL     1      20.574  35.375  49.217  0.00  0.00    +0.000 A 
ATOM     29  C   UNL     1      19.258  35.610  48.815  0.00  0.00    +0.000 A 
ENDBRANCH  20  23
ENDBRANCH  11  19
BRANCH  12  30
ATOM     30  O   UNL     1      12.869  38.269  49.505  0.00  0.00    +0.000 OA
ATOM     31  H   UNL     1      12.340  38.290  50.324  0.00  0.00    +0.000 HD
ENDBRANCH  12  30
TORSDOF 4
ENDMDL
MODEL 3
REMARK VINA RESULT:    -6.065      5.722      9.568
REMARK INTER + INTRA:          -8.371
REMARK INTER:                  -7.437
REMARK INTRA:                  -0.934
REMARK UNBOUND:                -1.065
REMARK  Name = 
REMARK  6 active torsions:
REMARK  status: ('A' for Active; 'I' for Inactive)
REMARK    1  A    between atoms: C_1  and  C_2
REMARK    2  A    between atoms: C_2  and  C_3
REMARK    3  A    between atoms: C_8  and  C_9
REMARK    4  A    between atoms: C_17  and  N_18
REMARK    5  A    between atoms: C_19  and  C_21
REMARK    6  A    between atoms: C_28  and  O_29
REMARK                            x       y       z     vdW  Elec       q    Type
REMARK                         _______ _______ _______ _____ _____    ______ ____
ROOT
ATOM      1  C   UNL     1      14.793  36.775  50.803  0.00  0.00    +0.000 C 
ATOM      2  C   UNL     1      16.143  36.375  50.179  0.00  0.00    +0.000 C 
ATOM      3  C   UNL     1      16.529  34.994  50.740  0.00  0.00    +0.000 C 
ATOM      4  O   UNL     1      15.942  36.169  48.769  0.00  0.00    +0.000 OA
ATOM      5  C   UNL     1      15.984  37.272  47.967  0.00  0.00    +0.000 A 
ATOM      6  C   UNL     1      15.505  37.086  46.670  0.00  0.00    +0.000 A 
ATOM      7  C   UNL     1      15.497  38.144  45.758  0.00  0.00    +0.000 A 
ATOM      8  C   UNL     1      15.978  39.410  46.121  0.00  0.00    +0.000 A 
ATOM      9  C   UNL     1      16.467  39.575  47.428  0.00  0.00    +0.000 A 
ATOM     10  C   UNL     1      16.477  38.514  48.357  0.00  0.00    +0.000 A 
ATOM     11  C   UNL     1      17.036  38.737  49.739  0.00  0.00    +0.000 C 
ATOM     12  C   UNL     1      17.258  37.404  50.489  0.00  0.00    +0.000 C 
ENDROOT
BRANCH   8  13
ATOM     13  C   UNL     1      15.978  40.527  45.164  0.00  0.00    +0.000 A 
ATOM     14  C   UNL     1      16.401  40.344  43.836  0.00  0.00    +0.000 A 
ATOM     15  C   UNL     1      16.400  41.405  42.926  0.00  0.00    +0.000 A 
ATOM     16  C   UNL     1      15.973  42.668  43.328  0.00  0.00    +0.000 A 
ATOM     17  C   UNL     1      15.550  42.872  44.640  0.00  0.00    +0.000 A 
ATOM     18  C   UNL     1      15.553  41.810  45.548  0.00  0.00    +0.000 A 
ENDBRANCH   8  13
BRANCH  11  19
ATOM     19  N   UNL     1      16.194  39.669  50.481  0.00  0.00    +0.000 N 
ATOM     20  C   UNL     1      16.709  40.426  51.509  0.00  0.00    +0.000 C 
ATOM     21  O   UNL     1      17.873  40.335  51.883  0.00  0.00    +0.000 OA
ATOM     22  H   UNL     1      15.291  39.899  50.087  0.00  0.00    +0.000 HD
BRANCH  20  23
ATOM     23  C   UNL     1      15.786  41.405  52.147  0.00  0.00    +0.000 A 
ATOM     24  C   UNL     1      14.410  41.160  52.271  0.00  0.00    +0.000 A 
ATOM     25  C   UNL     1      13.586  42.109  52.883  0.00  0.00    +0.000 A 
ATOM     26  C   UNL     1      14.138  43.288  53.371  0.00  0.00    +0.000 A 
ATOM     27  F   UNL     1      13.344  44.193  53.957  0.00  0.00    +0.000 F 
ATOM     28  C   UNL     1      15.502  43.537  53.269  0.00  0.00    +0.000 A 
ATOM     29  C   UNL     1      16.329  42.592  52.660  0.00  0.00    +0.000 A 
ENDBRANCH  20  23
ENDBRANCH  11  19
BRANCH  12  30
ATOM     30  O   UNL     1      18.554  36.874  50.145  0.00  0.00    +0.000 OA
ATOM     31  H   UNL     1      18.409  35.966  49.822  0.00  0.00    +0.000 HD
ENDBRANCH  12  30
TORSDOF 4
ENDMDL
