MODEL 1
REMARK VINA RESULT:    -6.404      0.000      0.000
REMARK INTER + INTRA:          -8.698
REMARK INTER:                  -8.274
REMARK INTRA:                  -0.424
REMARK UNBOUND:                -0.422
REMARK  Name = 
REMARK  6 active torsions:
REMARK  status: ('A' for Active; 'I' for Inactive)
REMARK    1  A    between atoms: C_1  and  C_2
REMARK    2  A    between atoms: N_10  and  C_11
REMARK    3  A    between atoms: C_11  and  C_12
REMARK    4  A    between atoms: C_12  and  O_13
REMARK    5  A    between atoms: O_13  and  C_14
REMARK    6  A    between atoms: C_17  and  C_18
REMARK                            x       y       z     vdW  Elec       q    Type
REMARK                         _______ _______ _______ _____ _____    ______ ____
ROOT
ATOM      1  C   UNL     1      13.309  45.190  53.676  0.00  0.00    +0.000 A 
ATOM      2  C   UNL     1      12.984  43.852  53.893  0.00  0.00    +0.000 A 
ATOM      3  C   UNL     1      13.966  42.861  53.772  0.00  0.00    +0.000 A 
ATOM      4  C   UNL     1      15.278  43.197  53.426  0.00  0.00    +0.000 A 
ATOM      5  C   UNL     1      15.603  44.541  53.219  0.00  0.00    +0.000 A 
ATOM      6  C   UNL     1      14.622  45.528  53.340  0.00  0.00    +0.000 A 
ENDROOT
BRANCH   4   7
ATOM      7  C   UNL     1      16.289  42.142  53.324  0.00  0.00    +0.000 C 
ATOM      8  C   UNL     1      16.331  41.179  52.395  0.00  0.00    +0.000 C 
ATOM      9  S   UNL     1      15.236  40.893  51.095  0.00  0.00    +0.000 S 
ATOM     10  C   UNL     1      16.123  39.485  50.550  0.00  0.00    +0.000 C 
ATOM     11  O   UNL     1      15.806  38.800  49.593  0.00  0.00    +0.000 OA
ATOM     12  N   UNL     1      17.199  39.283  51.350  0.00  0.00    +0.000 N 
ATOM     13  C   UNL     1      17.398  40.142  52.389  0.00  0.00    +0.000 C 
ATOM     14  O   UNL     1      18.313  40.063  53.191  0.00  0.00    +0.000 OA
ATOM     15  H   UNL     1      17.823  38.509  51.188  0.00  0.00    +0.000 HD
ENDBRANCH   4   7
BRANCH   1  16
ATOM     16  O   UNL     1      12.451  46.252  53.757  0.00  0.00    +0.000 OA
BRANCH  16  17
ATOM     17  C   UNL     1      13.018  47.561  53.679  0.00  0.00    +0.000 C 
BRANCH  17  18
ATOM     18  C   UNL     1      11.899  48.597  53.771  0.00  0.00    +0.000 C 
BRANCH  18  28
ATOM     19  C   UNL     1      11.134  49.395  56.635  0.00  0.00    +0.000 C 
ATOM     20  C   UNL     1      11.999  50.196  55.728  0.00  0.00    +0.000 A 
ATOM     21  C   UNL     1      12.613  51.409  55.969  0.00  0.00    +0.000 A 
ATOM     22  C   UNL     1      13.339  51.782  54.808  0.00  0.00    +0.000 A 
ATOM     23  C   UNL     1      14.142  52.891  54.480  0.00  0.00    +0.000 A 
ATOM     24  C   UNL     1      14.737  52.962  53.217  0.00  0.00    +0.000 A 
ATOM     25  C   UNL     1      14.540  51.946  52.286  0.00  0.00    +0.000 A 
ATOM     26  C   UNL     1      13.746  50.836  52.590  0.00  0.00    +0.000 A 
ATOM     27  C   UNL     1      13.151  50.773  53.861  0.00  0.00    +0.000 A 
ATOM     28  N   UNL     1      12.323  49.823  54.441  0.00  0.00    +0.000 N 
ENDBRANCH  18  28
ENDBRANCH  17  18
ENDBRANCH  16  17
ENDBRANCH   1  16
TORSDOF 5
ENDMDL
MODEL 2
REMARK VINA RESULT:    -6.401      1.623      2.174
REMARK INTER + INTRA:          -8.694
REMARK INTER:                  -8.272
REMARK INTRA:                  -0.422
REMARK UNBOUND:                -0.422
REMARK  Name = 
REMARK  6 active torsions:
REMARK  status: ('A' for Active; 'I' for Inactive)
REMARK    1  A    between atoms: C_1  and  C_2
REMARK    2  A    between atoms: N_10  and  C_11
REMARK    3  A    between atoms: C_11  and  C_12
REMARK    4  A    between atoms: C_12  and  O_13
REMARK    5  A    between atoms: O_13  and  C_14
REMARK    6  A    between atoms: C_17  and  C_18
REMARK                            x       y       z     vdW  Elec       q    Type
REMARK                         _______ _______ _______ _____ _____    ______ ____
ROOT
ATOM      1  C   UNL     1      13.183  45.177  53.610  0.00  0.00    +0.000 A 
ATOM      2  C   UNL     1      12.777  43.844  53.645  0.00  0.00    +0.000 A 
ATOM      3  C   UNL     1      13.716  42.818  53.481  0.00  0.00    +0.000 A 
ATOM      4  C   UNL     1      15.066  43.115  53.273  0.00  0.00    +0.000 A 
ATOM      5  C   UNL     1      15.472  44.453  53.248  0.00  0.00    +0.000 A 
ATOM      6  C   UNL     1      14.533  45.474  53.412  0.00  0.00    +0.000 A 
ENDROOT
BRANCH   4   7
ATOM      7  C   UNL     1      16.029  42.022  53.122  0.00  0.00    +0.000 C 
ATOM      8  C   UNL     1      16.355  41.123  54.061  0.00  0.00    +0.000 C 
ATOM      9  S   UNL     1      15.767  40.999  55.677  0.00  0.00    +0.000 S 
ATOM     10  C   UNL     1      16.778  39.612  56.023  0.00  0.00    +0.000 C 
ATOM     11  O   UNL     1      16.809  39.033  57.096  0.00  0.00    +0.000 OA
ATOM     12  N   UNL     1      17.509  39.291  54.926  0.00  0.00    +0.000 N 
ATOM     13  C   UNL     1      17.361  40.057  53.809  0.00  0.00    +0.000 C 
ATOM     14  O   UNL     1      17.968  39.888  52.764  0.00  0.00    +0.000 OA
ATOM     15  H   UNL     1      18.155  38.518  54.945  0.00  0.00    +0.000 HD
ENDBRANCH   4   7
BRANCH   1  16
ATOM     16  O   UNL     1      12.375  46.271  53.752  0.00  0.00    +0.000 OA
BRANCH  16  17
ATOM     17  C   UNL     1      12.993  47.557  53.686  0.00  0.00    +0.000 C 
BRANCH  17  18
ATOM     18  C   UNL     1      11.910  48.634  53.715  0.00  0.00    +0.000 C 
BRANCH  18  28
ATOM     19  C   UNL     1      11.168  49.398  56.594  0.00  0.00    +0.000 C 
ATOM     20  C   UNL     1      12.031  50.207  55.693  0.00  0.00    +0.000 A 
ATOM     21  C   UNL     1      12.653  51.413  55.945  0.00  0.00    +0.000 A 
ATOM     22  C   UNL     1      13.373  51.798  54.785  0.00  0.00    +0.000 A 
ATOM     23  C   UNL     1      14.180  52.907  54.466  0.00  0.00    +0.000 A 
ATOM     24  C   UNL     1      14.767  52.991  53.200  0.00  0.00    +0.000 A 
ATOM     25  C   UNL     1      14.559  51.990  52.257  0.00  0.00    +0.000 A 
ATOM     26  C   UNL     1      13.761  50.880  52.551  0.00  0.00    +0.000 A 
ATOM     27  C   UNL     1      13.174  50.803  53.826  0.00  0.00    +0.000 A 
ATOM     28  N   UNL     1      12.345  49.849  54.398  0.00  0.00    +0.000 N 
ENDBRANCH  18  28
ENDBRANCH  17  18
ENDBRANCH  16  17
ENDBRANCH   1  16
TORSDOF 5
ENDMDL
MODEL 3
REMARK VINA RESULT:    -6.337      7.955      9.208
REMARK INTER + INTRA:          -8.611
REMARK INTER:                  -7.612
REMARK INTRA:                  -0.999
REMARK UNBOUND:                -0.422
REMARK  Name = 
REMARK  6 active torsions:
REMARK  status: ('A' for Active; 'I' for Inactive)
REMARK    1  A    between atoms: C_1  and  C_2
REMARK    2  A    between atoms: N_10  and  C_11
REMARK    3  A    between atoms: C_11  and  C_12
REMARK    4  A    between atoms: C_12  and  O_13
REMARK    5  A    between atoms: O_13  and  C_14
REMARK    6  A    between atoms: C_17  and  C_18
REMARK                            x       y       z     vdW  Elec       q    Type
REMARK                         _______ _______ _______ _____ _____    ______ ____
ROOT
ATOM      1  C   UNL     1      12.458  47.782  46.298  0.00  0.00    +0.000 A 
ATOM      2  C   UNL     1      13.686  47.835  45.638  0.00  0.00    +0.000 A 
ATOM      3  C   UNL     1      14.361  46.652  45.314  0.00  0.00    +0.000 A 
ATOM      4  C   UNL     1      13.821  45.407  45.652  0.00  0.00    +0.000 A 
ATOM      5  C   UNL     1      12.586  45.357  46.304  0.00  0.00    +0.000 A 
ATOM      6  C   UNL     1      11.914  46.539  46.627  0.00  0.00    +0.000 A 
ENDROOT
BRANCH   4   7
ATOM      7  C   UNL     1      14.541  44.186  45.284  0.00  0.00    +0.000 C 
ATOM      8  C   UNL     1      14.714  43.717  44.042  0.00  0.00    +0.000 C 
ATOM      9  S   UNL     1      14.147  44.381  42.555  0.00  0.00    +0.000 S 
ATOM     10  C   UNL     1      14.842  43.078  41.615  0.00  0.00    +0.000 C 
ATOM     11  O   UNL     1      14.763  42.986  40.402  0.00  0.00    +0.000 OA
ATOM     12  N   UNL     1      15.472  42.202  42.438  0.00  0.00    +0.000 N 
ATOM     13  C   UNL     1      15.452  42.453  43.777  0.00  0.00    +0.000 C 
ATOM     14  O   UNL     1      15.963  41.740  44.625  0.00  0.00    +0.000 OA
ATOM     15  H   UNL     1      15.925  41.383  42.068  0.00  0.00    +0.000 HD
ENDBRANCH   4   7
BRANCH   1  16
ATOM     16  O   UNL     1      11.698  48.854  46.675  0.00  0.00    +0.000 OA
BRANCH  16  17
ATOM     17  C   UNL     1      10.743  49.344  45.732  0.00  0.00    +0.000 C 
BRANCH  17  18
ATOM     18  C   UNL     1      11.047  50.811  45.430  0.00  0.00    +0.000 C 
BRANCH  18  28
ATOM     19  C   UNL     1      11.755  50.157  42.515  0.00  0.00    +0.000 C 
ATOM     20  C   UNL     1      12.700  50.719  43.517  0.00  0.00    +0.000 A 
ATOM     21  C   UNL     1      14.030  51.052  43.359  0.00  0.00    +0.000 A 
ATOM     22  C   UNL     1      14.517  51.555  44.593  0.00  0.00    +0.000 A 
ATOM     23  C   UNL     1      15.769  52.040  45.019  0.00  0.00    +0.000 A 
ATOM     24  C   UNL     1      15.926  52.478  46.337  0.00  0.00    +0.000 A 
ATOM     25  C   UNL     1      14.858  52.437  47.227  0.00  0.00    +0.000 A 
ATOM     26  C   UNL     1      13.606  51.958  46.827  0.00  0.00    +0.000 A 
ATOM     27  C   UNL     1      13.456  51.519  45.500  0.00  0.00    +0.000 A 
ATOM     28  N   UNL     1      12.362  50.997  44.825  0.00  0.00    +0.000 N 
ENDBRANCH  18  28
ENDBRANCH  17  18
ENDBRANCH  16  17
ENDBRANCH   1  16
TORSDOF 5
ENDMDL
