MODEL 1
REMARK VINA RESULT:    -7.271      0.000      0.000
REMARK INTER + INTRA:         -10.584
REMARK INTER:                  -9.316
REMARK INTRA:                  -1.267
REMARK UNBOUND:                -1.400
REMARK  Name = 
REMARK  7 active torsions:
REMARK  status: ('A' for Active; 'I' for Inactive)
REMARK    1  A    between atoms: C_1  and  C_2
REMARK    2  A    between atoms: C_2  and  C_3
REMARK    3  A    between atoms: C_11  and  C_12
REMARK    4  A    between atoms: C_15  and  C_16
REMARK    5  A    between atoms: C_19  and  C_20
REMARK    6  A    between atoms: C_23  and  O_24
REMARK    7  A    between atoms: C_35  and  C_36
REMARK                            x       y       z     vdW  Elec       q    Type
REMARK                         _______ _______ _______ _____ _____    ______ ____
ROOT
ATOM      1  C   UNL     1      23.106  33.603  53.995  0.00  0.00    +0.000 C 
ATOM      2  C   UNL     1      21.672  33.988  53.636  0.00  0.00    +0.000 C 
ATOM      3  C   UNL     1      20.962  34.521  54.881  0.00  0.00    +0.000 C 
ATOM      4  O   UNL     1      21.694  35.054  52.700  0.00  0.00    +0.000 OA
ATOM      5  C   UNL     1      21.729  34.801  51.385  0.00  0.00    +0.000 C 
ATOM      6  O   UNL     1      22.186  35.646  50.619  0.00  0.00    +0.000 OA
ATOM      7  C   UNL     1      21.104  33.521  50.883  0.00  0.00    +0.000 C 
ATOM      8  C   UNL     1      20.894  32.472  51.946  0.00  0.00    +0.000 C 
ATOM      9  O   UNL     1      20.558  31.323  51.653  0.00  0.00    +0.000 OA
ATOM     10  O   UNL     1      20.952  32.828  53.237  0.00  0.00    +0.000 OA
ATOM     11  C   UNL     1      19.647  33.798  50.313  0.00  0.00    +0.000 C 
ATOM     12  C   UNL     1      19.486  33.506  48.809  0.00  0.00    +0.000 C 
ATOM     13  C   UNL     1      20.640  34.006  47.981  0.00  0.00    +0.000 C 
ATOM     14  O   UNL     1      20.449  34.604  46.920  0.00  0.00    +0.000 OA
ATOM     15  C   UNL     1      22.034  33.677  48.449  0.00  0.00    +0.000 C 
ATOM     16  C   UNL     1      22.023  32.881  49.769  0.00  0.00    +0.000 C 
ENDROOT
BRANCH  11  17
ATOM     17  C   UNL     1      19.017  35.117  50.748  0.00  0.00    +0.000 A 
ATOM     18  C   UNL     1      18.528  35.324  52.044  0.00  0.00    +0.000 A 
ATOM     19  C   UNL     1      17.927  36.539  52.396  0.00  0.00    +0.000 A 
ATOM     20  C   UNL     1      17.795  37.586  51.471  0.00  0.00    +0.000 A 
ATOM     21  C   UNL     1      18.297  37.378  50.180  0.00  0.00    +0.000 A 
ATOM     22  C   UNL     1      18.899  36.165  49.822  0.00  0.00    +0.000 A 
BRANCH  20  23
ATOM     23  C   UNL     1      17.140  38.850  51.847  0.00  0.00    +0.000 A 
ATOM     24  C   UNL     1      15.876  39.183  51.339  0.00  0.00    +0.000 A 
ATOM     25  C   UNL     1      15.242  40.380  51.696  0.00  0.00    +0.000 A 
ATOM     26  C   UNL     1      15.852  41.287  52.575  0.00  0.00    +0.000 A 
ATOM     27  C   UNL     1      17.115  40.955  53.084  0.00  0.00    +0.000 A 
ATOM     28  C   UNL     1      17.750  39.758  52.723  0.00  0.00    +0.000 A 
BRANCH  26  29
ATOM     29  C   UNL     1      15.180  42.540  52.951  0.00  0.00    +0.000 A 
ATOM     30  C   UNL     1      15.887  43.754  52.995  0.00  0.00    +0.000 A 
ATOM     31  C   UNL     1      15.246  44.947  53.340  0.00  0.00    +0.000 A 
ATOM     32  C   UNL     1      13.892  44.936  53.645  0.00  0.00    +0.000 A 
ATOM     33  C   UNL     1      13.166  43.752  53.608  0.00  0.00    +0.000 A 
ATOM     34  C   UNL     1      13.810  42.560  53.263  0.00  0.00    +0.000 A 
BRANCH  32  35
ATOM     35  O   UNL     1      13.305  46.123  53.973  0.00  0.00    +0.000 OA
ATOM     36  H   UNL     1      12.926  46.517  53.168  0.00  0.00    +0.000 HD
ENDBRANCH  32  35
ENDBRANCH  26  29
ENDBRANCH  20  23
ENDBRANCH  11  17
BRANCH  16  37
ATOM     37  C   UNL     1      23.433  32.522  50.238  0.00  0.00    +0.000 A 
ATOM     38  C   UNL     1      23.773  31.254  50.729  0.00  0.00    +0.000 A 
ATOM     39  C   UNL     1      25.077  30.972  51.146  0.00  0.00    +0.000 A 
ATOM     40  C   UNL     1      26.060  31.954  51.079  0.00  0.00    +0.000 A 
ATOM     41  C   UNL     1      25.745  33.221  50.597  0.00  0.00    +0.000 A 
ATOM     42  C   UNL     1      24.443  33.503  50.182  0.00  0.00    +0.000 A 
ENDBRANCH  16  37
TORSDOF 5
ENDMDL
MODEL 2
REMARK VINA RESULT:    -6.906      4.914      6.491
REMARK INTER + INTRA:         -10.123
REMARK INTER:                  -9.004
REMARK INTRA:                  -1.119
REMARK UNBOUND:                -1.400
REMARK  Name = 
REMARK  7 active torsions:
REMARK  status: ('A' for Active; 'I' for Inactive)
REMARK    1  A    between atoms: C_1  and  C_2
REMARK    2  A    between atoms: C_2  and  C_3
REMARK    3  A    between atoms: C_11  and  C_12
REMARK    4  A    between atoms: C_15  and  C_16
REMARK    5  A    between atoms: C_19  and  C_20
REMARK    6  A    between atoms: C_23  and  O_24
REMARK    7  A    between atoms: C_35  and  C_36
REMARK                            x       y       z     vdW  Elec       q    Type
REMARK                         _______ _______ _______ _____ _____    ______ ____
ROOT
ATOM      1  C   UNL     1      17.794  37.060  54.652  0.00  0.00    +0.000 C 
ATOM      2  C   UNL     1      17.179  36.788  53.280  0.00  0.00    +0.000 C 
ATOM      3  C   UNL     1      16.024  37.760  53.039  0.00  0.00    +0.000 C 
ATOM      4  O   UNL     1      18.143  37.053  52.273  0.00  0.00    +0.000 OA
ATOM      5  C   UNL     1      18.973  36.087  51.857  0.00  0.00    +0.000 C 
ATOM      6  O   UNL     1      20.051  36.393  51.353  0.00  0.00    +0.000 OA
ATOM      7  C   UNL     1      18.500  34.655  51.928  0.00  0.00    +0.000 C 
ATOM      8  C   UNL     1      17.329  34.431  52.851  0.00  0.00    +0.000 C 
ATOM      9  O   UNL     1      16.950  33.294  53.141  0.00  0.00    +0.000 OA
ATOM     10  O   UNL     1      16.609  35.485  53.263  0.00  0.00    +0.000 OA
ATOM     11  C   UNL     1      17.978  34.169  50.509  0.00  0.00    +0.000 C 
ATOM     12  C   UNL     1      18.789  33.013  49.894  0.00  0.00    +0.000 C 
ATOM     13  C   UNL     1      20.277  33.188  50.041  0.00  0.00    +0.000 C 
ATOM     14  O   UNL     1      21.040  32.969  49.097  0.00  0.00    +0.000 OA
ATOM     15  C   UNL     1      20.809  33.558  51.401  0.00  0.00    +0.000 C 
ATOM     16  C   UNL     1      19.676  33.730  52.433  0.00  0.00    +0.000 C 
ENDROOT
BRANCH  11  17
ATOM     17  C   UNL     1      17.656  35.282  49.516  0.00  0.00    +0.000 A 
ATOM     18  C   UNL     1      16.476  36.032  49.585  0.00  0.00    +0.000 A 
ATOM     19  C   UNL     1      16.203  37.024  48.636  0.00  0.00    +0.000 A 
ATOM     20  C   UNL     1      17.095  37.303  47.590  0.00  0.00    +0.000 A 
ATOM     21  C   UNL     1      18.280  36.559  47.533  0.00  0.00    +0.000 A 
ATOM     22  C   UNL     1      18.559  35.565  48.480  0.00  0.00    +0.000 A 
BRANCH  20  23
ATOM     23  C   UNL     1      16.785  38.333  46.584  0.00  0.00    +0.000 A 
ATOM     24  C   UNL     1      16.182  39.543  46.956  0.00  0.00    +0.000 A 
ATOM     25  C   UNL     1      15.890  40.531  46.007  0.00  0.00    +0.000 A 
ATOM     26  C   UNL     1      16.191  40.341  44.650  0.00  0.00    +0.000 A 
ATOM     27  C   UNL     1      16.794  39.133  44.278  0.00  0.00    +0.000 A 
ATOM     28  C   UNL     1      17.083  38.143  45.228  0.00  0.00    +0.000 A 
BRANCH  26  29
ATOM     29  C   UNL     1      15.887  41.384  43.658  0.00  0.00    +0.000 A 
ATOM     30  C   UNL     1      16.157  42.737  43.928  0.00  0.00    +0.000 A 
ATOM     31  C   UNL     1      15.881  43.728  42.981  0.00  0.00    +0.000 A 
ATOM     32  C   UNL     1      15.331  43.373  41.757  0.00  0.00    +0.000 A 
ATOM     33  C   UNL     1      15.055  42.043  41.461  0.00  0.00    +0.000 A 
ATOM     34  C   UNL     1      15.332  41.055  42.410  0.00  0.00    +0.000 A 
BRANCH  32  35
ATOM     35  O   UNL     1      15.080  44.371  40.860  0.00  0.00    +0.000 OA
ATOM     36  H   UNL     1      14.278  44.848  41.141  0.00  0.00    +0.000 HD
ENDBRANCH  32  35
ENDBRANCH  26  29
ENDBRANCH  20  23
ENDBRANCH  11  17
BRANCH  16  37
ATOM     37  C   UNL     1      20.209  34.082  53.822  0.00  0.00    +0.000 A 
ATOM     38  C   UNL     1      19.404  34.082  54.969  0.00  0.00    +0.000 A 
ATOM     39  C   UNL     1      19.936  34.410  56.219  0.00  0.00    +0.000 A 
ATOM     40  C   UNL     1      21.282  34.743  56.340  0.00  0.00    +0.000 A 
ATOM     41  C   UNL     1      22.100  34.752  55.214  0.00  0.00    +0.000 A 
ATOM     42  C   UNL     1      21.568  34.425  53.966  0.00  0.00    +0.000 A 
ENDBRANCH  16  37
TORSDOF 5
ENDMDL
MODEL 3
REMARK VINA RESULT:    -6.862      9.758     18.187
REMARK INTER + INTRA:         -10.067
REMARK INTER:                  -8.667
REMARK INTRA:                  -1.400
REMARK UNBOUND:                -1.400
REMARK  Name = 
REMARK  7 active torsions:
REMARK  status: ('A' for Active; 'I' for Inactive)
REMARK    1  A    between atoms: C_1  and  C_2
REMARK    2  A    between atoms: C_2  and  C_3
REMARK    3  A    between atoms: C_11  and  C_12
REMARK    4  A    between atoms: C_15  and  C_16
REMARK    5  A    between atoms: C_19  and  C_20
REMARK    6  A    between atoms: C_23  and  O_24
REMARK    7  A    between atoms: C_35  and  C_36
REMARK                            x       y       z     vdW  Elec       q    Type
REMARK                         _______ _______ _______ _____ _____    ______ ____
ROOT
ATOM      1  C   UNL     1       7.467  48.570  44.479  0.00  0.00    +0.000 C 
ATOM      2  C   UNL     1       8.665  48.007  45.242  0.00  0.00    +0.000 C 
ATOM      3  C   UNL     1       8.448  46.516  45.502  0.00  0.00    +0.000 C 
ATOM      4  O   UNL     1       9.826  48.107  44.432  0.00  0.00    +0.000 OA
ATOM      5  C   UNL     1      10.587  49.209  44.472  0.00  0.00    +0.000 C 
ATOM      6  O   UNL     1      11.290  49.492  43.505  0.00  0.00    +0.000 OA
ATOM      7  C   UNL     1      10.632  50.005  45.754  0.00  0.00    +0.000 C 
ATOM      8  C   UNL     1       9.493  49.724  46.701  0.00  0.00    +0.000 C 
ATOM      9  O   UNL     1       9.304  50.421  47.700  0.00  0.00    +0.000 OA
ATOM     10  O   UNL     1       8.748  48.623  46.521  0.00  0.00    +0.000 OA
ATOM     11  C   UNL     1      11.933  49.644  46.590  0.00  0.00    +0.000 C 
ATOM     12  C   UNL     1      12.911  50.819  46.785  0.00  0.00    +0.000 C 
ATOM     13  C   UNL     1      13.116  51.633  45.535  0.00  0.00    +0.000 C 
ATOM     14  O   UNL     1      14.245  51.989  45.187  0.00  0.00    +0.000 OA
ATOM     15  C   UNL     1      11.892  52.069  44.773  0.00  0.00    +0.000 C 
ATOM     16  C   UNL     1      10.595  51.549  45.424  0.00  0.00    +0.000 C 
ENDROOT
BRANCH  11  17
ATOM     17  C   UNL     1      12.621  48.340  46.197  0.00  0.00    +0.000 A 
ATOM     18  C   UNL     1      13.777  48.309  45.407  0.00  0.00    +0.000 A 
ATOM     19  C   UNL     1      14.360  47.090  45.042  0.00  0.00    +0.000 A 
ATOM     20  C   UNL     1      13.814  45.864  45.451  0.00  0.00    +0.000 A 
ATOM     21  C   UNL     1      12.665  45.901  46.251  0.00  0.00    +0.000 A 
ATOM     22  C   UNL     1      12.076  47.118  46.620  0.00  0.00    +0.000 A 
BRANCH  20  23
ATOM     23  C   UNL     1      14.423  44.588  45.039  0.00  0.00    +0.000 A 
ATOM     24  C   UNL     1      14.959  44.429  43.753  0.00  0.00    +0.000 A 
ATOM     25  C   UNL     1      15.546  43.221  43.356  0.00  0.00    +0.000 A 
ATOM     26  C   UNL     1      15.618  42.129  44.233  0.00  0.00    +0.000 A 
ATOM     27  C   UNL     1      15.084  42.287  45.518  0.00  0.00    +0.000 A 
ATOM     28  C   UNL     1      14.492  43.495  45.914  0.00  0.00    +0.000 A 
BRANCH  26  29
ATOM     29  C   UNL     1      16.241  40.864  43.812  0.00  0.00    +0.000 A 
ATOM     30  C   UNL     1      16.278  39.755  44.675  0.00  0.00    +0.000 A 
ATOM     31  C   UNL     1      16.858  38.549  44.272  0.00  0.00    +0.000 A 
ATOM     32  C   UNL     1      17.408  38.443  43.001  0.00  0.00    +0.000 A 
ATOM     33  C   UNL     1      17.384  39.521  42.125  0.00  0.00    +0.000 A 
ATOM     34  C   UNL     1      16.804  40.726  42.532  0.00  0.00    +0.000 A 
BRANCH  32  35
ATOM     35  O   UNL     1      17.961  37.247  42.648  0.00  0.00    +0.000 OA
ATOM     36  H   UNL     1      18.930  37.323  42.704  0.00  0.00    +0.000 HD
ENDBRANCH  32  35
ENDBRANCH  26  29
ENDBRANCH  20  23
ENDBRANCH  11  17
BRANCH  16  37
ATOM     37  C   UNL     1       9.347  52.008  44.669  0.00  0.00    +0.000 A 
ATOM     38  C   UNL     1       8.109  52.208  45.296  0.00  0.00    +0.000 A 
ATOM     39  C   UNL     1       6.995  52.630  44.565  0.00  0.00    +0.000 A 
ATOM     40  C   UNL     1       7.102  52.855  43.196  0.00  0.00    +0.000 A 
ATOM     41  C   UNL     1       8.320  52.660  42.552  0.00  0.00    +0.000 A 
ATOM     42  C   UNL     1       9.432  52.239  43.283  0.00  0.00    +0.000 A 
ENDBRANCH  16  37
TORSDOF 5
ENDMDL
