MODEL 1
REMARK VINA RESULT:    -7.243      0.000      0.000
REMARK INTER + INTRA:         -10.200
REMARK INTER:                  -9.202
REMARK INTRA:                  -0.997
REMARK UNBOUND:                -0.839
REMARK  Name = 
REMARK  6 active torsions:
REMARK  status: ('A' for Active; 'I' for Inactive)
REMARK    1  A    between atoms: C_1  and  N_2
REMARK    2  A    between atoms: C_4  and  C_5
REMARK    3  A    between atoms: C_8  and  C_9
REMARK    4  A    between atoms: C_18  and  C_19
REMARK    5  A    between atoms: N_21  and  S_22
REMARK    6  A    between atoms: S_22  and  C_25
REMARK                            x       y       z     vdW  Elec       q    Type
REMARK                         _______ _______ _______ _____ _____    ______ ____
ROOT
ATOM      1  C   UNL     1       9.943  45.291  47.668  0.00  0.00    +0.000 C 
ATOM      2  N   UNL     1      11.232  44.974  47.093  0.00  0.00    +0.000 N 
ATOM      3  C   UNL     1      11.739  43.708  46.968  0.00  0.00    +0.000 A 
ATOM      4  C   UNL     1      12.977  43.796  46.366  0.00  0.00    +0.000 A 
ATOM      5  C   UNL     1      13.233  45.183  46.124  0.00  0.00    +0.000 A 
ATOM      6  C   UNL     1      14.307  45.900  45.555  0.00  0.00    +0.000 A 
ATOM      7  C   UNL     1      14.246  47.297  45.463  0.00  0.00    +0.000 A 
ATOM      8  C   UNL     1      13.129  47.992  45.937  0.00  0.00    +0.000 A 
ATOM      9  C   UNL     1      12.047  47.297  46.500  0.00  0.00    +0.000 A 
ATOM     10  C   UNL     1      12.124  45.897  46.588  0.00  0.00    +0.000 A 
ENDROOT
BRANCH   4  11
ATOM     11  C   UNL     1      13.786  42.630  46.053  0.00  0.00    +0.000 A 
ATOM     12  C   UNL     1      14.441  41.925  47.070  0.00  0.00    +0.000 A 
ATOM     13  C   UNL     1      15.221  40.805  46.766  0.00  0.00    +0.000 A 
ATOM     14  C   UNL     1      15.363  40.373  45.438  0.00  0.00    +0.000 A 
ATOM     15  C   UNL     1      14.695  41.077  44.424  0.00  0.00    +0.000 A 
ATOM     16  C   UNL     1      13.916  42.197  44.729  0.00  0.00    +0.000 A 
BRANCH  14  17
ATOM     17  C   UNL     1      16.186  39.152  45.106  0.00  0.00    +0.000 C 
ATOM     18  F   UNL     1      16.975  39.341  44.013  0.00  0.00    +0.000 F 
ATOM     19  F   UNL     1      17.025  38.788  46.116  0.00  0.00    +0.000 F 
ATOM     20  F   UNL     1      15.429  38.051  44.838  0.00  0.00    +0.000 F 
ENDBRANCH  14  17
ENDBRANCH   4  11
BRANCH   8  21
ATOM     21  C   UNL     1      13.034  49.478  45.881  0.00  0.00    +0.000 C 
ATOM     22  O   UNL     1      11.991  50.049  46.153  0.00  0.00    +0.000 OA
ATOM     23  N   UNL     1      14.216  50.142  45.514  0.00  0.00    +0.000 N 
ATOM     24  H   UNL     1      15.101  49.651  45.511  0.00  0.00    +0.000 HD
BRANCH  23  25
ATOM     25  S   UNL     1      14.304  51.806  45.431  0.00  0.00    +0.000 S 
ATOM     26  O   UNL     1      13.564  52.266  44.277  0.00  0.00    +0.000 OA
ATOM     27  O   UNL     1      14.119  52.358  46.754  0.00  0.00    +0.000 OA
BRANCH  25  28
ATOM     28  C   UNL     1      16.034  52.011  45.040  0.00  0.00    +0.000 A 
ATOM     29  C   UNL     1      16.797  52.945  45.753  0.00  0.00    +0.000 A 
ATOM     30  C   UNL     1      18.154  53.095  45.454  0.00  0.00    +0.000 A 
ATOM     31  C   UNL     1      18.728  52.310  44.458  0.00  0.00    +0.000 A 
ATOM     32  F   UNL     1      20.028  52.463  44.171  0.00  0.00    +0.000 F 
ATOM     33  C   UNL     1      17.964  51.376  43.764  0.00  0.00    +0.000 A 
ATOM     34  F   UNL     1      18.525  50.626  42.806  0.00  0.00    +0.000 F 
ATOM     35  C   UNL     1      16.613  51.213  44.049  0.00  0.00    +0.000 A 
ENDBRANCH  25  28
ENDBRANCH  23  25
ENDBRANCH   8  21
TORSDOF 5
ENDMDL
MODEL 2
REMARK VINA RESULT:    -7.140      6.804     11.369
REMARK INTER + INTRA:         -10.066
REMARK INTER:                  -9.227
REMARK INTRA:                  -0.839
REMARK UNBOUND:                -0.839
REMARK  Name = 
REMARK  6 active torsions:
REMARK  status: ('A' for Active; 'I' for Inactive)
REMARK    1  A    between atoms: C_1  and  N_2
REMARK    2  A    between atoms: C_4  and  C_5
REMARK    3  A    between atoms: C_8  and  C_9
REMARK    4  A    between atoms: C_18  and  C_19
REMARK    5  A    between atoms: N_21  and  S_22
REMARK    6  A    between atoms: S_22  and  C_25
REMARK                            x       y       z     vdW  Elec       q    Type
REMARK                         _______ _______ _______ _____ _____    ______ ____
ROOT
ATOM      1  C   UNL     1      16.535  41.839  42.763  0.00  0.00    +0.000 C 
ATOM      2  N   UNL     1      15.803  42.387  43.884  0.00  0.00    +0.000 N 
ATOM      3  C   UNL     1      15.244  43.637  43.913  0.00  0.00    +0.000 A 
ATOM      4  C   UNL     1      14.620  43.802  45.133  0.00  0.00    +0.000 A 
ATOM      5  C   UNL     1      14.821  42.597  45.878  0.00  0.00    +0.000 A 
ATOM      6  C   UNL     1      14.442  42.163  47.166  0.00  0.00    +0.000 A 
ATOM      7  C   UNL     1      14.808  40.886  47.611  0.00  0.00    +0.000 A 
ATOM      8  C   UNL     1      15.554  40.034  46.790  0.00  0.00    +0.000 A 
ATOM      9  C   UNL     1      15.935  40.444  45.503  0.00  0.00    +0.000 A 
ATOM     10  C   UNL     1      15.563  41.728  45.072  0.00  0.00    +0.000 A 
ENDROOT
BRANCH   4  11
ATOM     11  C   UNL     1      13.896  45.010  45.490  0.00  0.00    +0.000 A 
ATOM     12  C   UNL     1      14.361  46.266  45.083  0.00  0.00    +0.000 A 
ATOM     13  C   UNL     1      13.664  47.427  45.431  0.00  0.00    +0.000 A 
ATOM     14  C   UNL     1      12.490  47.352  46.197  0.00  0.00    +0.000 A 
ATOM     15  C   UNL     1      12.022  46.090  46.594  0.00  0.00    +0.000 A 
ATOM     16  C   UNL     1      12.720  44.930  46.246  0.00  0.00    +0.000 A 
BRANCH  14  17
ATOM     17  C   UNL     1      11.722  48.600  46.557  0.00  0.00    +0.000 C 
ATOM     18  F   UNL     1      10.958  48.434  47.672  0.00  0.00    +0.000 F 
ATOM     19  F   UNL     1      12.531  49.667  46.811  0.00  0.00    +0.000 F 
ATOM     20  F   UNL     1      10.869  49.007  45.575  0.00  0.00    +0.000 F 
ENDBRANCH  14  17
ENDBRANCH   4  11
BRANCH   8  21
ATOM     21  C   UNL     1      15.986  38.679  47.233  0.00  0.00    +0.000 C 
ATOM     22  O   UNL     1      16.081  37.761  46.436  0.00  0.00    +0.000 OA
ATOM     23  N   UNL     1      16.277  38.558  48.602  0.00  0.00    +0.000 N 
ATOM     24  H   UNL     1      16.394  39.383  49.177  0.00  0.00    +0.000 HD
BRANCH  23  25
ATOM     25  S   UNL     1      16.806  37.123  49.269  0.00  0.00    +0.000 S 
ATOM     26  O   UNL     1      15.714  36.175  49.286  0.00  0.00    +0.000 OA
ATOM     27  O   UNL     1      18.113  36.807  48.741  0.00  0.00    +0.000 OA
BRANCH  25  28
ATOM     28  C   UNL     1      17.059  37.637  50.960  0.00  0.00    +0.000 A 
ATOM     29  C   UNL     1      16.600  36.823  52.005  0.00  0.00    +0.000 A 
ATOM     30  C   UNL     1      16.810  37.221  53.328  0.00  0.00    +0.000 A 
ATOM     31  C   UNL     1      17.477  38.415  53.588  0.00  0.00    +0.000 A 
ATOM     32  F   UNL     1      17.670  38.794  54.859  0.00  0.00    +0.000 F 
ATOM     33  C   UNL     1      17.940  39.210  52.543  0.00  0.00    +0.000 A 
ATOM     34  F   UNL     1      18.580  40.358  52.804  0.00  0.00    +0.000 F 
ATOM     35  C   UNL     1      17.740  38.829  51.222  0.00  0.00    +0.000 A 
ENDBRANCH  25  28
ENDBRANCH  23  25
ENDBRANCH   8  21
TORSDOF 5
ENDMDL
MODEL 3
REMARK VINA RESULT:    -7.080     11.608     14.952
REMARK INTER + INTRA:          -9.988
REMARK INTER:                  -9.254
REMARK INTRA:                  -0.734
REMARK UNBOUND:                -0.839
REMARK  Name = 
REMARK  6 active torsions:
REMARK  status: ('A' for Active; 'I' for Inactive)
REMARK    1  A    between atoms: C_1  and  N_2
REMARK    2  A    between atoms: C_4  and  C_5
REMARK    3  A    between atoms: C_8  and  C_9
REMARK    4  A    between atoms: C_18  and  C_19
REMARK    5  A    between atoms: N_21  and  S_22
REMARK    6  A    between atoms: S_22  and  C_25
REMARK                            x       y       z     vdW  Elec       q    Type
REMARK                         _______ _______ _______ _____ _____    ______ ____
ROOT
ATOM      1  C   UNL     1      17.530  35.231  47.647  0.00  0.00    +0.000 C 
ATOM      2  N   UNL     1      17.861  36.103  48.754  0.00  0.00    +0.000 N 
ATOM      3  C   UNL     1      17.128  37.197  49.129  0.00  0.00    +0.000 A 
ATOM      4  C   UNL     1      17.738  37.770  50.226  0.00  0.00    +0.000 A 
ATOM      5  C   UNL     1      18.900  36.988  50.520  0.00  0.00    +0.000 A 
ATOM      6  C   UNL     1      19.917  37.067  51.496  0.00  0.00    +0.000 A 
ATOM      7  C   UNL     1      20.947  36.117  51.512  0.00  0.00    +0.000 A 
ATOM      8  C   UNL     1      20.981  35.089  50.564  0.00  0.00    +0.000 A 
ATOM      9  C   UNL     1      19.976  34.989  49.589  0.00  0.00    +0.000 A 
ATOM     10  C   UNL     1      18.952  35.951  49.584  0.00  0.00    +0.000 A 
ENDROOT
BRANCH   4  11
ATOM     11  C   UNL     1      17.205  38.940  50.902  0.00  0.00    +0.000 A 
ATOM     12  C   UNL     1      15.952  39.456  50.552  0.00  0.00    +0.000 A 
ATOM     13  C   UNL     1      15.442  40.583  51.203  0.00  0.00    +0.000 A 
ATOM     14  C   UNL     1      16.181  41.218  52.213  0.00  0.00    +0.000 A 
ATOM     15  C   UNL     1      17.432  40.691  52.568  0.00  0.00    +0.000 A 
ATOM     16  C   UNL     1      17.941  39.564  51.916  0.00  0.00    +0.000 A 
BRANCH  14  17
ATOM     17  C   UNL     1      15.627  42.423  52.934  0.00  0.00    +0.000 C 
ATOM     18  F   UNL     1      15.752  42.320  54.286  0.00  0.00    +0.000 F 
ATOM     19  F   UNL     1      16.252  43.583  52.586  0.00  0.00    +0.000 F 
ATOM     20  F   UNL     1      14.301  42.630  52.694  0.00  0.00    +0.000 F 
ENDBRANCH  14  17
ENDBRANCH   4  11
BRANCH   8  21
ATOM     21  C   UNL     1      22.071  34.074  50.531  0.00  0.00    +0.000 C 
ATOM     22  O   UNL     1      21.924  32.981  51.053  0.00  0.00    +0.000 OA
ATOM     23  N   UNL     1      23.239  34.467  49.857  0.00  0.00    +0.000 N 
ATOM     24  H   UNL     1      23.236  35.284  49.261  0.00  0.00    +0.000 HD
BRANCH  23  25
ATOM     25  S   UNL     1      24.549  33.447  49.693  0.00  0.00    +0.000 S 
ATOM     26  O   UNL     1      25.234  33.345  50.962  0.00  0.00    +0.000 OA
ATOM     27  O   UNL     1      24.159  32.294  48.915  0.00  0.00    +0.000 OA
BRANCH  25  28
ATOM     28  C   UNL     1      25.588  34.439  48.633  0.00  0.00    +0.000 A 
ATOM     29  C   UNL     1      26.946  34.116  48.499  0.00  0.00    +0.000 A 
ATOM     30  C   UNL     1      27.755  34.886  47.659  0.00  0.00    +0.000 A 
ATOM     31  C   UNL     1      27.200  35.957  46.963  0.00  0.00    +0.000 A 
ATOM     32  F   UNL     1      27.983  36.695  46.164  0.00  0.00    +0.000 F 
ATOM     33  C   UNL     1      25.848  36.261  47.094  0.00  0.00    +0.000 A 
ATOM     34  F   UNL     1      25.323  37.294  46.420  0.00  0.00    +0.000 F 
ATOM     35  C   UNL     1      25.028  35.506  47.924  0.00  0.00    +0.000 A 
ENDBRANCH  25  28
ENDBRANCH  23  25
ENDBRANCH   8  21
TORSDOF 5
ENDMDL
