MODEL 1
REMARK VINA RESULT:    -7.423      0.000      0.000
REMARK INTER + INTRA:         -11.995
REMARK INTER:                 -10.620
REMARK INTRA:                  -1.375
REMARK UNBOUND:                -1.535
REMARK  Name = 
REMARK  9 active torsions:
REMARK  status: ('A' for Active; 'I' for Inactive)
REMARK    1  A    between atoms: C_1  and  C_2
REMARK    2  A    between atoms: C_2  and  C_3
REMARK    3  A    between atoms: C_7  and  O_8
REMARK    4  A    between atoms: O_8  and  C_9
REMARK    5  A    between atoms: C_13  and  C_14
REMARK    6  A    between atoms: N_21  and  C_22
REMARK    7  A    between atoms: C_22  and  C_23
REMARK    8  A    between atoms: C_26  and  C_27
REMARK    9  A    between atoms: C_30  and  C_31
REMARK                            x       y       z     vdW  Elec       q    Type
REMARK                         _______ _______ _______ _____ _____    ______ ____
ROOT
ATOM      1  C   UNL     1      15.766  38.849  47.260  0.00  0.00    +0.000 A 
ATOM      2  N   UNL     1      16.574  38.673  48.287  0.00  0.00    +0.000 NA
ATOM      3  C   UNL     1      15.929  39.199  49.373  0.00  0.00    +0.000 A 
ATOM      4  C   UNL     1      16.353  39.255  50.712  0.00  0.00    +0.000 A 
ATOM      5  C   UNL     1      15.521  39.850  51.662  0.00  0.00    +0.000 A 
ATOM      6  C   UNL     1      14.290  40.389  51.269  0.00  0.00    +0.000 A 
ATOM      7  C   UNL     1      13.846  40.340  49.941  0.00  0.00    +0.000 A 
ATOM      8  C   UNL     1      14.696  39.729  49.013  0.00  0.00    +0.000 A 
ATOM      9  N   UNL     1      14.604  39.483  47.658  0.00  0.00    +0.000 N 
ENDROOT
BRANCH   1  11
ATOM     10  C   UNL     1      16.607  39.568  45.026  0.00  0.00    +0.000 C 
ATOM     11  C   UNL     1      16.075  38.415  45.863  0.00  0.00    +0.000 C 
ENDBRANCH   1  11
BRANCH   5  12
ATOM     12  O   UNL     1      15.788  39.984  52.997  0.00  0.00    +0.000 OA
BRANCH  12  13
ATOM     13  C   UNL     1      16.306  41.230  53.485  0.00  0.00    +0.000 C 
ATOM     14  C   UNL     1      16.309  42.262  52.353  0.00  0.00    +0.000 C 
ATOM     15  C   UNL     1      16.077  43.671  52.880  0.00  0.00    +0.000 C 
ATOM     16  N   UNL     1      14.770  43.772  53.537  0.00  0.00    +0.000 N 
ATOM     17  C   UNL     1      14.082  44.971  53.604  0.00  0.00    +0.000 C 
ATOM     18  C   UNL     1      14.809  46.275  53.331  0.00  0.00    +0.000 C 
ATOM     19  N   UNL     1      12.821  45.073  53.869  0.00  0.00    +0.000 NA
ATOM     20  C   UNL     1      14.260  42.548  54.168  0.00  0.00    +0.000 C 
ATOM     21  C   UNL     1      15.408  41.665  54.649  0.00  0.00    +0.000 C 
ATOM     22  H   UNL     1      12.414  44.147  53.988  0.00  0.00    +0.000 HD
ENDBRANCH  12  13
ENDBRANCH   5  12
BRANCH   9  23
ATOM     23  C   UNL     1      13.486  39.869  46.807  0.00  0.00    +0.000 C 
BRANCH  23  24
ATOM     24  C   UNL     1      13.383  41.366  46.633  0.00  0.00    +0.000 A 
ATOM     25  C   UNL     1      12.222  42.044  47.027  0.00  0.00    +0.000 A 
ATOM     26  C   UNL     1      12.123  43.432  46.881  0.00  0.00    +0.000 A 
ATOM     27  C   UNL     1      13.173  44.180  46.327  0.00  0.00    +0.000 A 
ATOM     28  C   UNL     1      14.321  43.492  45.909  0.00  0.00    +0.000 A 
ATOM     29  C   UNL     1      14.426  42.104  46.056  0.00  0.00    +0.000 A 
BRANCH  27  30
ATOM     30  C   UNL     1      13.078  45.642  46.197  0.00  0.00    +0.000 A 
ATOM     31  C   UNL     1      11.951  46.339  46.666  0.00  0.00    +0.000 A 
ATOM     32  C   UNL     1      11.858  47.729  46.535  0.00  0.00    +0.000 A 
ATOM     33  C   UNL     1      12.895  48.444  45.931  0.00  0.00    +0.000 A 
ATOM     34  C   UNL     1      14.021  47.769  45.454  0.00  0.00    +0.000 A 
ATOM     35  C   UNL     1      14.108  46.379  45.590  0.00  0.00    +0.000 A 
BRANCH  33  36
ATOM     36  C   UNL     1      12.781  49.919  45.781  0.00  0.00    +0.000 C 
ATOM     37  N   UNL     1      13.812  50.691  45.649  0.00  0.00    +0.000 NA
ATOM     38  N   UNL     1      11.556  50.514  45.767  0.00  0.00    +0.000 N 
ATOM     39  H   UNL     1      14.685  50.159  45.719  0.00  0.00    +0.000 HD
ATOM     40  H   UNL     1      10.819  49.995  45.305  0.00  0.00    +0.000 HD
ATOM     41  H   UNL     1      11.625  51.471  45.434  0.00  0.00    +0.000 HD
ENDBRANCH  33  36
ENDBRANCH  27  30
ENDBRANCH  23  24
ENDBRANCH   9  23
TORSDOF 7
ENDMDL
MODEL 2
REMARK VINA RESULT:    -7.172      2.193      3.100
REMARK INTER + INTRA:         -11.642
REMARK INTER:                  -9.965
REMARK INTRA:                  -1.678
REMARK UNBOUND:                -1.535
REMARK  Name = 
REMARK  9 active torsions:
REMARK  status: ('A' for Active; 'I' for Inactive)
REMARK    1  A    between atoms: C_1  and  C_2
REMARK    2  A    between atoms: C_2  and  C_3
REMARK    3  A    between atoms: C_7  and  O_8
REMARK    4  A    between atoms: O_8  and  C_9
REMARK    5  A    between atoms: C_13  and  C_14
REMARK    6  A    between atoms: N_21  and  C_22
REMARK    7  A    between atoms: C_22  and  C_23
REMARK    8  A    between atoms: C_26  and  C_27
REMARK    9  A    between atoms: C_30  and  C_31
REMARK                            x       y       z     vdW  Elec       q    Type
REMARK                         _______ _______ _______ _____ _____    ______ ____
ROOT
ATOM      1  C   UNL     1      15.745  38.827  47.585  0.00  0.00    +0.000 A 
ATOM      2  N   UNL     1      16.591  38.706  48.589  0.00  0.00    +0.000 NA
ATOM      3  C   UNL     1      16.041  39.397  49.635  0.00  0.00    +0.000 A 
ATOM      4  C   UNL     1      16.536  39.570  50.939  0.00  0.00    +0.000 A 
ATOM      5  C   UNL     1      15.797  40.328  51.849  0.00  0.00    +0.000 A 
ATOM      6  C   UNL     1      14.589  40.910  51.450  0.00  0.00    +0.000 A 
ATOM      7  C   UNL     1      14.075  40.747  50.158  0.00  0.00    +0.000 A 
ATOM      8  C   UNL     1      14.831  39.975  49.270  0.00  0.00    +0.000 A 
ATOM      9  N   UNL     1      14.652  39.586  47.958  0.00  0.00    +0.000 N 
ENDROOT
BRANCH   1  11
ATOM     10  C   UNL     1      16.676  39.170  45.299  0.00  0.00    +0.000 C 
ATOM     11  C   UNL     1      15.951  38.218  46.235  0.00  0.00    +0.000 C 
ENDBRANCH   1  11
BRANCH   5  12
ATOM     12  O   UNL     1      16.141  40.590  53.148  0.00  0.00    +0.000 OA
BRANCH  12  13
ATOM     13  C   UNL     1      15.969  39.565  54.137  0.00  0.00    +0.000 C 
ATOM     14  C   UNL     1      17.341  39.092  54.629  0.00  0.00    +0.000 C 
ATOM     15  C   UNL     1      17.294  38.663  56.088  0.00  0.00    +0.000 C 
ATOM     16  N   UNL     1      16.905  39.786  56.948  0.00  0.00    +0.000 N 
ATOM     17  C   UNL     1      17.301  39.856  58.273  0.00  0.00    +0.000 C 
ATOM     18  C   UNL     1      17.831  38.617  58.970  0.00  0.00    +0.000 C 
ATOM     19  N   UNL     1      17.274  40.935  58.984  0.00  0.00    +0.000 NA
ATOM     20  C   UNL     1      16.028  40.796  56.345  0.00  0.00    +0.000 C 
ATOM     21  C   UNL     1      15.138  40.174  55.273  0.00  0.00    +0.000 C 
ATOM     22  H   UNL     1      16.952  41.718  58.417  0.00  0.00    +0.000 HD
ENDBRANCH  12  13
ENDBRANCH   5  12
BRANCH   9  23
ATOM     23  C   UNL     1      13.521  39.958  47.117  0.00  0.00    +0.000 C 
BRANCH  23  24
ATOM     24  C   UNL     1      13.487  41.437  46.818  0.00  0.00    +0.000 A 
ATOM     25  C   UNL     1      12.357  42.199  47.148  0.00  0.00    +0.000 A 
ATOM     26  C   UNL     1      12.322  43.572  46.886  0.00  0.00    +0.000 A 
ATOM     27  C   UNL     1      13.404  44.222  46.274  0.00  0.00    +0.000 A 
ATOM     28  C   UNL     1      14.520  43.450  45.920  0.00  0.00    +0.000 A 
ATOM     29  C   UNL     1      14.562  42.077  46.184  0.00  0.00    +0.000 A 
BRANCH  27  30
ATOM     30  C   UNL     1      13.376  45.671  46.022  0.00  0.00    +0.000 A 
ATOM     31  C   UNL     1      14.405  46.302  45.303  0.00  0.00    +0.000 A 
ATOM     32  C   UNL     1      14.381  47.681  45.071  0.00  0.00    +0.000 A 
ATOM     33  C   UNL     1      13.321  48.452  45.555  0.00  0.00    +0.000 A 
ATOM     34  C   UNL     1      12.290  47.844  46.275  0.00  0.00    +0.000 A 
ATOM     35  C   UNL     1      12.320  46.464  46.503  0.00  0.00    +0.000 A 
BRANCH  33  36
ATOM     36  C   UNL     1      13.310  49.920  45.318  0.00  0.00    +0.000 C 
ATOM     37  N   UNL     1      13.699  50.452  44.203  0.00  0.00    +0.000 NA
ATOM     38  N   UNL     1      12.870  50.768  46.288  0.00  0.00    +0.000 N 
ATOM     39  H   UNL     1      14.054  49.741  43.557  0.00  0.00    +0.000 HD
ATOM     40  H   UNL     1      12.092  50.436  46.845  0.00  0.00    +0.000 HD
ATOM     41  H   UNL     1      12.707  51.696  45.908  0.00  0.00    +0.000 HD
ENDBRANCH  33  36
ENDBRANCH  27  30
ENDBRANCH  23  24
ENDBRANCH   9  23
TORSDOF 7
ENDMDL
MODEL 3
REMARK VINA RESULT:    -6.897      2.094      2.791
REMARK INTER + INTRA:         -11.255
REMARK INTER:                  -9.720
REMARK INTRA:                  -1.535
REMARK UNBOUND:                -1.535
REMARK  Name = 
REMARK  9 active torsions:
REMARK  status: ('A' for Active; 'I' for Inactive)
REMARK    1  A    between atoms: C_1  and  C_2
REMARK    2  A    between atoms: C_2  and  C_3
REMARK    3  A    between atoms: C_7  and  O_8
REMARK    4  A    between atoms: O_8  and  C_9
REMARK    5  A    between atoms: C_13  and  C_14
REMARK    6  A    between atoms: N_21  and  C_22
REMARK    7  A    between atoms: C_22  and  C_23
REMARK    8  A    between atoms: C_26  and  C_27
REMARK    9  A    between atoms: C_30  and  C_31
REMARK                            x       y       z     vdW  Elec       q    Type
REMARK                         _______ _______ _______ _____ _____    ______ ____
ROOT
ATOM      1  C   UNL     1      16.351  39.253  45.991  0.00  0.00    +0.000 A 
ATOM      2  N   UNL     1      17.170  38.907  46.965  0.00  0.00    +0.000 NA
ATOM      3  C   UNL     1      16.484  39.118  48.131  0.00  0.00    +0.000 A 
ATOM      4  C   UNL     1      16.901  38.896  49.455  0.00  0.00    +0.000 A 
ATOM      5  C   UNL     1      16.024  39.191  50.500  0.00  0.00    +0.000 A 
ATOM      6  C   UNL     1      14.756  39.711  50.218  0.00  0.00    +0.000 A 
ATOM      7  C   UNL     1      14.318  39.936  48.906  0.00  0.00    +0.000 A 
ATOM      8  C   UNL     1      15.214  39.622  47.879  0.00  0.00    +0.000 A 
ATOM      9  N   UNL     1      15.142  39.688  46.502  0.00  0.00    +0.000 N 
ENDROOT
BRANCH   1  11
ATOM     10  C   UNL     1      16.364  37.811  43.958  0.00  0.00    +0.000 C 
ATOM     11  C   UNL     1      16.694  39.177  44.538  0.00  0.00    +0.000 C 
ENDBRANCH   1  11
BRANCH   5  12
ATOM     12  O   UNL     1      16.279  39.034  51.835  0.00  0.00    +0.000 OA
BRANCH  12  13
ATOM     13  C   UNL     1      16.469  40.198  52.653  0.00  0.00    +0.000 C 
ATOM     14  C   UNL     1      15.269  40.365  53.592  0.00  0.00    +0.000 C 
ATOM     15  C   UNL     1      15.679  40.994  54.916  0.00  0.00    +0.000 C 
ATOM     16  N   UNL     1      16.647  40.144  55.618  0.00  0.00    +0.000 N 
ATOM     17  C   UNL     1      16.761  40.162  56.997  0.00  0.00    +0.000 C 
ATOM     18  C   UNL     1      16.161  41.307  57.790  0.00  0.00    +0.000 C 
ATOM     19  N   UNL     1      17.341  39.238  57.691  0.00  0.00    +0.000 NA
ATOM     20  C   UNL     1      17.523  39.320  54.776  0.00  0.00    +0.000 C 
ATOM     21  C   UNL     1      17.774  39.992  53.431  0.00  0.00    +0.000 C 
ATOM     22  H   UNL     1      17.667  38.493  57.078  0.00  0.00    +0.000 HD
ENDBRANCH  12  13
ENDBRANCH   5  12
BRANCH   9  23
ATOM     23  C   UNL     1      13.998  40.173  45.742  0.00  0.00    +0.000 C 
BRANCH  23  24
ATOM     24  C   UNL     1      13.879  41.678  45.776  0.00  0.00    +0.000 A 
ATOM     25  C   UNL     1      14.810  42.476  45.096  0.00  0.00    +0.000 A 
ATOM     26  C   UNL     1      14.700  43.870  45.113  0.00  0.00    +0.000 A 
ATOM     27  C   UNL     1      13.669  44.509  45.818  0.00  0.00    +0.000 A 
ATOM     28  C   UNL     1      12.758  43.706  46.519  0.00  0.00    +0.000 A 
ATOM     29  C   UNL     1      12.861  42.311  46.503  0.00  0.00    +0.000 A 
BRANCH  27  30
ATOM     30  C   UNL     1      13.541  45.974  45.814  0.00  0.00    +0.000 A 
ATOM     31  C   UNL     1      12.421  46.605  46.381  0.00  0.00    +0.000 A 
ATOM     32  C   UNL     1      12.296  47.998  46.368  0.00  0.00    +0.000 A 
ATOM     33  C   UNL     1      13.295  48.784  45.787  0.00  0.00    +0.000 A 
ATOM     34  C   UNL     1      14.414  48.175  45.214  0.00  0.00    +0.000 A 
ATOM     35  C   UNL     1      14.533  46.781  45.231  0.00  0.00    +0.000 A 
BRANCH  33  36
ATOM     36  C   UNL     1      13.147  50.263  45.764  0.00  0.00    +0.000 C 
ATOM     37  N   UNL     1      14.003  51.043  45.186  0.00  0.00    +0.000 NA
ATOM     38  N   UNL     1      12.072  50.854  46.357  0.00  0.00    +0.000 N 
ATOM     39  H   UNL     1      14.795  50.512  44.813  0.00  0.00    +0.000 HD
ATOM     40  H   UNL     1      11.196  50.351  46.283  0.00  0.00    +0.000 HD
ATOM     41  H   UNL     1      11.990  51.824  46.067  0.00  0.00    +0.000 HD
ENDBRANCH  33  36
ENDBRANCH  27  30
ENDBRANCH  23  24
ENDBRANCH   9  23
TORSDOF 7
ENDMDL
