MODEL 1
REMARK VINA RESULT:    -6.437      0.000      0.000
REMARK INTER + INTRA:          -9.120
REMARK INTER:                  -8.011
REMARK INTRA:                  -1.108
REMARK UNBOUND:                -1.177
REMARK  Name = 
REMARK  4 active torsions:
REMARK  status: ('A' for Active; 'I' for Inactive)
REMARK    1  A    between atoms: C_4  and  C_5
REMARK    2  A    between atoms: C_11  and  O_12
REMARK    3  A    between atoms: O_12  and  C_13
REMARK    4  A    between atoms: C_13  and  C_14
REMARK                            x       y       z     vdW  Elec       q    Type
REMARK                         _______ _______ _______ _____ _____    ______ ____
ROOT
ATOM      1  C   UNL     1      13.250  47.221  45.780  0.00  0.00    +0.000 A 
ATOM      2  N   UNL     1      12.216  47.334  46.603  0.00  0.00    +0.000 NA
ATOM      3  N   UNL     1      11.770  46.078  46.936  0.00  0.00    +0.000 NA
ATOM      4  C   UNL     1      12.548  45.208  46.333  0.00  0.00    +0.000 A 
ATOM      5  C   UNL     1      12.559  43.790  46.337  0.00  0.00    +0.000 A 
ATOM      6  C   UNL     1      13.524  43.159  45.633  0.00  0.00    +0.000 A 
ATOM      7  C   UNL     1      14.481  44.008  44.893  0.00  0.00    +0.000 A 
ATOM      8  N   UNL     1      14.511  45.298  44.852  0.00  0.00    +0.000 NA
ATOM      9  N   UNL     1      13.508  45.871  45.592  0.00  0.00    +0.000 N 
ATOM     10  C   UNL     1      13.559  41.649  45.628  0.00  0.00    +0.000 C 
ATOM     11  C   UNL     1      12.442  41.055  44.740  0.00  0.00    +0.000 C 
ATOM     12  C   UNL     1      11.104  41.805  44.736  0.00  0.00    +0.000 C 
ATOM     13  C   UNL     1      10.558  42.240  46.100  0.00  0.00    +0.000 C 
ATOM     14  C   UNL     1      11.566  42.901  47.069  0.00  0.00    +0.000 C 
ATOM     15  C   UNL     1      12.328  41.835  47.878  0.00  0.00    +0.000 C 
ATOM     16  C   UNL     1      13.432  41.139  47.077  0.00  0.00    +0.000 C 
ENDROOT
BRANCH   1  20
ATOM     17  C   UNL     1      15.366  50.526  44.062  0.00  0.00    +0.000 A 
ATOM     18  C   UNL     1      16.048  49.622  44.872  0.00  0.00    +0.000 A 
ATOM     19  C   UNL     1      15.373  48.538  45.440  0.00  0.00    +0.000 A 
ATOM     20  C   UNL     1      14.003  48.344  45.212  0.00  0.00    +0.000 A 
ATOM     21  C   UNL     1      13.335  49.259  44.381  0.00  0.00    +0.000 A 
ATOM     22  C   UNL     1      14.009  50.344  43.813  0.00  0.00    +0.000 A 
ENDBRANCH   1  20
BRANCH   7  23
ATOM     23  O   UNL     1      15.374  43.247  44.222  0.00  0.00    +0.000 OA
BRANCH  23  24
ATOM     24  C   UNL     1      15.939  43.826  43.033  0.00  0.00    +0.000 C 
BRANCH  24  25
ATOM     25  C   UNL     1      15.198  43.308  41.822  0.00  0.00    +0.000 A 
ATOM     26  C   UNL     1      14.724  41.997  41.794  0.00  0.00    +0.000 A 
ATOM     27  C   UNL     1      14.059  41.545  40.657  0.00  0.00    +0.000 A 
ATOM     28  C   UNL     1      13.885  42.407  39.581  0.00  0.00    +0.000 A 
ATOM     29  C   UNL     1      14.389  43.692  39.687  0.00  0.00    +0.000 A 
ATOM     30  N   UNL     1      15.039  44.159  40.776  0.00  0.00    +0.000 NA
ENDBRANCH  24  25
ENDBRANCH  23  24
ENDBRANCH   7  23
TORSDOF 4
ENDMDL
MODEL 2
REMARK VINA RESULT:    -6.432     11.072     14.295
REMARK INTER + INTRA:          -9.114
REMARK INTER:                  -8.314
REMARK INTRA:                  -0.799
REMARK UNBOUND:                -1.177
REMARK  Name = 
REMARK  4 active torsions:
REMARK  status: ('A' for Active; 'I' for Inactive)
REMARK    1  A    between atoms: C_4  and  C_5
REMARK    2  A    between atoms: C_11  and  O_12
REMARK    3  A    between atoms: O_12  and  C_13
REMARK    4  A    between atoms: C_13  and  C_14
REMARK                            x       y       z     vdW  Elec       q    Type
REMARK                         _______ _______ _______ _____ _____    ______ ____
ROOT
ATOM      1  C   UNL     1      17.852  38.733  52.658  0.00  0.00    +0.000 A 
ATOM      2  N   UNL     1      17.694  40.048  52.606  0.00  0.00    +0.000 NA
ATOM      3  N   UNL     1      17.355  40.507  53.855  0.00  0.00    +0.000 NA
ATOM      4  C   UNL     1      17.331  39.474  54.665  0.00  0.00    +0.000 A 
ATOM      5  C   UNL     1      17.062  39.369  56.054  0.00  0.00    +0.000 A 
ATOM      6  C   UNL     1      17.151  38.149  56.629  0.00  0.00    +0.000 A 
ATOM      7  C   UNL     1      17.499  37.014  55.747  0.00  0.00    +0.000 A 
ATOM      8  N   UNL     1      17.747  37.055  54.481  0.00  0.00    +0.000 NA
ATOM      9  N   UNL     1      17.644  38.323  53.966  0.00  0.00    +0.000 N 
ATOM     10  C   UNL     1      16.875  38.014  58.107  0.00  0.00    +0.000 C 
ATOM     11  C   UNL     1      15.365  38.116  58.418  0.00  0.00    +0.000 C 
ATOM     12  C   UNL     1      14.557  39.098  57.561  0.00  0.00    +0.000 C 
ATOM     13  C   UNL     1      15.175  40.483  57.340  0.00  0.00    +0.000 C 
ATOM     14  C   UNL     1      16.675  40.520  56.968  0.00  0.00    +0.000 C 
ATOM     15  C   UNL     1      17.554  40.491  58.232  0.00  0.00    +0.000 C 
ATOM     16  C   UNL     1      17.663  39.101  58.866  0.00  0.00    +0.000 C 
ENDROOT
BRANCH   1  20
ATOM     17  C   UNL     1      18.849  36.269  49.298  0.00  0.00    +0.000 A 
ATOM     18  C   UNL     1      19.681  36.274  50.415  0.00  0.00    +0.000 A 
ATOM     19  C   UNL     1      19.370  37.072  51.520  0.00  0.00    +0.000 A 
ATOM     20  C   UNL     1      18.226  37.881  51.523  0.00  0.00    +0.000 A 
ATOM     21  C   UNL     1      17.392  37.852  50.392  0.00  0.00    +0.000 A 
ATOM     22  C   UNL     1      17.702  37.056  49.287  0.00  0.00    +0.000 A 
ENDBRANCH   1  20
BRANCH   7  23
ATOM     23  O   UNL     1      17.533  35.859  56.449  0.00  0.00    +0.000 OA
BRANCH  23  24
ATOM     24  C   UNL     1      17.958  34.689  55.730  0.00  0.00    +0.000 C 
BRANCH  24  25
ATOM     25  C   UNL     1      19.468  34.634  55.708  0.00  0.00    +0.000 A 
ATOM     26  C   UNL     1      20.154  34.594  54.494  0.00  0.00    +0.000 A 
ATOM     27  C   UNL     1      21.544  34.528  54.508  0.00  0.00    +0.000 A 
ATOM     28  C   UNL     1      22.214  34.501  55.726  0.00  0.00    +0.000 A 
ATOM     29  C   UNL     1      21.459  34.540  56.886  0.00  0.00    +0.000 A 
ATOM     30  N   UNL     1      20.110  34.604  56.905  0.00  0.00    +0.000 NA
ENDBRANCH  24  25
ENDBRANCH  23  24
ENDBRANCH   7  23
TORSDOF 4
ENDMDL
MODEL 3
REMARK VINA RESULT:    -6.284      9.560     13.093
REMARK INTER + INTRA:          -8.931
REMARK INTER:                  -7.754
REMARK INTRA:                  -1.177
REMARK UNBOUND:                -1.177
REMARK  Name = 
REMARK  4 active torsions:
REMARK  status: ('A' for Active; 'I' for Inactive)
REMARK    1  A    between atoms: C_4  and  C_5
REMARK    2  A    between atoms: C_11  and  O_12
REMARK    3  A    between atoms: O_12  and  C_13
REMARK    4  A    between atoms: C_13  and  C_14
REMARK                            x       y       z     vdW  Elec       q    Type
REMARK                         _______ _______ _______ _____ _____    ______ ____
ROOT
ATOM      1  C   UNL     1      18.040  36.342  53.331  0.00  0.00    +0.000 A 
ATOM      2  N   UNL     1      17.603  35.351  54.095  0.00  0.00    +0.000 NA
ATOM      3  N   UNL     1      16.946  35.879  55.179  0.00  0.00    +0.000 NA
ATOM      4  C   UNL     1      16.966  37.187  55.057  0.00  0.00    +0.000 A 
ATOM      5  C   UNL     1      16.429  38.219  55.868  0.00  0.00    +0.000 A 
ATOM      6  C   UNL     1      16.582  39.497  55.456  0.00  0.00    +0.000 A 
ATOM      7  C   UNL     1      17.325  39.713  54.196  0.00  0.00    +0.000 A 
ATOM      8  N   UNL     1      17.837  38.811  53.427  0.00  0.00    +0.000 NA
ATOM      9  N   UNL     1      17.639  37.540  53.903  0.00  0.00    +0.000 N 
ATOM     10  C   UNL     1      16.013  40.612  56.300  0.00  0.00    +0.000 C 
ATOM     11  C   UNL     1      16.860  40.857  57.569  0.00  0.00    +0.000 C 
ATOM     12  C   UNL     1      17.476  39.617  58.228  0.00  0.00    +0.000 C 
ATOM     13  C   UNL     1      16.555  38.404  58.400  0.00  0.00    +0.000 C 
ATOM     14  C   UNL     1      15.688  38.016  57.180  0.00  0.00    +0.000 C 
ATOM     15  C   UNL     1      14.377  38.824  57.161  0.00  0.00    +0.000 C 
ATOM     16  C   UNL     1      14.558  40.266  56.675  0.00  0.00    +0.000 C 
ENDROOT
BRANCH   1  20
ATOM     17  C   UNL     1      20.115  35.854  49.614  0.00  0.00    +0.000 A 
ATOM     18  C   UNL     1      20.826  35.789  50.810  0.00  0.00    +0.000 A 
ATOM     19  C   UNL     1      20.164  35.946  52.031  0.00  0.00    +0.000 A 
ATOM     20  C   UNL     1      18.782  36.176  52.076  0.00  0.00    +0.000 A 
ATOM     21  C   UNL     1      18.080  36.224  50.860  0.00  0.00    +0.000 A 
ATOM     22  C   UNL     1      18.741  36.068  49.638  0.00  0.00    +0.000 A 
ENDBRANCH   1  20
BRANCH   7  23
ATOM     23  O   UNL     1      17.418  41.032  53.918  0.00  0.00    +0.000 OA
BRANCH  23  24
ATOM     24  C   UNL     1      16.769  41.477  52.715  0.00  0.00    +0.000 C 
BRANCH  24  25
ATOM     25  C   UNL     1      15.695  42.480  53.065  0.00  0.00    +0.000 A 
ATOM     26  C   UNL     1      14.380  42.062  53.270  0.00  0.00    +0.000 A 
ATOM     27  C   UNL     1      13.411  43.014  53.576  0.00  0.00    +0.000 A 
ATOM     28  C   UNL     1      13.774  44.352  53.667  0.00  0.00    +0.000 A 
ATOM     29  C   UNL     1      15.099  44.685  53.446  0.00  0.00    +0.000 A 
ATOM     30  N   UNL     1      16.062  43.785  53.147  0.00  0.00    +0.000 NA
ENDBRANCH  24  25
ENDBRANCH  23  24
ENDBRANCH   7  23
TORSDOF 4
ENDMDL
