MODEL 1
REMARK VINA RESULT:    -6.292      0.000      0.000
REMARK INTER + INTRA:          -9.467
REMARK INTER:                  -8.296
REMARK INTRA:                  -1.171
REMARK UNBOUND:                -0.969
REMARK  Name = 
REMARK  6 active torsions:
REMARK  status: ('A' for Active; 'I' for Inactive)
REMARK    1  A    between atoms: N_7  and  C_8
REMARK    2  A    between atoms: C_8  and  C_9
REMARK    3  A    between atoms: C_9  and  C_10
REMARK    4  A    between atoms: N_22  and  C_23
REMARK    5  A    between atoms: C_23  and  C_24
REMARK    6  A    between atoms: C_24  and  C_25
REMARK                            x       y       z     vdW  Elec       q    Type
REMARK                         _______ _______ _______ _____ _____    ______ ____
ROOT
ATOM      1  O   UNL     1      12.868  40.565  43.951  0.00  0.00    +0.000 OA
ATOM      2  C   UNL     1      13.614  40.768  44.894  0.00  0.00    +0.000 C 
ATOM      3  O   UNL     1      13.866  39.852  45.877  0.00  0.00    +0.000 OA
ATOM      4  C   UNL     1      14.891  40.374  46.755  0.00  0.00    +0.000 C 
ATOM      5  C   UNL     1      16.235  39.736  46.380  0.00  0.00    +0.000 C 
ATOM      6  C   UNL     1      16.279  38.258  46.774  0.00  0.00    +0.000 C 
ATOM      7  N   UNL     1      15.963  38.013  48.187  0.00  0.00    +0.000 NA
ATOM      8  C   UNL     1      14.641  38.569  48.511  0.00  0.00    +0.000 C 
ATOM      9  C   UNL     1      14.511  40.064  48.205  0.00  0.00    +0.000 C 
ATOM     10  C   UNL     1      14.869  41.872  46.472  0.00  0.00    +0.000 C 
ATOM     11  N   UNL     1      14.301  41.926  45.158  0.00  0.00    +0.000 N 
ENDROOT
BRANCH   7  12
ATOM     12  C   UNL     1      17.001  38.462  49.134  0.00  0.00    +0.000 C 
BRANCH  12  13
ATOM     13  C   UNL     1      16.660  38.180  50.609  0.00  0.00    +0.000 C 
BRANCH  13  14
ATOM     14  C   UNL     1      16.974  39.352  51.489  0.00  0.00    +0.000 A 
ATOM     15  C   UNL     1      18.211  39.676  52.014  0.00  0.00    +0.000 A 
ATOM     16  N   UNL     1      18.077  40.815  52.760  0.00  0.00    +0.000 N 
ATOM     17  C   UNL     1      16.774  41.252  52.734  0.00  0.00    +0.000 A 
ATOM     18  C   UNL     1      16.182  42.364  53.344  0.00  0.00    +0.000 A 
ATOM     19  C   UNL     1      14.812  42.561  53.144  0.00  0.00    +0.000 A 
ATOM     20  C   UNL     1      14.067  41.679  52.365  0.00  0.00    +0.000 A 
ATOM     21  C   UNL     1      14.675  40.573  51.761  0.00  0.00    +0.000 A 
ATOM     22  C   UNL     1      16.055  40.351  51.947  0.00  0.00    +0.000 A 
ATOM     23  H   UNL     1      18.822  41.274  53.264  0.00  0.00    +0.000 HD
ENDBRANCH  13  14
ENDBRANCH  12  13
ENDBRANCH   7  12
BRANCH  11  24
ATOM     24  C   UNL     1      14.081  43.170  44.437  0.00  0.00    +0.000 C 
BRANCH  24  25
ATOM     25  C   UNL     1      14.708  44.411  45.090  0.00  0.00    +0.000 C 
BRANCH  25  26
ATOM     26  C   UNL     1      13.707  45.395  45.643  0.00  0.00    +0.000 A 
ATOM     27  C   UNL     1      12.583  44.941  46.347  0.00  0.00    +0.000 A 
ATOM     28  C   UNL     1      11.663  45.849  46.874  0.00  0.00    +0.000 A 
ATOM     29  C   UNL     1      11.855  47.218  46.698  0.00  0.00    +0.000 A 
ATOM     30  C   UNL     1      12.965  47.681  45.994  0.00  0.00    +0.000 A 
ATOM     31  C   UNL     1      13.886  46.774  45.467  0.00  0.00    +0.000 A 
ENDBRANCH  25  26
ENDBRANCH  24  25
ENDBRANCH  11  24
TORSDOF 6
ENDMDL
MODEL 2
REMARK VINA RESULT:    -6.132      1.549      2.158
REMARK INTER + INTRA:          -9.251
REMARK INTER:                  -8.413
REMARK INTRA:                  -0.839
REMARK UNBOUND:                -0.969
REMARK  Name = 
REMARK  6 active torsions:
REMARK  status: ('A' for Active; 'I' for Inactive)
REMARK    1  A    between atoms: N_7  and  C_8
REMARK    2  A    between atoms: C_8  and  C_9
REMARK    3  A    between atoms: C_9  and  C_10
REMARK    4  A    between atoms: N_22  and  C_23
REMARK    5  A    between atoms: C_23  and  C_24
REMARK    6  A    between atoms: C_24  and  C_25
REMARK                            x       y       z     vdW  Elec       q    Type
REMARK                         _______ _______ _______ _____ _____    ______ ____
ROOT
ATOM      1  O   UNL     1      12.783  39.909  44.489  0.00  0.00    +0.000 OA
ATOM      2  C   UNL     1      13.579  40.247  45.347  0.00  0.00    +0.000 C 
ATOM      3  O   UNL     1      13.968  39.445  46.384  0.00  0.00    +0.000 OA
ATOM      4  C   UNL     1      15.014  40.112  47.128  0.00  0.00    +0.000 C 
ATOM      5  C   UNL     1      16.369  39.529  46.705  0.00  0.00    +0.000 C 
ATOM      6  C   UNL     1      16.548  38.100  47.223  0.00  0.00    +0.000 C 
ATOM      7  N   UNL     1      16.355  37.968  48.673  0.00  0.00    +0.000 NA
ATOM      8  C   UNL     1      15.024  38.466  49.051  0.00  0.00    +0.000 C 
ATOM      9  C   UNL     1      14.765  39.914  48.626  0.00  0.00    +0.000 C 
ATOM     10  C   UNL     1      14.865  41.572  46.717  0.00  0.00    +0.000 C 
ATOM     11  N   UNL     1      14.199  41.467  45.453  0.00  0.00    +0.000 N 
ENDROOT
BRANCH   7  12
ATOM     12  C   UNL     1      17.425  38.570  49.491  0.00  0.00    +0.000 C 
BRANCH  12  13
ATOM     13  C   UNL     1      17.596  37.912  50.872  0.00  0.00    +0.000 C 
BRANCH  13  14
ATOM     14  C   UNL     1      17.537  38.917  51.982  0.00  0.00    +0.000 A 
ATOM     15  C   UNL     1      17.638  40.290  51.852  0.00  0.00    +0.000 A 
ATOM     16  N   UNL     1      17.535  40.848  53.098  0.00  0.00    +0.000 N 
ATOM     17  C   UNL     1      17.364  39.869  54.047  0.00  0.00    +0.000 A 
ATOM     18  C   UNL     1      17.212  39.973  55.434  0.00  0.00    +0.000 A 
ATOM     19  C   UNL     1      17.058  38.788  56.161  0.00  0.00    +0.000 A 
ATOM     20  C   UNL     1      17.056  37.551  55.523  0.00  0.00    +0.000 A 
ATOM     21  C   UNL     1      17.208  37.465  54.135  0.00  0.00    +0.000 A 
ATOM     22  C   UNL     1      17.366  38.644  53.378  0.00  0.00    +0.000 A 
ATOM     23  H   UNL     1      17.581  41.836  53.299  0.00  0.00    +0.000 HD
ENDBRANCH  13  14
ENDBRANCH  12  13
ENDBRANCH   7  12
BRANCH  11  24
ATOM     24  C   UNL     1      13.839  42.620  44.645  0.00  0.00    +0.000 C 
BRANCH  24  25
ATOM     25  C   UNL     1      14.629  43.899  44.962  0.00  0.00    +0.000 C 
BRANCH  25  26
ATOM     26  C   UNL     1      13.793  45.025  45.520  0.00  0.00    +0.000 A 
ATOM     27  C   UNL     1      14.174  46.358  45.316  0.00  0.00    +0.000 A 
ATOM     28  C   UNL     1      13.395  47.402  45.816  0.00  0.00    +0.000 A 
ATOM     29  C   UNL     1      12.231  47.123  46.529  0.00  0.00    +0.000 A 
ATOM     30  C   UNL     1      11.846  45.801  46.745  0.00  0.00    +0.000 A 
ATOM     31  C   UNL     1      12.623  44.756  46.245  0.00  0.00    +0.000 A 
ENDBRANCH  25  26
ENDBRANCH  24  25
ENDBRANCH  11  24
TORSDOF 6
ENDMDL
MODEL 3
REMARK VINA RESULT:    -6.057      3.489      5.277
REMARK INTER + INTRA:          -9.150
REMARK INTER:                  -8.181
REMARK INTRA:                  -0.969
REMARK UNBOUND:                -0.969
REMARK  Name = 
REMARK  6 active torsions:
REMARK  status: ('A' for Active; 'I' for Inactive)
REMARK    1  A    between atoms: N_7  and  C_8
REMARK    2  A    between atoms: C_8  and  C_9
REMARK    3  A    between atoms: C_9  and  C_10
REMARK    4  A    between atoms: N_22  and  C_23
REMARK    5  A    between atoms: C_23  and  C_24
REMARK    6  A    between atoms: C_24  and  C_25
REMARK                            x       y       z     vdW  Elec       q    Type
REMARK                         _______ _______ _______ _____ _____    ______ ____
ROOT
ATOM      1  O   UNL     1      15.051  43.618  40.674  0.00  0.00    +0.000 OA
ATOM      2  C   UNL     1      15.173  42.731  41.502  0.00  0.00    +0.000 C 
ATOM      3  O   UNL     1      15.220  41.400  41.192  0.00  0.00    +0.000 OA
ATOM      4  C   UNL     1      15.502  40.646  42.394  0.00  0.00    +0.000 C 
ATOM      5  C   UNL     1      16.992  40.278  42.408  0.00  0.00    +0.000 C 
ATOM      6  C   UNL     1      17.314  39.219  41.351  0.00  0.00    +0.000 C 
ATOM      7  N   UNL     1      16.480  38.014  41.447  0.00  0.00    +0.000 NA
ATOM      8  C   UNL     1      15.058  38.378  41.361  0.00  0.00    +0.000 C 
ATOM      9  C   UNL     1      14.618  39.396  42.417  0.00  0.00    +0.000 C 
ATOM     10  C   UNL     1      15.141  41.617  43.513  0.00  0.00    +0.000 C 
ATOM     11  N   UNL     1      15.256  42.888  42.863  0.00  0.00    +0.000 N 
ENDROOT
BRANCH   7  12
ATOM     12  C   UNL     1      16.765  37.164  42.618  0.00  0.00    +0.000 C 
BRANCH  12  13
ATOM     13  C   UNL     1      18.181  37.351  43.191  0.00  0.00    +0.000 C 
BRANCH  13  14
ATOM     14  C   UNL     1      18.230  37.076  44.664  0.00  0.00    +0.000 A 
ATOM     15  C   UNL     1      18.923  36.054  45.286  0.00  0.00    +0.000 A 
ATOM     16  N   UNL     1      18.712  36.150  46.635  0.00  0.00    +0.000 N 
ATOM     17  C   UNL     1      17.895  37.220  46.915  0.00  0.00    +0.000 A 
ATOM     18  C   UNL     1      17.420  37.695  48.143  0.00  0.00    +0.000 A 
ATOM     19  C   UNL     1      16.588  38.819  48.125  0.00  0.00    +0.000 A 
ATOM     20  C   UNL     1      16.246  39.438  46.926  0.00  0.00    +0.000 A 
ATOM     21  C   UNL     1      16.730  38.950  45.707  0.00  0.00    +0.000 A 
ATOM     22  C   UNL     1      17.572  37.818  45.697  0.00  0.00    +0.000 A 
ATOM     23  H   UNL     1      19.095  35.526  47.330  0.00  0.00    +0.000 HD
ENDBRANCH  13  14
ENDBRANCH  12  13
ENDBRANCH   7  12
BRANCH  11  24
ATOM     24  C   UNL     1      15.012  44.151  43.539  0.00  0.00    +0.000 C 
BRANCH  24  25
ATOM     25  C   UNL     1      14.713  44.030  45.041  0.00  0.00    +0.000 C 
BRANCH  25  26
ATOM     26  C   UNL     1      13.800  45.103  45.581  0.00  0.00    +0.000 A 
ATOM     27  C   UNL     1      12.641  44.756  46.289  0.00  0.00    +0.000 A 
ATOM     28  C   UNL     1      11.803  45.745  46.804  0.00  0.00    +0.000 A 
ATOM     29  C   UNL     1      12.112  47.090  46.614  0.00  0.00    +0.000 A 
ATOM     30  C   UNL     1      13.258  47.448  45.906  0.00  0.00    +0.000 A 
ATOM     31  C   UNL     1      14.098  46.459  45.390  0.00  0.00    +0.000 A 
ENDBRANCH  25  26
ENDBRANCH  24  25
ENDBRANCH  11  24
TORSDOF 6
ENDMDL
