MODEL 1
REMARK VINA RESULT:    -6.754      0.000      0.000
REMARK INTER + INTRA:          -7.281
REMARK INTER:                  -7.346
REMARK INTRA:                   0.065
REMARK UNBOUND:                 0.065
REMARK  Name = 
REMARK  9 active torsions:
REMARK  status: ('A' for Active; 'I' for Inactive)
REMARK    1  A    between atoms: C_1  and  C_2
REMARK    2  A    between atoms: C_5  and  C_6
REMARK    3  A    between atoms: C_6  and  O_8
REMARK    4  A    between atoms: C_11  and  C_12
REMARK    5  A    between atoms: C_18  and  C_19
REMARK    6  A    between atoms: C_24  and  C_25
REMARK    7  A    between atoms: C_24  and  C_26
REMARK    8  A    between atoms: C_30  and  C_31
REMARK    9  A    between atoms: C_33  and  C_34
REMARK                            x       y       z     vdW  Elec       q    Type
REMARK                         _______ _______ _______ _____ _____    ______ ____
ROOT
ATOM      1  C   UNL     1      12.883  49.166  45.930  0.00  0.00    +0.000 C 
ATOM      2  C   UNL     1      12.469  47.693  45.810  0.00  0.00    +0.000 C 
ATOM      3  C   UNL     1      11.331  47.410  46.809  0.00  0.00    +0.000 C 
ATOM      4  C   UNL     1      11.094  45.932  47.139  0.00  0.00    +0.000 C 
ATOM      5  C   UNL     1      11.656  44.961  46.077  0.00  0.00    +0.000 C 
ATOM      6  C   UNL     1      11.349  43.478  46.466  0.00  0.00    +0.000 C 
ATOM      7  C   UNL     1      12.575  42.621  46.833  0.00  0.00    +0.000 C 
ATOM      8  C   UNL     1      13.806  42.694  45.855  0.00  0.00    +0.000 C 
ATOM      9  C   UNL     1      15.072  42.627  46.765  0.00  0.00    +0.000 C 
ATOM     10  C   UNL     1      13.829  44.078  45.172  0.00  0.00    +0.000 C 
ATOM     11  C   UNL     1      14.265  44.241  43.913  0.00  0.00    +0.000 C 
ATOM     12  C   UNL     1      14.803  43.139  43.081  0.00  0.00    +0.000 C 
ATOM     13  O   UNL     1      15.120  43.406  41.924  0.00  0.00    +0.000 OA
ATOM     14  C   UNL     1      14.986  41.762  43.729  0.00  0.00    +0.000 C 
ATOM     15  C   UNL     1      15.339  40.582  42.728  0.00  0.00    +0.000 C 
ATOM     16  C   UNL     1      14.302  40.434  41.591  0.00  0.00    +0.000 C 
ATOM     17  C   UNL     1      16.683  40.841  42.047  0.00  0.00    +0.000 C 
ATOM     18  C   UNL     1      17.597  39.906  41.756  0.00  0.00    +0.000 C 
ATOM     19  C   UNL     1      17.386  38.473  42.062  0.00  0.00    +0.000 C 
ATOM     20  O   UNL     1      18.225  37.668  41.656  0.00  0.00    +0.000 OA
ATOM     21  C   UNL     1      16.128  38.043  42.832  0.00  0.00    +0.000 C 
ATOM     22  C   UNL     1      15.174  37.360  41.843  0.00  0.00    +0.000 C 
ATOM     23  C   UNL     1      16.583  36.974  43.858  0.00  0.00    +0.000 C 
ATOM     24  C   UNL     1      15.529  39.278  43.588  0.00  0.00    +0.000 C 
ATOM     25  C   UNL     1      14.272  38.975  44.423  0.00  0.00    +0.000 C 
ATOM     26  C   UNL     1      13.999  40.112  45.410  0.00  0.00    +0.000 C 
ATOM     27  C   UNL     1      13.805  41.507  44.749  0.00  0.00    +0.000 C 
ATOM     28  C   UNL     1      12.429  41.475  44.027  0.00  0.00    +0.000 C 
ATOM     29  C   UNL     1      13.195  45.195  46.012  0.00  0.00    +0.000 C 
ATOM     30  C   UNL     1      13.646  46.707  46.000  0.00  0.00    +0.000 C 
ATOM     31  C   UNL     1      14.866  47.045  45.138  0.00  0.00    +0.000 C 
ENDROOT
BRANCH   5  32
ATOM     32  C   UNL     1      10.856  45.215  44.792  0.00  0.00    +0.000 C 
ATOM     33  O   UNL     1      11.341  45.522  43.712  0.00  0.00    +0.000 OA
BRANCH  32  34
ATOM     34  O   UNL     1       9.525  45.103  44.897  0.00  0.00    +0.000 OA
ATOM     35  H   UNL     1       9.349  44.160  44.694  0.00  0.00    +0.000 HD
ENDBRANCH  32  34
ENDBRANCH   5  32
TORSDOF 2
ENDMDL
MODEL 2
REMARK VINA RESULT:    -6.357      8.856     11.743
REMARK INTER + INTRA:          -6.849
REMARK INTER:                  -6.914
REMARK INTRA:                   0.065
REMARK UNBOUND:                 0.065
REMARK  Name = 
REMARK  9 active torsions:
REMARK  status: ('A' for Active; 'I' for Inactive)
REMARK    1  A    between atoms: C_1  and  C_2
REMARK    2  A    between atoms: C_5  and  C_6
REMARK    3  A    between atoms: C_6  and  O_8
REMARK    4  A    between atoms: C_11  and  C_12
REMARK    5  A    between atoms: C_18  and  C_19
REMARK    6  A    between atoms: C_24  and  C_25
REMARK    7  A    between atoms: C_24  and  C_26
REMARK    8  A    between atoms: C_30  and  C_31
REMARK    9  A    between atoms: C_33  and  C_34
REMARK                            x       y       z     vdW  Elec       q    Type
REMARK                         _______ _______ _______ _____ _____    ______ ____
ROOT
ATOM      1  C   UNL     1      16.845  36.815  46.391  0.00  0.00    +0.000 C 
ATOM      2  C   UNL     1      16.197  37.585  47.550  0.00  0.00    +0.000 C 
ATOM      3  C   UNL     1      15.492  38.834  46.989  0.00  0.00    +0.000 C 
ATOM      4  C   UNL     1      15.176  39.930  48.014  0.00  0.00    +0.000 C 
ATOM      5  C   UNL     1      15.140  39.423  49.472  0.00  0.00    +0.000 C 
ATOM      6  C   UNL     1      14.781  40.587  50.453  0.00  0.00    +0.000 C 
ATOM      7  C   UNL     1      15.909  41.023  51.407  0.00  0.00    +0.000 C 
ATOM      8  C   UNL     1      16.676  39.877  52.165  0.00  0.00    +0.000 C 
ATOM      9  C   UNL     1      18.166  40.336  52.230  0.00  0.00    +0.000 C 
ATOM     10  C   UNL     1      16.649  38.595  51.305  0.00  0.00    +0.000 C 
ATOM     11  C   UNL     1      16.597  37.372  51.855  0.00  0.00    +0.000 C 
ATOM     12  C   UNL     1      16.607  37.128  53.317  0.00  0.00    +0.000 C 
ATOM     13  O   UNL     1      16.500  35.964  53.697  0.00  0.00    +0.000 OA
ATOM     14  C   UNL     1      16.809  38.326  54.252  0.00  0.00    +0.000 C 
ATOM     15  C   UNL     1      16.575  38.030  55.794  0.00  0.00    +0.000 C 
ATOM     16  C   UNL     1      15.175  37.439  56.081  0.00  0.00    +0.000 C 
ATOM     17  C   UNL     1      17.584  37.001  56.303  0.00  0.00    +0.000 C 
ATOM     18  C   UNL     1      18.167  37.018  57.508  0.00  0.00    +0.000 C 
ATOM     19  C   UNL     1      17.872  38.064  58.513  0.00  0.00    +0.000 C 
ATOM     20  O   UNL     1      18.362  37.939  59.636  0.00  0.00    +0.000 OA
ATOM     21  C   UNL     1      16.949  39.233  58.138  0.00  0.00    +0.000 C 
ATOM     22  C   UNL     1      15.600  39.019  58.837  0.00  0.00    +0.000 C 
ATOM     23  C   UNL     1      17.588  40.511  58.737  0.00  0.00    +0.000 C 
ATOM     24  C   UNL     1      16.874  39.361  56.577  0.00  0.00    +0.000 C 
ATOM     25  C   UNL     1      15.996  40.517  56.067  0.00  0.00    +0.000 C 
ATOM     26  C   UNL     1      16.292  40.802  54.593  0.00  0.00    +0.000 C 
ATOM     27  C   UNL     1      16.077  39.588  53.645  0.00  0.00    +0.000 C 
ATOM     28  C   UNL     1      14.542  39.361  53.546  0.00  0.00    +0.000 C 
ATOM     29  C   UNL     1      16.558  38.862  49.796  0.00  0.00    +0.000 C 
ATOM     30  C   UNL     1      17.195  37.954  48.673  0.00  0.00    +0.000 C 
ATOM     31  C   UNL     1      18.035  36.768  49.154  0.00  0.00    +0.000 C 
ENDROOT
BRANCH   5  32
ATOM     32  C   UNL     1      13.964  38.443  49.563  0.00  0.00    +0.000 C 
ATOM     33  O   UNL     1      14.046  37.277  49.924  0.00  0.00    +0.000 OA
BRANCH  32  34
ATOM     34  O   UNL     1      12.769  38.923  49.192  0.00  0.00    +0.000 OA
ATOM     35  H   UNL     1      12.459  38.289  48.510  0.00  0.00    +0.000 HD
ENDBRANCH  32  34
ENDBRANCH   5  32
TORSDOF 2
ENDMDL
MODEL 3
REMARK VINA RESULT:    -6.297      9.647     13.353
REMARK INTER + INTRA:          -6.784
REMARK INTER:                  -6.849
REMARK INTRA:                   0.065
REMARK UNBOUND:                 0.065
REMARK  Name = 
REMARK  9 active torsions:
REMARK  status: ('A' for Active; 'I' for Inactive)
REMARK    1  A    between atoms: C_1  and  C_2
REMARK    2  A    between atoms: C_5  and  C_6
REMARK    3  A    between atoms: C_6  and  O_8
REMARK    4  A    between atoms: C_11  and  C_12
REMARK    5  A    between atoms: C_18  and  C_19
REMARK    6  A    between atoms: C_24  and  C_25
REMARK    7  A    between atoms: C_24  and  C_26
REMARK    8  A    between atoms: C_30  and  C_31
REMARK    9  A    between atoms: C_33  and  C_34
REMARK                            x       y       z     vdW  Elec       q    Type
REMARK                         _______ _______ _______ _____ _____    ______ ____
ROOT
ATOM      1  C   UNL     1      21.374  34.566  48.792  0.00  0.00    +0.000 C 
ATOM      2  C   UNL     1      20.040  35.133  49.296  0.00  0.00    +0.000 C 
ATOM      3  C   UNL     1      19.219  35.624  48.088  0.00  0.00    +0.000 C 
ATOM      4  C   UNL     1      18.080  36.598  48.416  0.00  0.00    +0.000 C 
ATOM      5  C   UNL     1      17.618  36.537  49.888  0.00  0.00    +0.000 C 
ATOM      6  C   UNL     1      16.437  37.532  50.138  0.00  0.00    +0.000 C 
ATOM      7  C   UNL     1      16.759  38.727  51.056  0.00  0.00    +0.000 C 
ATOM      8  C   UNL     1      17.503  38.401  52.404  0.00  0.00    +0.000 C 
ATOM      9  C   UNL     1      18.495  39.584  52.635  0.00  0.00    +0.000 C 
ATOM     10  C   UNL     1      18.366  37.136  52.213  0.00  0.00    +0.000 C 
ATOM     11  C   UNL     1      18.571  36.258  53.209  0.00  0.00    +0.000 C 
ATOM     12  C   UNL     1      18.039  36.435  54.581  0.00  0.00    +0.000 C 
ATOM     13  O   UNL     1      18.250  35.535  55.389  0.00  0.00    +0.000 OA
ATOM     14  C   UNL     1      17.318  37.746  54.917  0.00  0.00    +0.000 C 
ATOM     15  C   UNL     1      16.574  37.771  56.319  0.00  0.00    +0.000 C 
ATOM     16  C   UNL     1      15.554  36.619  56.473  0.00  0.00    +0.000 C 
ATOM     17  C   UNL     1      17.577  37.606  57.462  0.00  0.00    +0.000 C 
ATOM     18  C   UNL     1      17.515  38.235  58.642  0.00  0.00    +0.000 C 
ATOM     19  C   UNL     1      16.423  39.175  58.981  0.00  0.00    +0.000 C 
ATOM     20  O   UNL     1      16.379  39.619  60.129  0.00  0.00    +0.000 OA
ATOM     21  C   UNL     1      15.376  39.531  57.914  0.00  0.00    +0.000 C 
ATOM     22  C   UNL     1      14.067  38.815  58.272  0.00  0.00    +0.000 C 
ATOM     23  C   UNL     1      15.123  41.056  58.035  0.00  0.00    +0.000 C 
ATOM     24  C   UNL     1      15.945  39.202  56.491  0.00  0.00    +0.000 C 
ATOM     25  C   UNL     1      14.999  39.538  55.325  0.00  0.00    +0.000 C 
ATOM     26  C   UNL     1      15.767  39.555  54.002  0.00  0.00    +0.000 C 
ATOM     27  C   UNL     1      16.490  38.221  53.658  0.00  0.00    +0.000 C 
ATOM     28  C   UNL     1      15.384  37.194  53.285  0.00  0.00    +0.000 C 
ATOM     29  C   UNL     1      18.844  36.922  50.770  0.00  0.00    +0.000 C 
ATOM     30  C   UNL     1      20.209  36.247  50.356  0.00  0.00    +0.000 C 
ATOM     31  C   UNL     1      21.149  35.859  51.500  0.00  0.00    +0.000 C 
ENDROOT
BRANCH   5  32
ATOM     32  C   UNL     1      17.018  35.141  50.098  0.00  0.00    +0.000 C 
ATOM     33  O   UNL     1      17.394  34.333  50.936  0.00  0.00    +0.000 OA
BRANCH  32  34
ATOM     34  O   UNL     1      16.021  34.799  49.271  0.00  0.00    +0.000 OA
ATOM     35  H   UNL     1      16.458  34.258  48.581  0.00  0.00    +0.000 HD
ENDBRANCH  32  34
ENDBRANCH   5  32
TORSDOF 2
ENDMDL
