MODEL 1
REMARK VINA RESULT:    -6.611      0.000      0.000
REMARK INTER + INTRA:          -8.379
REMARK INTER:                  -8.088
REMARK INTRA:                  -0.291
REMARK UNBOUND:                -0.609
REMARK  Name = 
REMARK  4 active torsions:
REMARK  status: ('A' for Active; 'I' for Inactive)
REMARK    1  A    between atoms: C_1  and  C_2
REMARK    2  A    between atoms: C_7  and  N_8
REMARK    3  A    between atoms: N_17  and  C_18
REMARK    4  A    between atoms: C_25  and  C_26
REMARK                            x       y       z     vdW  Elec       q    Type
REMARK                         _______ _______ _______ _____ _____    ______ ____
ROOT
ATOM      1  N   UNL     1      20.320  34.643  53.512  0.00  0.00    +0.000 N 
ATOM      2  C   UNL     1      20.222  35.414  52.376  0.00  0.00    +0.000 C 
ATOM      3  O   UNL     1      21.175  35.782  51.693  0.00  0.00    +0.000 OA
ATOM      4  N   UNL     1      18.919  35.743  52.018  0.00  0.00    +0.000 N 
ATOM      5  C   UNL     1      17.713  35.544  52.838  0.00  0.00    +0.000 C 
ATOM      6  C   UNL     1      16.714  36.720  52.759  0.00  0.00    +0.000 C 
ATOM      7  N   UNL     1      16.560  37.315  51.421  0.00  0.00    +0.000 N 
ATOM      8  C   UNL     1      16.646  38.723  51.379  0.00  0.00    +0.000 C 
ATOM      9  O   UNL     1      17.433  39.325  50.661  0.00  0.00    +0.000 OA
ATOM     10  N   UNL     1      15.724  39.304  52.232  0.00  0.00    +0.000 N 
ATOM     11  C   UNL     1      17.234  36.554  50.348  0.00  0.00    +0.000 C 
ATOM     12  C   UNL     1      18.729  36.386  50.699  0.00  0.00    +0.000 C 
ATOM     13  H   UNL     1      19.516  34.070  53.698  0.00  0.00    +0.000 HD
ATOM     14  H   UNL     1      14.984  38.684  52.523  0.00  0.00    +0.000 HD
ENDROOT
BRANCH   1  21
ATOM     15  C   UNL     1      20.320  35.013  56.396  0.00  0.00    +0.000 C 
ATOM     16  C   UNL     1      21.513  34.505  55.633  0.00  0.00    +0.000 A 
ATOM     17  C   UNL     1      22.684  34.203  56.353  0.00  0.00    +0.000 A 
ATOM     18  C   UNL     1      23.822  33.730  55.702  0.00  0.00    +0.000 A 
ATOM     19  C   UNL     1      23.805  33.558  54.324  0.00  0.00    +0.000 A 
ATOM     20  C   UNL     1      22.651  33.852  53.595  0.00  0.00    +0.000 A 
ATOM     21  C   UNL     1      21.493  34.317  54.233  0.00  0.00    +0.000 A 
ENDBRANCH   1  21
BRANCH  10  22
ATOM     22  C   UNL     1      15.573  40.669  52.538  0.00  0.00    +0.000 A 
ATOM     23  C   UNL     1      14.268  41.148  52.716  0.00  0.00    +0.000 A 
ATOM     24  C   UNL     1      14.038  42.489  53.035  0.00  0.00    +0.000 A 
ATOM     25  C   UNL     1      15.115  43.359  53.182  0.00  0.00    +0.000 A 
ATOM     26 CL   UNL     1      14.834  45.010  53.575  0.00  0.00    +0.000 Cl
ATOM     27  C   UNL     1      16.416  42.896  53.014  0.00  0.00    +0.000 A 
ATOM     28  C   UNL     1      16.645  41.552  52.695  0.00  0.00    +0.000 A 
ENDBRANCH  10  22
BRANCH  11  29
ATOM     29  C   UNL     1      16.875  37.004  48.939  0.00  0.00    +0.000 A 
ATOM     30  C   UNL     1      17.909  37.258  48.020  0.00  0.00    +0.000 A 
ATOM     31  C   UNL     1      17.627  37.688  46.722  0.00  0.00    +0.000 A 
ATOM     32  C   UNL     1      16.306  37.867  46.319  0.00  0.00    +0.000 A 
ATOM     33  C   UNL     1      15.270  37.611  47.214  0.00  0.00    +0.000 A 
ATOM     34  C   UNL     1      15.550  37.182  48.513  0.00  0.00    +0.000 A 
ENDBRANCH  11  29
TORSDOF 3
ENDMDL
MODEL 2
REMARK VINA RESULT:    -6.352      3.462      6.668
REMARK INTER + INTRA:          -8.074
REMARK INTER:                  -7.373
REMARK INTRA:                  -0.701
REMARK UNBOUND:                -0.609
REMARK  Name = 
REMARK  4 active torsions:
REMARK  status: ('A' for Active; 'I' for Inactive)
REMARK    1  A    between atoms: C_1  and  C_2
REMARK    2  A    between atoms: C_7  and  N_8
REMARK    3  A    between atoms: N_17  and  C_18
REMARK    4  A    between atoms: C_25  and  C_26
REMARK                            x       y       z     vdW  Elec       q    Type
REMARK                         _______ _______ _______ _____ _____    ______ ____
ROOT
ATOM      1  N   UNL     1      18.701  37.697  51.412  0.00  0.00    +0.000 N 
ATOM      2  C   UNL     1      17.842  37.579  52.482  0.00  0.00    +0.000 C 
ATOM      3  O   UNL     1      17.299  36.536  52.834  0.00  0.00    +0.000 OA
ATOM      4  N   UNL     1      17.642  38.761  53.188  0.00  0.00    +0.000 N 
ATOM      5  C   UNL     1      18.063  40.109  52.770  0.00  0.00    +0.000 C 
ATOM      6  C   UNL     1      17.015  41.202  53.072  0.00  0.00    +0.000 C 
ATOM      7  N   UNL     1      16.319  41.056  54.362  0.00  0.00    +0.000 N 
ATOM      8  C   UNL     1      14.914  41.165  54.299  0.00  0.00    +0.000 C 
ATOM      9  O   UNL     1      14.155  40.301  54.720  0.00  0.00    +0.000 OA
ATOM     10  N   UNL     1      14.533  42.364  53.723  0.00  0.00    +0.000 N 
ATOM     11  C   UNL     1      16.888  40.003  55.230  0.00  0.00    +0.000 C 
ATOM     12  C   UNL     1      16.905  38.661  54.466  0.00  0.00    +0.000 C 
ATOM     13  H   UNL     1      19.382  38.430  51.502  0.00  0.00    +0.000 HD
ATOM     14  H   UNL     1      15.263  43.059  53.696  0.00  0.00    +0.000 HD
ENDROOT
BRANCH   1  21
ATOM     15  C   UNL     1      21.255  36.309  51.412  0.00  0.00    +0.000 C 
ATOM     16  C   UNL     1      20.191  36.070  50.376  0.00  0.00    +0.000 A 
ATOM     17  C   UNL     1      20.450  35.134  49.358  0.00  0.00    +0.000 A 
ATOM     18  C   UNL     1      19.504  34.870  48.370  0.00  0.00    +0.000 A 
ATOM     19  C   UNL     1      18.288  35.542  48.385  0.00  0.00    +0.000 A 
ATOM     20  C   UNL     1      18.014  36.473  49.389  0.00  0.00    +0.000 A 
ATOM     21  C   UNL     1      18.948  36.742  50.398  0.00  0.00    +0.000 A 
ENDBRANCH   1  21
BRANCH  10  22
ATOM     22  C   UNL     1      13.231  42.790  53.399  0.00  0.00    +0.000 A 
ATOM     23  C   UNL     1      12.793  43.999  53.956  0.00  0.00    +0.000 A 
ATOM     24  C   UNL     1      11.517  44.494  53.671  0.00  0.00    +0.000 A 
ATOM     25  C   UNL     1      10.673  43.783  52.823  0.00  0.00    +0.000 A 
ATOM     26 CL   UNL     1       9.104  44.391  52.470  0.00  0.00    +0.000 Cl
ATOM     27  C   UNL     1      11.098  42.585  52.258  0.00  0.00    +0.000 A 
ATOM     28  C   UNL     1      12.375  42.090  52.544  0.00  0.00    +0.000 A 
ENDBRANCH  10  22
BRANCH  11  29
ATOM     29  C   UNL     1      16.353  40.010  56.656  0.00  0.00    +0.000 A 
ATOM     30  C   UNL     1      15.871  38.810  57.210  0.00  0.00    +0.000 A 
ATOM     31  C   UNL     1      15.357  38.772  58.507  0.00  0.00    +0.000 A 
ATOM     32  C   UNL     1      15.320  39.932  59.275  0.00  0.00    +0.000 A 
ATOM     33  C   UNL     1      15.801  41.128  58.746  0.00  0.00    +0.000 A 
ATOM     34  C   UNL     1      16.315  41.168  57.447  0.00  0.00    +0.000 A 
ENDBRANCH  11  29
TORSDOF 3
ENDMDL
MODEL 3
REMARK VINA RESULT:    -6.194      8.170     11.737
REMARK INTER + INTRA:          -7.889
REMARK INTER:                  -7.281
REMARK INTRA:                  -0.609
REMARK UNBOUND:                -0.609
REMARK  Name = 
REMARK  4 active torsions:
REMARK  status: ('A' for Active; 'I' for Inactive)
REMARK    1  A    between atoms: C_1  and  C_2
REMARK    2  A    between atoms: C_7  and  N_8
REMARK    3  A    between atoms: N_17  and  C_18
REMARK    4  A    between atoms: C_25  and  C_26
REMARK                            x       y       z     vdW  Elec       q    Type
REMARK                         _______ _______ _______ _____ _____    ______ ____
ROOT
ATOM      1  N   UNL     1      16.456  39.882  45.160  0.00  0.00    +0.000 N 
ATOM      2  C   UNL     1      15.322  40.609  45.451  0.00  0.00    +0.000 C 
ATOM      3  O   UNL     1      14.356  40.181  46.075  0.00  0.00    +0.000 OA
ATOM      4  N   UNL     1      15.354  41.924  44.997  0.00  0.00    +0.000 N 
ATOM      5  C   UNL     1      16.345  42.505  44.077  0.00  0.00    +0.000 C 
ATOM      6  C   UNL     1      15.728  43.466  43.036  0.00  0.00    +0.000 C 
ATOM      7  N   UNL     1      14.658  44.336  43.551  0.00  0.00    +0.000 N 
ATOM      8  C   UNL     1      13.486  44.371  42.766  0.00  0.00    +0.000 C 
ATOM      9  O   UNL     1      12.374  44.116  43.210  0.00  0.00    +0.000 OA
ATOM     10  N   UNL     1      13.770  44.742  41.464  0.00  0.00    +0.000 N 
ATOM     11  C   UNL     1      14.499  44.280  45.020  0.00  0.00    +0.000 C 
ATOM     12  C   UNL     1      14.267  42.816  45.456  0.00  0.00    +0.000 C 
ATOM     13  H   UNL     1      17.291  40.432  45.063  0.00  0.00    +0.000 HD
ATOM     14  H   UNL     1      14.671  45.179  41.347  0.00  0.00    +0.000 HD
ENDROOT
BRANCH   1  21
ATOM     15  C   UNL     1      17.206  38.858  47.775  0.00  0.00    +0.000 C 
ATOM     16  C   UNL     1      17.024  37.977  46.570  0.00  0.00    +0.000 A 
ATOM     17  C   UNL     1      17.235  36.593  46.718  0.00  0.00    +0.000 A 
ATOM     18  C   UNL     1      17.083  35.726  45.638  0.00  0.00    +0.000 A 
ATOM     19  C   UNL     1      16.724  36.232  44.395  0.00  0.00    +0.000 A 
ATOM     20  C   UNL     1      16.510  37.602  44.231  0.00  0.00    +0.000 A 
ATOM     21  C   UNL     1      16.646  38.488  45.308  0.00  0.00    +0.000 A 
ENDBRANCH   1  21
BRANCH  10  22
ATOM     22  C   UNL     1      12.886  44.793  40.369  0.00  0.00    +0.000 A 
ATOM     23  C   UNL     1      13.121  43.903  39.313  0.00  0.00    +0.000 A 
ATOM     24  C   UNL     1      12.279  43.884  38.197  0.00  0.00    +0.000 A 
ATOM     25  C   UNL     1      11.194  44.754  38.135  0.00  0.00    +0.000 A 
ATOM     26 CL   UNL     1      10.156  44.731  36.764  0.00  0.00    +0.000 Cl
ATOM     27  C   UNL     1      10.946  45.638  39.181  0.00  0.00    +0.000 A 
ATOM     28  C   UNL     1      11.789  45.655  40.297  0.00  0.00    +0.000 A 
ENDBRANCH  10  22
BRANCH  11  29
ATOM     29  C   UNL     1      13.583  45.352  45.593  0.00  0.00    +0.000 A 
ATOM     30  C   UNL     1      13.891  46.706  45.365  0.00  0.00    +0.000 A 
ATOM     31  C   UNL     1      13.089  47.723  45.885  0.00  0.00    +0.000 A 
ATOM     32  C   UNL     1      11.962  47.405  46.638  0.00  0.00    +0.000 A 
ATOM     33  C   UNL     1      11.638  46.069  46.866  0.00  0.00    +0.000 A 
ATOM     34  C   UNL     1      12.440  45.050  46.347  0.00  0.00    +0.000 A 
ENDBRANCH  11  29
TORSDOF 3
ENDMDL
