MODEL 1
REMARK VINA RESULT:    -7.403      0.000      0.000
REMARK INTER + INTRA:         -10.164
REMARK INTER:                  -9.365
REMARK INTRA:                  -0.799
REMARK UNBOUND:                -0.597
REMARK  Name = 
REMARK  5 active torsions:
REMARK  status: ('A' for Active; 'I' for Inactive)
REMARK    1  A    between atoms: C_4  and  C_5
REMARK    2  A    between atoms: C_5  and  C_6
REMARK    3  A    between atoms: C_6  and  O_7
REMARK    4  A    between atoms: O_7  and  C_8
REMARK    5  A    between atoms: C_11  and  C_12
REMARK                            x       y       z     vdW  Elec       q    Type
REMARK                         _______ _______ _______ _____ _____    ______ ____
ROOT
ATOM      1  C   UNL     1      15.864  39.296  50.175  0.00  0.00    +0.000 A 
ATOM      2  N   UNL     1      15.621  40.277  50.991  0.00  0.00    +0.000 NA
ATOM      3  N   UNL     1      16.510  40.377  52.033  0.00  0.00    +0.000 N 
ATOM      4  C   UNL     1      16.533  41.300  53.065  0.00  0.00    +0.000 A 
ATOM      5  N   UNL     1      17.525  40.979  53.885  0.00  0.00    +0.000 NA
ATOM      6  N   UNL     1      18.186  39.883  53.381  0.00  0.00    +0.000 NA
ATOM      7  C   UNL     1      17.573  39.535  52.274  0.00  0.00    +0.000 A 
ATOM      8  C   UNL     1      17.846  38.455  51.351  0.00  0.00    +0.000 A 
ATOM      9  C   UNL     1      18.918  37.574  51.514  0.00  0.00    +0.000 A 
ATOM     10  C   UNL     1      19.123  36.556  50.582  0.00  0.00    +0.000 A 
ATOM     11  C   UNL     1      18.261  36.416  49.492  0.00  0.00    +0.000 A 
ATOM     12  C   UNL     1      17.187  37.294  49.325  0.00  0.00    +0.000 A 
ATOM     13  C   UNL     1      16.979  38.315  50.258  0.00  0.00    +0.000 A 
ENDROOT
BRANCH   4  14
ATOM     14  C   UNL     1      15.608  42.422  53.250  0.00  0.00    +0.000 A 
ATOM     15  C   UNL     1      16.005  43.758  53.106  0.00  0.00    +0.000 A 
ATOM     16  C   UNL     1      15.095  44.801  53.307  0.00  0.00    +0.000 A 
ATOM     17  C   UNL     1      13.777  44.522  53.660  0.00  0.00    +0.000 A 
ATOM     18  C   UNL     1      13.370  43.201  53.820  0.00  0.00    +0.000 A 
ATOM     19  C   UNL     1      14.280  42.158  53.621  0.00  0.00    +0.000 A 
ENDBRANCH   4  14
BRANCH   1  20
ATOM     20  O   UNL     1      15.086  39.042  49.094  0.00  0.00    +0.000 OA
BRANCH  20  21
ATOM     21  C   UNL     1      14.854  40.117  48.159  0.00  0.00    +0.000 C 
BRANCH  21  22
ATOM     22  C   UNL     1      15.578  39.853  46.839  0.00  0.00    +0.000 C 
BRANCH  22  26
ATOM     23  C   UNL     1      15.414  43.233  44.167  0.00  0.00    +0.000 A 
ATOM     24  C   UNL     1      15.998  42.039  43.747  0.00  0.00    +0.000 A 
ATOM     25  C   UNL     1      16.049  40.945  44.612  0.00  0.00    +0.000 A 
ATOM     26  C   UNL     1      15.517  41.034  45.906  0.00  0.00    +0.000 A 
ATOM     27  C   UNL     1      14.934  42.239  46.318  0.00  0.00    +0.000 A 
ATOM     28  C   UNL     1      14.882  43.332  45.452  0.00  0.00    +0.000 A 
ENDBRANCH  22  26
ENDBRANCH  21  22
ENDBRANCH  20  21
ENDBRANCH   1  20
TORSDOF 5
ENDMDL
MODEL 2
REMARK VINA RESULT:    -7.090      4.731      9.310
REMARK INTER + INTRA:          -9.760
REMARK INTER:                  -8.383
REMARK INTRA:                  -1.377
REMARK UNBOUND:                -0.597
REMARK  Name = 
REMARK  5 active torsions:
REMARK  status: ('A' for Active; 'I' for Inactive)
REMARK    1  A    between atoms: C_4  and  C_5
REMARK    2  A    between atoms: C_5  and  C_6
REMARK    3  A    between atoms: C_6  and  O_7
REMARK    4  A    between atoms: O_7  and  C_8
REMARK    5  A    between atoms: C_11  and  C_12
REMARK                            x       y       z     vdW  Elec       q    Type
REMARK                         _______ _______ _______ _____ _____    ______ ____
ROOT
ATOM      1  C   UNL     1      17.178  36.833  55.493  0.00  0.00    +0.000 A 
ATOM      2  N   UNL     1      17.578  36.878  54.258  0.00  0.00    +0.000 NA
ATOM      3  N   UNL     1      17.745  38.148  53.765  0.00  0.00    +0.000 N 
ATOM      4  C   UNL     1      18.157  38.538  52.502  0.00  0.00    +0.000 A 
ATOM      5  N   UNL     1      18.111  39.863  52.443  0.00  0.00    +0.000 NA
ATOM      6  N   UNL     1      17.719  40.352  53.666  0.00  0.00    +0.000 NA
ATOM      7  C   UNL     1      17.507  39.320  54.449  0.00  0.00    +0.000 A 
ATOM      8  C   UNL     1      17.078  39.261  55.829  0.00  0.00    +0.000 A 
ATOM      9  C   UNL     1      16.840  40.404  56.595  0.00  0.00    +0.000 A 
ATOM     10  C   UNL     1      16.431  40.272  57.923  0.00  0.00    +0.000 A 
ATOM     11  C   UNL     1      16.259  39.005  58.484  0.00  0.00    +0.000 A 
ATOM     12  C   UNL     1      16.496  37.859  57.722  0.00  0.00    +0.000 A 
ATOM     13  C   UNL     1      16.906  37.988  56.391  0.00  0.00    +0.000 A 
ENDROOT
BRANCH   4  14
ATOM     14  C   UNL     1      18.546  37.653  51.401  0.00  0.00    +0.000 A 
ATOM     15  C   UNL     1      17.740  37.455  50.271  0.00  0.00    +0.000 A 
ATOM     16  C   UNL     1      18.139  36.589  49.249  0.00  0.00    +0.000 A 
ATOM     17  C   UNL     1      19.349  35.906  49.344  0.00  0.00    +0.000 A 
ATOM     18  C   UNL     1      20.156  36.081  50.464  0.00  0.00    +0.000 A 
ATOM     19  C   UNL     1      19.755  36.944  51.487  0.00  0.00    +0.000 A 
ENDBRANCH   4  14
BRANCH   1  20
ATOM     20  O   UNL     1      16.954  35.663  56.141  0.00  0.00    +0.000 OA
BRANCH  20  21
ATOM     21  C   UNL     1      17.981  34.652  56.088  0.00  0.00    +0.000 C 
BRANCH  21  22
ATOM     22  C   UNL     1      19.281  35.166  56.706  0.00  0.00    +0.000 C 
BRANCH  22  26
ATOM     23  C   UNL     1      22.751  33.955  54.451  0.00  0.00    +0.000 A 
ATOM     24  C   UNL     1      21.557  34.243  53.793  0.00  0.00    +0.000 A 
ATOM     25  C   UNL     1      20.434  34.637  54.523  0.00  0.00    +0.000 A 
ATOM     26  C   UNL     1      20.496  34.746  55.919  0.00  0.00    +0.000 A 
ATOM     27  C   UNL     1      21.701  34.452  56.571  0.00  0.00    +0.000 A 
ATOM     28  C   UNL     1      22.822  34.060  55.838  0.00  0.00    +0.000 A 
ENDBRANCH  22  26
ENDBRANCH  21  22
ENDBRANCH  20  21
ENDBRANCH   1  20
TORSDOF 5
ENDMDL
MODEL 3
REMARK VINA RESULT:    -7.013      3.532      7.489
REMARK INTER + INTRA:          -9.660
REMARK INTER:                  -9.063
REMARK INTRA:                  -0.597
REMARK UNBOUND:                -0.597
REMARK  Name = 
REMARK  5 active torsions:
REMARK  status: ('A' for Active; 'I' for Inactive)
REMARK    1  A    between atoms: C_4  and  C_5
REMARK    2  A    between atoms: C_5  and  C_6
REMARK    3  A    between atoms: C_6  and  O_7
REMARK    4  A    between atoms: O_7  and  C_8
REMARK    5  A    between atoms: C_11  and  C_12
REMARK                            x       y       z     vdW  Elec       q    Type
REMARK                         _______ _______ _______ _____ _____    ______ ____
ROOT
ATOM      1  C   UNL     1      15.218  41.170  46.259  0.00  0.00    +0.000 A 
ATOM      2  N   UNL     1      14.745  42.371  46.113  0.00  0.00    +0.000 NA
ATOM      3  N   UNL     1      14.918  42.896  44.856  0.00  0.00    +0.000 N 
ATOM      4  C   UNL     1      14.533  44.137  44.378  0.00  0.00    +0.000 A 
ATOM      5  N   UNL     1      14.963  44.249  43.128  0.00  0.00    +0.000 NA
ATOM      6  N   UNL     1      15.585  43.079  42.762  0.00  0.00    +0.000 NA
ATOM      7  C   UNL     1      15.549  42.278  43.800  0.00  0.00    +0.000 A 
ATOM      8  C   UNL     1      16.058  40.934  43.967  0.00  0.00    +0.000 A 
ATOM      9  C   UNL     1      16.688  40.232  42.937  0.00  0.00    +0.000 A 
ATOM     10  C   UNL     1      17.152  38.936  43.168  0.00  0.00    +0.000 A 
ATOM     11  C   UNL     1      16.989  38.343  44.422  0.00  0.00    +0.000 A 
ATOM     12  C   UNL     1      16.360  39.042  45.455  0.00  0.00    +0.000 A 
ATOM     13  C   UNL     1      15.894  40.340  45.226  0.00  0.00    +0.000 A 
ENDROOT
BRANCH   4  14
ATOM     14  C   UNL     1      13.807  45.171  45.121  0.00  0.00    +0.000 A 
ATOM     15  C   UNL     1      12.673  44.888  45.895  0.00  0.00    +0.000 A 
ATOM     16  C   UNL     1      11.999  45.905  46.577  0.00  0.00    +0.000 A 
ATOM     17  C   UNL     1      12.447  47.221  46.491  0.00  0.00    +0.000 A 
ATOM     18  C   UNL     1      13.564  47.522  45.717  0.00  0.00    +0.000 A 
ATOM     19  C   UNL     1      14.236  46.505  45.033  0.00  0.00    +0.000 A 
ENDBRANCH   4  14
BRANCH   1  20
ATOM     20  O   UNL     1      15.142  40.498  47.434  0.00  0.00    +0.000 OA
BRANCH  20  21
ATOM     21  C   UNL     1      14.251  41.007  48.450  0.00  0.00    +0.000 C 
BRANCH  21  22
ATOM     22  C   UNL     1      14.192  40.056  49.645  0.00  0.00    +0.000 C 
BRANCH  22  26
ATOM     23  C   UNL     1      17.719  40.291  52.113  0.00  0.00    +0.000 A 
ATOM     24  C   UNL     1      17.555  39.225  51.231  0.00  0.00    +0.000 A 
ATOM     25  C   UNL     1      16.414  39.150  50.431  0.00  0.00    +0.000 A 
ATOM     26  C   UNL     1      15.425  40.141  50.506  0.00  0.00    +0.000 A 
ATOM     27  C   UNL     1      15.601  41.208  51.397  0.00  0.00    +0.000 A 
ATOM     28  C   UNL     1      16.743  41.281  52.196  0.00  0.00    +0.000 A 
ENDBRANCH  22  26
ENDBRANCH  21  22
ENDBRANCH  20  21
ENDBRANCH   1  20
TORSDOF 5
ENDMDL
