MODEL 1
REMARK VINA RESULT:    -6.413      0.000      0.000
REMARK INTER + INTRA:         -12.041
REMARK INTER:                  -8.879
REMARK INTRA:                  -3.162
REMARK UNBOUND:                -3.004
REMARK  Name = 
REMARK  8 active torsions:
REMARK  status: ('A' for Active; 'I' for Inactive)
REMARK    1  A    between atoms: C_1  and  N_2
REMARK    2  A    between atoms: N_2  and  C_3
REMARK    3  A    between atoms: C_3  and  C_4
REMARK    4  A    between atoms: C_6  and  C_7
REMARK    5  A    between atoms: C_12  and  C_13
REMARK    6  A    between atoms: C_18  and  C_20
REMARK    7  A    between atoms: C_21  and  C_22
REMARK    8  A    between atoms: C_31  and  C_32
REMARK                            x       y       z     vdW  Elec       q    Type
REMARK                         _______ _______ _______ _____ _____    ______ ____
ROOT
ATOM      1  C   UNL     1      12.602  40.674  45.157  0.00  0.00    +0.000 C 
ATOM      2  N   UNL     1      13.333  41.690  45.905  0.00  0.00    +0.000 N 
ATOM      3  C   UNL     1      14.722  41.747  46.014  0.00  0.00    +0.000 C 
ATOM      4  O   UNL     1      15.331  42.650  46.580  0.00  0.00    +0.000 OA
ENDROOT
BRANCH   3   5
ATOM      5  C   UNL     1      15.517  40.634  45.467  0.00  0.00    +0.000 A 
ATOM      6  C   UNL     1      15.854  39.569  46.300  0.00  0.00    +0.000 A 
ATOM      7  N   UNL     1      16.546  38.495  45.837  0.00  0.00    +0.000 NA
ATOM      8  C   UNL     1      16.964  38.480  44.562  0.00  0.00    +0.000 A 
ATOM      9  C   UNL     1      17.691  37.378  44.133  0.00  0.00    +0.000 A 
ATOM     10  C   UNL     1      18.180  37.275  42.830  0.00  0.00    +0.000 A 
ATOM     11  C   UNL     1      17.941  38.300  41.928  0.00  0.00    +0.000 A 
ATOM     12  C   UNL     1      17.211  39.416  42.336  0.00  0.00    +0.000 A 
ATOM     13  C   UNL     1      16.700  39.528  43.654  0.00  0.00    +0.000 A 
ATOM     14  C   UNL     1      15.942  40.640  44.124  0.00  0.00    +0.000 A 
BRANCH  14  15
ATOM     15  C   UNL     1      15.614  41.769  43.232  0.00  0.00    +0.000 A 
ATOM     16  C   UNL     1      14.641  41.636  42.227  0.00  0.00    +0.000 A 
ATOM     17  C   UNL     1      14.353  42.697  41.366  0.00  0.00    +0.000 A 
ATOM     18  C   UNL     1      15.039  43.902  41.493  0.00  0.00    +0.000 A 
ATOM     19  C   UNL     1      16.004  44.052  42.486  0.00  0.00    +0.000 A 
ATOM     20  C   UNL     1      16.287  42.994  43.353  0.00  0.00    +0.000 A 
ENDBRANCH  14  15
BRANCH   6  21
ATOM     21  C   UNL     1      15.492  39.529  47.756  0.00  0.00    +0.000 C 
ATOM     22 BR   UNL     1      16.793  38.460  48.730  0.00  0.00    +0.000 Br
ENDBRANCH   6  21
ENDBRANCH   3   5
BRANCH   2  23
ATOM     23  C   UNL     1      12.568  42.840  46.382  0.00  0.00    +0.000 C 
BRANCH  23  24
ATOM     24  C   UNL     1      12.621  44.012  45.427  0.00  0.00    +0.000 A 
ATOM     25  C   UNL     1      12.022  43.932  44.161  0.00  0.00    +0.000 A 
ATOM     26  C   UNL     1      12.087  45.008  43.260  0.00  0.00    +0.000 A 
ATOM     27  C   UNL     1      12.743  46.185  43.655  0.00  0.00    +0.000 A 
ATOM     28  C   UNL     1      13.355  46.285  44.915  0.00  0.00    +0.000 A 
ATOM     29  C   UNL     1      13.290  45.190  45.789  0.00  0.00    +0.000 A 
BRANCH  26  30
ATOM     30  C   UNL     1      11.429  44.910  41.905  0.00  0.00    +0.000 C 
ATOM     31  F   UNL     1      10.225  45.543  41.848  0.00  0.00    +0.000 F 
ATOM     32  F   UNL     1      11.194  43.621  41.535  0.00  0.00    +0.000 F 
ATOM     33  F   UNL     1      12.183  45.456  40.909  0.00  0.00    +0.000 F 
ENDBRANCH  26  30
BRANCH  28  34
ATOM     34  C   UNL     1      14.047  47.565  45.320  0.00  0.00    +0.000 C 
ATOM     35  F   UNL     1      14.230  48.415  44.269  0.00  0.00    +0.000 F 
ATOM     36  F   UNL     1      13.328  48.267  46.240  0.00  0.00    +0.000 F 
ATOM     37  F   UNL     1      15.279  47.382  45.869  0.00  0.00    +0.000 F 
ENDBRANCH  28  34
ENDBRANCH  23  24
ENDBRANCH   2  23
TORSDOF 7
ENDMDL
MODEL 2
REMARK VINA RESULT:    -6.384      0.124      2.894
REMARK INTER + INTRA:         -12.000
REMARK INTER:                  -8.827
REMARK INTRA:                  -3.174
REMARK UNBOUND:                -3.004
REMARK  Name = 
REMARK  8 active torsions:
REMARK  status: ('A' for Active; 'I' for Inactive)
REMARK    1  A    between atoms: C_1  and  N_2
REMARK    2  A    between atoms: N_2  and  C_3
REMARK    3  A    between atoms: C_3  and  C_4
REMARK    4  A    between atoms: C_6  and  C_7
REMARK    5  A    between atoms: C_12  and  C_13
REMARK    6  A    between atoms: C_18  and  C_20
REMARK    7  A    between atoms: C_21  and  C_22
REMARK    8  A    between atoms: C_31  and  C_32
REMARK                            x       y       z     vdW  Elec       q    Type
REMARK                         _______ _______ _______ _____ _____    ______ ____
ROOT
ATOM      1  C   UNL     1      12.589  40.652  45.350  0.00  0.00    +0.000 C 
ATOM      2  N   UNL     1      13.330  41.699  46.044  0.00  0.00    +0.000 N 
ATOM      3  C   UNL     1      14.720  41.770  46.115  0.00  0.00    +0.000 C 
ATOM      4  O   UNL     1      15.335  42.697  46.634  0.00  0.00    +0.000 OA
ENDROOT
BRANCH   3   5
ATOM      5  C   UNL     1      15.511  40.645  45.586  0.00  0.00    +0.000 A 
ATOM      6  C   UNL     1      15.850  39.596  46.438  0.00  0.00    +0.000 A 
ATOM      7  N   UNL     1      16.538  38.513  45.993  0.00  0.00    +0.000 NA
ATOM      8  C   UNL     1      16.950  38.472  44.716  0.00  0.00    +0.000 A 
ATOM      9  C   UNL     1      17.673  37.361  44.306  0.00  0.00    +0.000 A 
ATOM     10  C   UNL     1      18.156  37.232  43.002  0.00  0.00    +0.000 A 
ATOM     11  C   UNL     1      17.914  38.239  42.082  0.00  0.00    +0.000 A 
ATOM     12  C   UNL     1      17.187  39.365  42.471  0.00  0.00    +0.000 A 
ATOM     13  C   UNL     1      16.683  39.503  43.789  0.00  0.00    +0.000 A 
ATOM     14  C   UNL     1      15.929  40.625  44.241  0.00  0.00    +0.000 A 
BRANCH  14  15
ATOM     15  C   UNL     1      15.599  41.737  43.329  0.00  0.00    +0.000 A 
ATOM     16  C   UNL     1      14.587  41.603  42.364  0.00  0.00    +0.000 A 
ATOM     17  C   UNL     1      14.295  42.646  41.483  0.00  0.00    +0.000 A 
ATOM     18  C   UNL     1      15.018  43.836  41.550  0.00  0.00    +0.000 A 
ATOM     19  C   UNL     1      16.022  43.986  42.504  0.00  0.00    +0.000 A 
ATOM     20  C   UNL     1      16.308  42.946  43.390  0.00  0.00    +0.000 A 
ENDBRANCH  14  15
BRANCH   6  21
ATOM     21  C   UNL     1      15.494  39.585  47.896  0.00  0.00    +0.000 C 
ATOM     22 BR   UNL     1      16.760  38.478  48.875  0.00  0.00    +0.000 Br
ENDBRANCH   6  21
ENDBRANCH   3   5
BRANCH   2  23
ATOM     23  C   UNL     1      12.567  42.858  46.500  0.00  0.00    +0.000 C 
BRANCH  23  24
ATOM     24  C   UNL     1      12.612  44.009  45.520  0.00  0.00    +0.000 A 
ATOM     25  C   UNL     1      13.257  45.209  45.852  0.00  0.00    +0.000 A 
ATOM     26  C   UNL     1      13.283  46.289  44.955  0.00  0.00    +0.000 A 
ATOM     27  C   UNL     1      12.671  46.144  43.700  0.00  0.00    +0.000 A 
ATOM     28  C   UNL     1      12.014  44.954  43.348  0.00  0.00    +0.000 A 
ATOM     29  C   UNL     1      11.989  43.896  44.269  0.00  0.00    +0.000 A 
BRANCH  26  30
ATOM     30  C   UNL     1      13.990  47.571  45.324  0.00  0.00    +0.000 C 
ATOM     31  F   UNL     1      14.204  48.391  44.259  0.00  0.00    +0.000 F 
ATOM     32  F   UNL     1      15.213  47.347  45.879  0.00  0.00    +0.000 F 
ATOM     33  F   UNL     1      13.298  48.316  46.232  0.00  0.00    +0.000 F 
ENDBRANCH  26  30
BRANCH  28  34
ATOM     34  C   UNL     1      11.371  44.819  41.988  0.00  0.00    +0.000 C 
ATOM     35  F   UNL     1      10.170  45.459  41.912  0.00  0.00    +0.000 F 
ATOM     36  F   UNL     1      12.140  45.363  41.003  0.00  0.00    +0.000 F 
ATOM     37  F   UNL     1      11.133  43.534  41.609  0.00  0.00    +0.000 F 
ENDBRANCH  28  34
ENDBRANCH  23  24
ENDBRANCH   2  23
TORSDOF 7
ENDMDL
MODEL 3
REMARK VINA RESULT:    -6.005      7.516      9.588
REMARK INTER + INTRA:         -11.467
REMARK INTER:                  -8.462
REMARK INTRA:                  -3.004
REMARK UNBOUND:                -3.004
REMARK  Name = 
REMARK  8 active torsions:
REMARK  status: ('A' for Active; 'I' for Inactive)
REMARK    1  A    between atoms: C_1  and  N_2
REMARK    2  A    between atoms: N_2  and  C_3
REMARK    3  A    between atoms: C_3  and  C_4
REMARK    4  A    between atoms: C_6  and  C_7
REMARK    5  A    between atoms: C_12  and  C_13
REMARK    6  A    between atoms: C_18  and  C_20
REMARK    7  A    between atoms: C_21  and  C_22
REMARK    8  A    between atoms: C_31  and  C_32
REMARK                            x       y       z     vdW  Elec       q    Type
REMARK                         _______ _______ _______ _____ _____    ______ ____
ROOT
ATOM      1  C   UNL     1      14.687  36.565  51.023  0.00  0.00    +0.000 C 
ATOM      2  N   UNL     1      14.788  37.938  50.543  0.00  0.00    +0.000 N 
ATOM      3  C   UNL     1      15.880  38.455  49.848  0.00  0.00    +0.000 C 
ATOM      4  O   UNL     1      15.923  39.589  49.380  0.00  0.00    +0.000 OA
ENDROOT
BRANCH   3   5
ATOM      5  C   UNL     1      17.085  37.619  49.707  0.00  0.00    +0.000 A 
ATOM      6  C   UNL     1      17.263  36.878  48.540  0.00  0.00    +0.000 A 
ATOM      7  N   UNL     1      18.376  36.126  48.338  0.00  0.00    +0.000 NA
ATOM      8  C   UNL     1      19.304  36.049  49.304  0.00  0.00    +0.000 A 
ATOM      9  C   UNL     1      20.414  35.249  49.071  0.00  0.00    +0.000 A 
ATOM     10  C   UNL     1      21.427  35.095  50.019  0.00  0.00    +0.000 A 
ATOM     11  C   UNL     1      21.330  35.752  51.235  0.00  0.00    +0.000 A 
ATOM     12  C   UNL     1      20.225  36.562  51.491  0.00  0.00    +0.000 A 
ATOM     13  C   UNL     1      19.194  36.736  50.532  0.00  0.00    +0.000 A 
ATOM     14  C   UNL     1      18.046  37.556  50.734  0.00  0.00    +0.000 A 
BRANCH  14  15
ATOM     15  C   UNL     1      17.866  38.316  51.987  0.00  0.00    +0.000 A 
ATOM     16  C   UNL     1      17.330  37.704  53.132  0.00  0.00    +0.000 A 
ATOM     17  C   UNL     1      17.134  38.433  54.307  0.00  0.00    +0.000 A 
ATOM     18  C   UNL     1      17.464  39.786  54.350  0.00  0.00    +0.000 A 
ATOM     19  C   UNL     1      18.000  40.407  53.224  0.00  0.00    +0.000 A 
ATOM     20  C   UNL     1      18.204  39.677  52.052  0.00  0.00    +0.000 A 
ENDBRANCH  14  15
BRANCH   6  21
ATOM     21  C   UNL     1      16.248  36.846  47.434  0.00  0.00    +0.000 C 
ATOM     22 BR   UNL     1      16.731  38.136  46.060  0.00  0.00    +0.000 Br
ENDBRANCH   6  21
ENDBRANCH   3   5
BRANCH   2  23
ATOM     23  C   UNL     1      13.576  38.751  50.602  0.00  0.00    +0.000 C 
BRANCH  23  24
ATOM     24  C   UNL     1      13.499  39.593  51.857  0.00  0.00    +0.000 A 
ATOM     25  C   UNL     1      12.645  39.234  52.910  0.00  0.00    +0.000 A 
ATOM     26  C   UNL     1      12.553  40.023  54.068  0.00  0.00    +0.000 A 
ATOM     27  C   UNL     1      13.350  41.173  54.171  0.00  0.00    +0.000 A 
ATOM     28  C   UNL     1      14.209  41.555  53.127  0.00  0.00    +0.000 A 
ATOM     29  C   UNL     1      14.270  40.759  51.974  0.00  0.00    +0.000 A 
BRANCH  26  30
ATOM     30  C   UNL     1      11.636  39.617  55.197  0.00  0.00    +0.000 C 
ATOM     31  F   UNL     1      12.281  39.479  56.388  0.00  0.00    +0.000 F 
ATOM     32  F   UNL     1      11.020  38.425  54.962  0.00  0.00    +0.000 F 
ATOM     33  F   UNL     1      10.637  40.518  55.418  0.00  0.00    +0.000 F 
ENDBRANCH  26  30
BRANCH  28  34
ATOM     34  C   UNL     1      15.063  42.793  53.265  0.00  0.00    +0.000 C 
ATOM     35  F   UNL     1      15.794  42.797  54.416  0.00  0.00    +0.000 F 
ATOM     36  F   UNL     1      15.970  42.904  52.254  0.00  0.00    +0.000 F 
ATOM     37  F   UNL     1      14.360  43.958  53.267  0.00  0.00    +0.000 F 
ENDBRANCH  28  34
ENDBRANCH  23  24
ENDBRANCH   2  23
TORSDOF 7
ENDMDL
