MODEL 1
REMARK VINA RESULT:    -7.178      0.000      0.000
REMARK INTER + INTRA:          -7.672
REMARK INTER:                  -7.621
REMARK INTRA:                  -0.051
REMARK UNBOUND:                -0.075
REMARK  Name = 
REMARK  1 active torsions:
REMARK  status: ('A' for Active; 'I' for Inactive)
REMARK    1  A    between atoms: C_2  and  C_3
REMARK                            x       y       z     vdW  Elec       q    Type
REMARK                         _______ _______ _______ _____ _____    ______ ____
ROOT
ATOM      1  C   UNL     1      13.685  44.614  45.701  0.00  0.00    +0.000 A 
ATOM      2  C   UNL     1      12.485  44.287  46.330  0.00  0.00    +0.000 A 
ATOM      3  C   UNL     1      11.614  45.293  46.756  0.00  0.00    +0.000 A 
ATOM      4  C   UNL     1      11.987  46.635  46.551  0.00  0.00    +0.000 A 
ATOM      5  C   UNL     1      13.207  46.987  45.952  0.00  0.00    +0.000 A 
ATOM      6  C   UNL     1      14.067  45.951  45.525  0.00  0.00    +0.000 A 
ATOM      7  C   UNL     1      13.281  48.421  45.903  0.00  0.00    +0.000 A 
ATOM      8  C   UNL     1      14.216  49.380  45.430  0.00  0.00    +0.000 A 
ATOM      9  C   UNL     1      13.852  50.757  45.476  0.00  0.00    +0.000 A 
ATOM     10  C   UNL     1      12.618  51.157  46.015  0.00  0.00    +0.000 A 
ATOM     11  C   UNL     1      11.719  50.221  46.521  0.00  0.00    +0.000 A 
ATOM     12  C   UNL     1      12.097  48.882  46.446  0.00  0.00    +0.000 A 
ATOM     13  N   UNL     1      11.339  47.816  46.884  0.00  0.00    +0.000 N 
ATOM     14  C   UNL     1      10.115  48.010  47.548  0.00  0.00    +0.000 C 
ATOM     15  O   UNL     1       9.389  47.061  47.816  0.00  0.00    +0.000 OA
ATOM     16  C   UNL     1       9.879  49.444  48.003  0.00  0.00    +0.000 C 
ATOM     17  C   UNL     1      10.352  50.538  47.036  0.00  0.00    +0.000 C 
ATOM     18  C   UNL     1      14.809  51.829  44.993  0.00  0.00    +0.000 C 
ATOM     19  N   UNL     1      15.859  51.336  44.098  0.00  0.00    +0.000 NA
ATOM     20  C   UNL     1      16.518  50.178  44.700  0.00  0.00    +0.000 C 
ATOM     21  C   UNL     1      15.547  49.001  44.820  0.00  0.00    +0.000 C 
ATOM     22  H   UNL     1      16.540  52.078  43.952  0.00  0.00    +0.000 HD
ENDROOT
BRANCH   1  24
ATOM     23  O   UNL     1      15.271  42.973  46.130  0.00  0.00    +0.000 OA
ATOM     24  C   UNL     1      14.616  43.551  45.264  0.00  0.00    +0.000 C 
ATOM     25  N   UNL     1      14.693  43.241  43.905  0.00  0.00    +0.000 N 
ATOM     26  C   UNL     1      14.466  44.245  42.856  0.00  0.00    +0.000 C 
ATOM     27  C   UNL     1      14.192  43.584  41.501  0.00  0.00    +0.000 C 
ATOM     28  O   UNL     1      15.233  42.660  41.154  0.00  0.00    +0.000 OA
ATOM     29  C   UNL     1      15.328  41.622  42.141  0.00  0.00    +0.000 C 
ATOM     30  C   UNL     1      15.647  42.197  43.523  0.00  0.00    +0.000 C 
ENDBRANCH   1  24
TORSDOF 1
ENDMDL
MODEL 2
REMARK VINA RESULT:    -6.917      4.698      8.769
REMARK INTER + INTRA:          -7.396
REMARK INTER:                  -7.116
REMARK INTRA:                  -0.279
REMARK UNBOUND:                -0.075
REMARK  Name = 
REMARK  1 active torsions:
REMARK  status: ('A' for Active; 'I' for Inactive)
REMARK    1  A    between atoms: C_2  and  C_3
REMARK                            x       y       z     vdW  Elec       q    Type
REMARK                         _______ _______ _______ _____ _____    ______ ____
ROOT
ATOM      1  C   UNL     1      14.477  40.331  49.104  0.00  0.00    +0.000 A 
ATOM      2  C   UNL     1      15.185  39.167  48.809  0.00  0.00    +0.000 A 
ATOM      3  C   UNL     1      15.769  38.995  47.552  0.00  0.00    +0.000 A 
ATOM      4  C   UNL     1      15.608  40.013  46.592  0.00  0.00    +0.000 A 
ATOM      5  C   UNL     1      14.869  41.177  46.856  0.00  0.00    +0.000 A 
ATOM      6  C   UNL     1      14.293  41.329  48.137  0.00  0.00    +0.000 A 
ATOM      7  C   UNL     1      14.893  41.996  45.676  0.00  0.00    +0.000 A 
ATOM      8  C   UNL     1      14.364  43.259  45.297  0.00  0.00    +0.000 A 
ATOM      9  C   UNL     1      14.717  43.783  44.021  0.00  0.00    +0.000 A 
ATOM     10  C   UNL     1      15.531  43.050  43.142  0.00  0.00    +0.000 A 
ATOM     11  C   UNL     1      16.013  41.791  43.493  0.00  0.00    +0.000 A 
ATOM     12  C   UNL     1      15.665  41.313  44.755  0.00  0.00    +0.000 A 
ATOM     13  N   UNL     1      16.054  40.100  45.281  0.00  0.00    +0.000 N 
ATOM     14  C   UNL     1      16.788  39.171  44.521  0.00  0.00    +0.000 C 
ATOM     15  O   UNL     1      17.239  38.156  45.035  0.00  0.00    +0.000 OA
ATOM     16  C   UNL     1      16.828  39.486  43.031  0.00  0.00    +0.000 C 
ATOM     17  C   UNL     1      16.952  40.972  42.666  0.00  0.00    +0.000 C 
ATOM     18  C   UNL     1      14.179  45.122  43.556  0.00  0.00    +0.000 C 
ATOM     19  N   UNL     1      13.698  45.983  44.640  0.00  0.00    +0.000 NA
ATOM     20  C   UNL     1      12.775  45.235  45.493  0.00  0.00    +0.000 C 
ATOM     21  C   UNL     1      13.502  44.098  46.214  0.00  0.00    +0.000 C 
ATOM     22  H   UNL     1      13.215  46.781  44.234  0.00  0.00    +0.000 HD
ENDROOT
BRANCH   1  24
ATOM     23  O   UNL     1      12.618  40.430  50.492  0.00  0.00    +0.000 OA
ATOM     24  C   UNL     1      13.844  40.508  50.429  0.00  0.00    +0.000 C 
ATOM     25  N   UNL     1      14.659  40.733  51.539  0.00  0.00    +0.000 N 
ATOM     26  C   UNL     1      15.945  41.438  51.440  0.00  0.00    +0.000 C 
ATOM     27  C   UNL     1      16.817  41.186  52.675  0.00  0.00    +0.000 C 
ATOM     28  O   UNL     1      16.111  41.507  53.882  0.00  0.00    +0.000 OA
ATOM     29  C   UNL     1      14.932  40.697  54.001  0.00  0.00    +0.000 C 
ATOM     30  C   UNL     1      13.982  40.924  52.823  0.00  0.00    +0.000 C 
ENDBRANCH   1  24
TORSDOF 1
ENDMDL
MODEL 3
REMARK VINA RESULT:    -6.511      5.765      9.785
REMARK INTER + INTRA:          -6.967
REMARK INTER:                  -6.892
REMARK INTRA:                  -0.075
REMARK UNBOUND:                -0.075
REMARK  Name = 
REMARK  1 active torsions:
REMARK  status: ('A' for Active; 'I' for Inactive)
REMARK    1  A    between atoms: C_2  and  C_3
REMARK                            x       y       z     vdW  Elec       q    Type
REMARK                         _______ _______ _______ _____ _____    ______ ____
ROOT
ATOM      1  C   UNL     1      15.024  39.403  48.481  0.00  0.00    +0.000 A 
ATOM      2  C   UNL     1      14.457  40.669  48.612  0.00  0.00    +0.000 A 
ATOM      3  C   UNL     1      14.491  41.571  47.547  0.00  0.00    +0.000 A 
ATOM      4  C   UNL     1      15.123  41.177  46.353  0.00  0.00    +0.000 A 
ATOM      5  C   UNL     1      15.732  39.920  46.211  0.00  0.00    +0.000 A 
ATOM      6  C   UNL     1      15.680  39.024  47.302  0.00  0.00    +0.000 A 
ATOM      7  C   UNL     1      16.288  39.841  44.889  0.00  0.00    +0.000 A 
ATOM      8  C   UNL     1      17.003  38.870  44.137  0.00  0.00    +0.000 A 
ATOM      9  C   UNL     1      17.291  39.154  42.771  0.00  0.00    +0.000 A 
ATOM     10  C   UNL     1      16.917  40.379  42.196  0.00  0.00    +0.000 A 
ATOM     11  C   UNL     1      16.256  41.351  42.944  0.00  0.00    +0.000 A 
ATOM     12  C   UNL     1      15.973  41.037  44.272  0.00  0.00    +0.000 A 
ATOM     13  N   UNL     1      15.319  41.863  45.162  0.00  0.00    +0.000 N 
ATOM     14  C   UNL     1      14.952  43.174  44.813  0.00  0.00    +0.000 C 
ATOM     15  O   UNL     1      14.260  43.852  45.561  0.00  0.00    +0.000 OA
ATOM     16  C   UNL     1      15.603  43.678  43.531  0.00  0.00    +0.000 C 
ATOM     17  C   UNL     1      15.742  42.646  42.403  0.00  0.00    +0.000 C 
ATOM     18  C   UNL     1      18.057  38.162  41.918  0.00  0.00    +0.000 C 
ATOM     19  N   UNL     1      18.050  36.792  42.439  0.00  0.00    +0.000 NA
ATOM     20  C   UNL     1      18.447  36.797  43.846  0.00  0.00    +0.000 C 
ATOM     21  C   UNL     1      17.409  37.528  44.702  0.00  0.00    +0.000 C 
ATOM     22  H   UNL     1      18.710  36.234  41.902  0.00  0.00    +0.000 HD
ENDROOT
BRANCH   1  24
ATOM     23  O   UNL     1      14.154  37.564  49.600  0.00  0.00    +0.000 OA
ATOM     24  C   UNL     1      15.004  38.452  49.615  0.00  0.00    +0.000 C 
ATOM     25  N   UNL     1      15.955  38.593  50.628  0.00  0.00    +0.000 N 
ATOM     26  C   UNL     1      16.508  39.899  51.010  0.00  0.00    +0.000 C 
ATOM     27  C   UNL     1      17.800  39.743  51.819  0.00  0.00    +0.000 C 
ATOM     28  O   UNL     1      17.602  38.883  52.950  0.00  0.00    +0.000 OA
ATOM     29  C   UNL     1      17.191  37.577  52.519  0.00  0.00    +0.000 C 
ATOM     30  C   UNL     1      15.876  37.640  51.737  0.00  0.00    +0.000 C 
ENDBRANCH   1  24
TORSDOF 1
ENDMDL
