MODEL 1
REMARK VINA RESULT:    -6.155      0.000      0.000
REMARK INTER + INTRA:         -11.655
REMARK INTER:                 -10.161
REMARK INTRA:                  -1.494
REMARK UNBOUND:                -2.442
REMARK  Name = 
REMARK  15 active torsions:
REMARK  status: ('A' for Active; 'I' for Inactive)
REMARK    1  A    between atoms: C_1  and  C_2
REMARK    2  A    between atoms: C_2  and  C_3
REMARK    3  A    between atoms: C_2  and  C_4
REMARK    4  A    between atoms: C_2  and  C_5
REMARK    5  A    between atoms: C_7  and  C_8
REMARK    6  A    between atoms: C_8  and  C_9
REMARK    7  A    between atoms: C_8  and  C_10
REMARK    8  A    between atoms: C_8  and  C_11
REMARK    9  A    between atoms: C_13  and  S_14
REMARK   10  A    between atoms: S_14  and  N_17
REMARK   11  A    between atoms: N_17  and  C_18
REMARK   12  A    between atoms: C_27  and  C_28
REMARK   13  A    between atoms: N_30  and  C_31
REMARK   14  A    between atoms: C_31  and  C_32
REMARK   15  A    between atoms: C_32  and  N_33
REMARK                            x       y       z     vdW  Elec       q    Type
REMARK                         _______ _______ _______ _____ _____    ______ ____
ROOT
ATOM      1  N   UNL     1      15.911  39.630  53.487  0.00  0.00    +0.000 N 
ATOM      2  H   UNL     1      15.061  40.135  53.190  0.00  0.00    +0.000 HD
ENDROOT
BRANCH   1   3
ATOM      3  C   UNL     1      16.081  39.586  54.916  0.00  0.00    +0.000 A 
ATOM      4  C   UNL     1      16.804  38.513  55.454  0.00  0.00    +0.000 A 
ATOM      5  C   UNL     1      17.125  38.468  56.817  0.00  0.00    +0.000 A 
ATOM      6  C   UNL     1      17.862  37.401  57.356  0.00  0.00    +0.000 A 
ATOM      7  C   UNL     1      18.188  37.376  58.712  0.00  0.00    +0.000 A 
ATOM      8  C   UNL     1      17.786  38.416  59.543  0.00  0.00    +0.000 A 
ATOM      9  C   UNL     1      17.051  39.483  59.021  0.00  0.00    +0.000 A 
ATOM     10  C   UNL     1      16.711  39.522  57.659  0.00  0.00    +0.000 A 
ATOM     11  C   UNL     1      15.964  40.587  57.118  0.00  0.00    +0.000 A 
ATOM     12  C   UNL     1      15.620  40.621  55.755  0.00  0.00    +0.000 A 
BRANCH  12  13
ATOM     13  C   UNL     1      14.759  41.713  55.189  0.00  0.00    +0.000 C 
ATOM     14  O   UNL     1      13.574  41.789  55.509  0.00  0.00    +0.000 OA
ATOM     15  N   UNL     1      15.348  42.656  54.369  0.00  0.00    +0.000 N 
ATOM     16  H   UNL     1      16.350  42.700  54.267  0.00  0.00    +0.000 HD
BRANCH  15  17
ATOM     17  C   UNL     1      14.587  43.750  53.783  0.00  0.00    +0.000 C 
BRANCH  17  18
ATOM     18  C   UNL     1      15.480  44.845  53.174  0.00  0.00    +0.000 C 
BRANCH  18  19
ATOM     19  N   UNL     1      15.046  46.208  53.489  0.00  0.00    +0.000 NA
ATOM     20  H   UNL     1      14.197  46.153  54.059  0.00  0.00    +0.000 HD
ATOM     21  H   UNL     1      15.722  46.619  54.132  0.00  0.00    +0.000 HD
ENDBRANCH  18  19
ENDBRANCH  17  18
ENDBRANCH  15  17
ENDBRANCH  12  13
ENDBRANCH   1   3
BRANCH   1  22
ATOM     22  S   UNL     1      17.195  40.330  52.605  0.00  0.00    +0.000 S 
ATOM     23  O   UNL     1      16.636  41.424  51.840  0.00  0.00    +0.000 OA
ATOM     24  O   UNL     1      18.328  40.523  53.486  0.00  0.00    +0.000 OA
BRANCH  22  29
ATOM     25  C   UNL     1      17.249  38.060  49.246  0.00  0.00    +0.000 A 
ATOM     26  C   UNL     1      18.126  37.025  49.646  0.00  0.00    +0.000 A 
ATOM     27  C   UNL     1      18.754  36.982  50.911  0.00  0.00    +0.000 A 
ATOM     28  C   UNL     1      18.473  38.024  51.803  0.00  0.00    +0.000 A 
ATOM     29  C   UNL     1      17.589  39.045  51.439  0.00  0.00    +0.000 A 
ATOM     30  C   UNL     1      16.991  39.074  50.175  0.00  0.00    +0.000 A 
BRANCH  25  32
ATOM     31  C   UNL     1      15.888  36.683  47.617  0.00  0.00    +0.000 C 
ATOM     32  C   UNL     1      16.605  38.030  47.847  0.00  0.00    +0.000 C 
ATOM     33  C   UNL     1      17.616  38.206  46.691  0.00  0.00    +0.000 C 
ATOM     34  C   UNL     1      15.581  39.180  47.739  0.00  0.00    +0.000 C 
ENDBRANCH  25  32
BRANCH  27  35
ATOM     35  C   UNL     1      19.697  35.818  51.267  0.00  0.00    +0.000 C 
ATOM     36  C   UNL     1      19.544  35.310  52.719  0.00  0.00    +0.000 C 
ATOM     37  C   UNL     1      21.166  36.263  51.092  0.00  0.00    +0.000 C 
ATOM     38  C   UNL     1      19.412  34.621  50.332  0.00  0.00    +0.000 C 
ENDBRANCH  27  35
ENDBRANCH  22  29
ENDBRANCH   1  22
TORSDOF 9
ENDMDL
MODEL 2
REMARK VINA RESULT:    -6.085      7.489     10.310
REMARK INTER + INTRA:         -11.551
REMARK INTER:                  -9.098
REMARK INTRA:                  -2.453
REMARK UNBOUND:                -2.442
REMARK  Name = 
REMARK  15 active torsions:
REMARK  status: ('A' for Active; 'I' for Inactive)
REMARK    1  A    between atoms: C_1  and  C_2
REMARK    2  A    between atoms: C_2  and  C_3
REMARK    3  A    between atoms: C_2  and  C_4
REMARK    4  A    between atoms: C_2  and  C_5
REMARK    5  A    between atoms: C_7  and  C_8
REMARK    6  A    between atoms: C_8  and  C_9
REMARK    7  A    between atoms: C_8  and  C_10
REMARK    8  A    between atoms: C_8  and  C_11
REMARK    9  A    between atoms: C_13  and  S_14
REMARK   10  A    between atoms: S_14  and  N_17
REMARK   11  A    between atoms: N_17  and  C_18
REMARK   12  A    between atoms: C_27  and  C_28
REMARK   13  A    between atoms: N_30  and  C_31
REMARK   14  A    between atoms: C_31  and  C_32
REMARK   15  A    between atoms: C_32  and  N_33
REMARK                            x       y       z     vdW  Elec       q    Type
REMARK                         _______ _______ _______ _____ _____    ______ ____
ROOT
ATOM      1  N   UNL     1      15.500  43.184  45.147  0.00  0.00    +0.000 N 
ATOM      2  H   UNL     1      15.697  42.331  45.694  0.00  0.00    +0.000 HD
ENDROOT
BRANCH   1   3
ATOM      3  C   UNL     1      14.438  43.986  45.699  0.00  0.00    +0.000 A 
ATOM      4  C   UNL     1      14.499  45.372  45.503  0.00  0.00    +0.000 A 
ATOM      5  C   UNL     1      13.442  46.204  45.893  0.00  0.00    +0.000 A 
ATOM      6  C   UNL     1      13.494  47.592  45.684  0.00  0.00    +0.000 A 
ATOM      7  C   UNL     1      12.428  48.409  46.063  0.00  0.00    +0.000 A 
ATOM      8  C   UNL     1      11.298  47.848  46.650  0.00  0.00    +0.000 A 
ATOM      9  C   UNL     1      11.233  46.470  46.864  0.00  0.00    +0.000 A 
ATOM     10  C   UNL     1      12.300  45.634  46.493  0.00  0.00    +0.000 A 
ATOM     11  C   UNL     1      12.253  44.243  46.709  0.00  0.00    +0.000 A 
ATOM     12  C   UNL     1      13.324  43.409  46.341  0.00  0.00    +0.000 A 
BRANCH  12  13
ATOM     13  C   UNL     1      13.313  41.938  46.639  0.00  0.00    +0.000 C 
ATOM     14  O   UNL     1      13.989  41.494  47.566  0.00  0.00    +0.000 OA
ATOM     15  N   UNL     1      12.478  41.124  45.900  0.00  0.00    +0.000 N 
ATOM     16  H   UNL     1      11.789  41.517  45.278  0.00  0.00    +0.000 HD
BRANCH  15  17
ATOM     17  C   UNL     1      12.402  39.687  46.127  0.00  0.00    +0.000 C 
BRANCH  17  18
ATOM     18  C   UNL     1      12.739  38.861  44.874  0.00  0.00    +0.000 C 
BRANCH  18  19
ATOM     19  N   UNL     1      12.676  39.624  43.626  0.00  0.00    +0.000 NA
ATOM     20  H   UNL     1      12.449  38.981  42.864  0.00  0.00    +0.000 HD
ATOM     21  H   UNL     1      11.855  40.229  43.661  0.00  0.00    +0.000 HD
ENDBRANCH  18  19
ENDBRANCH  17  18
ENDBRANCH  15  17
ENDBRANCH  12  13
ENDBRANCH   1   3
BRANCH   1  22
ATOM     22  S   UNL     1      15.277  42.659  43.538  0.00  0.00    +0.000 S 
ATOM     23  O   UNL     1      13.855  42.476  43.346  0.00  0.00    +0.000 OA
ATOM     24  O   UNL     1      16.060  43.494  42.651  0.00  0.00    +0.000 OA
BRANCH  22  29
ATOM     25  C   UNL     1      16.959  39.162  42.359  0.00  0.00    +0.000 A 
ATOM     26  C   UNL     1      17.047  38.485  43.598  0.00  0.00    +0.000 A 
ATOM     27  C   UNL     1      16.640  39.054  44.827  0.00  0.00    +0.000 A 
ATOM     28  C   UNL     1      16.118  40.353  44.791  0.00  0.00    +0.000 A 
ATOM     29  C   UNL     1      15.998  41.032  43.574  0.00  0.00    +0.000 A 
ATOM     30  C   UNL     1      16.422  40.454  42.373  0.00  0.00    +0.000 A 
BRANCH  25  32
ATOM     31  C   UNL     1      16.295  38.488  40.013  0.00  0.00    +0.000 C 
ATOM     32  C   UNL     1      17.424  38.469  41.065  0.00  0.00    +0.000 C 
ATOM     33  C   UNL     1      17.834  36.992  41.261  0.00  0.00    +0.000 C 
ATOM     34  C   UNL     1      18.655  39.216  40.508  0.00  0.00    +0.000 C 
ENDBRANCH  25  32
BRANCH  27  35
ATOM     35  C   UNL     1      16.771  38.249  46.132  0.00  0.00    +0.000 C 
ATOM     36  C   UNL     1      15.678  37.171  46.313  0.00  0.00    +0.000 C 
ATOM     37  C   UNL     1      16.678  39.201  47.345  0.00  0.00    +0.000 C 
ATOM     38  C   UNL     1      18.135  37.524  46.156  0.00  0.00    +0.000 C 
ENDBRANCH  27  35
ENDBRANCH  22  29
ENDBRANCH   1  22
TORSDOF 9
ENDMDL
MODEL 3
REMARK VINA RESULT:    -6.077      7.485     10.569
REMARK INTER + INTRA:         -11.540
REMARK INTER:                  -9.097
REMARK INTRA:                  -2.442
REMARK UNBOUND:                -2.442
REMARK  Name = 
REMARK  15 active torsions:
REMARK  status: ('A' for Active; 'I' for Inactive)
REMARK    1  A    between atoms: C_1  and  C_2
REMARK    2  A    between atoms: C_2  and  C_3
REMARK    3  A    between atoms: C_2  and  C_4
REMARK    4  A    between atoms: C_2  and  C_5
REMARK    5  A    between atoms: C_7  and  C_8
REMARK    6  A    between atoms: C_8  and  C_9
REMARK    7  A    between atoms: C_8  and  C_10
REMARK    8  A    between atoms: C_8  and  C_11
REMARK    9  A    between atoms: C_13  and  S_14
REMARK   10  A    between atoms: S_14  and  N_17
REMARK   11  A    between atoms: N_17  and  C_18
REMARK   12  A    between atoms: C_27  and  C_28
REMARK   13  A    between atoms: N_30  and  C_31
REMARK   14  A    between atoms: C_31  and  C_32
REMARK   15  A    between atoms: C_32  and  N_33
REMARK                            x       y       z     vdW  Elec       q    Type
REMARK                         _______ _______ _______ _____ _____    ______ ____
ROOT
ATOM      1  N   UNL     1      15.497  43.199  45.123  0.00  0.00    +0.000 N 
ATOM      2  H   UNL     1      15.694  42.336  45.654  0.00  0.00    +0.000 HD
ENDROOT
BRANCH   1   3
ATOM      3  C   UNL     1      14.430  43.986  45.686  0.00  0.00    +0.000 A 
ATOM      4  C   UNL     1      14.488  45.376  45.519  0.00  0.00    +0.000 A 
ATOM      5  C   UNL     1      13.426  46.197  45.920  0.00  0.00    +0.000 A 
ATOM      6  C   UNL     1      13.475  47.589  45.741  0.00  0.00    +0.000 A 
ATOM      7  C   UNL     1      12.405  48.395  46.130  0.00  0.00    +0.000 A 
ATOM      8  C   UNL     1      11.273  47.819  46.699  0.00  0.00    +0.000 A 
ATOM      9  C   UNL     1      11.211  46.436  46.884  0.00  0.00    +0.000 A 
ATOM     10  C   UNL     1      12.282  45.611  46.501  0.00  0.00    +0.000 A 
ATOM     11  C   UNL     1      12.238  44.216  46.688  0.00  0.00    +0.000 A 
ATOM     12  C   UNL     1      13.314  43.393  46.309  0.00  0.00    +0.000 A 
BRANCH  12  13
ATOM     13  C   UNL     1      13.305  41.916  46.576  0.00  0.00    +0.000 C 
ATOM     14  O   UNL     1      13.991  41.452  47.485  0.00  0.00    +0.000 OA
ATOM     15  N   UNL     1      12.461  41.118  45.829  0.00  0.00    +0.000 N 
ATOM     16  H   UNL     1      11.765  41.524  45.224  0.00  0.00    +0.000 HD
BRANCH  15  17
ATOM     17  C   UNL     1      12.387  39.677  46.027  0.00  0.00    +0.000 C 
BRANCH  17  18
ATOM     18  C   UNL     1      12.673  38.878  44.744  0.00  0.00    +0.000 C 
BRANCH  18  19
ATOM     19  N   UNL     1      12.644  39.686  43.524  0.00  0.00    +0.000 NA
ATOM     20  H   UNL     1      12.667  39.056  42.717  0.00  0.00    +0.000 HD
ATOM     21  H   UNL     1      11.722  40.116  43.446  0.00  0.00    +0.000 HD
ENDBRANCH  18  19
ENDBRANCH  17  18
ENDBRANCH  15  17
ENDBRANCH  12  13
ENDBRANCH   1   3
BRANCH   1  22
ATOM     22  S   UNL     1      15.284  42.705  43.502  0.00  0.00    +0.000 S 
ATOM     23  O   UNL     1      13.860  42.571  43.285  0.00  0.00    +0.000 OA
ATOM     24  O   UNL     1      16.107  43.529  42.641  0.00  0.00    +0.000 OA
BRANCH  22  29
ATOM     25  C   UNL     1      16.606  39.102  44.810  0.00  0.00    +0.000 A 
ATOM     26  C   UNL     1      17.054  38.533  43.595  0.00  0.00    +0.000 A 
ATOM     27  C   UNL     1      16.950  39.184  42.345  0.00  0.00    +0.000 A 
ATOM     28  C   UNL     1      16.380  40.463  42.333  0.00  0.00    +0.000 A 
ATOM     29  C   UNL     1      15.953  41.056  43.525  0.00  0.00    +0.000 A 
ATOM     30  C   UNL     1      16.052  40.385  44.749  0.00  0.00    +0.000 A 
BRANCH  25  32
ATOM     31  C   UNL     1      15.614  37.296  46.278  0.00  0.00    +0.000 C 
ATOM     32  C   UNL     1      16.757  38.323  46.130  0.00  0.00    +0.000 C 
ATOM     33  C   UNL     1      16.724  39.218  47.390  0.00  0.00    +0.000 C 
ATOM     34  C   UNL     1      18.112  37.584  46.128  0.00  0.00    +0.000 C 
ENDBRANCH  25  32
BRANCH  27  35
ATOM     35  C   UNL     1      17.462  38.493  41.068  0.00  0.00    +0.000 C 
ATOM     36  C   UNL     1      17.886  37.022  41.281  0.00  0.00    +0.000 C 
ATOM     37  C   UNL     1      18.695  39.249  40.524  0.00  0.00    +0.000 C 
ATOM     38  C   UNL     1      16.348  38.497  39.998  0.00  0.00    +0.000 C 
ENDBRANCH  27  35
ENDBRANCH  22  29
ENDBRANCH   1  22
TORSDOF 9
ENDMDL
