MODEL 1
REMARK VINA RESULT:    -6.309      0.000      0.000
REMARK INTER + INTRA:          -9.253
REMARK INTER:                  -8.373
REMARK INTRA:                  -0.879
REMARK UNBOUND:                -0.730
REMARK  Name = 
REMARK  7 active torsions:
REMARK  status: ('A' for Active; 'I' for Inactive)
REMARK    1  A    between atoms: C_1  and  O_2
REMARK    2  A    between atoms: O_2  and  C_3
REMARK    3  A    between atoms: C_10  and  N_11
REMARK    4  A    between atoms: N_11  and  C_12
REMARK    5  A    between atoms: C_15  and  O_16
REMARK    6  A    between atoms: O_16  and  C_17
REMARK    7  A    between atoms: C_17  and  C_18
REMARK                            x       y       z     vdW  Elec       q    Type
REMARK                         _______ _______ _______ _____ _____    ______ ____
ROOT
ATOM      1  N   UNL     1      12.803  49.723  45.382  0.00  0.00    +0.000 N 
ATOM      2  H   UNL     1      12.862  49.949  44.394  0.00  0.00    +0.000 HD
ENDROOT
BRANCH   1  10
ATOM      3  C   UNL     1      16.578  51.380  44.141  0.00  0.00    +0.000 A 
ATOM      4  C   UNL     1      17.148  52.342  44.967  0.00  0.00    +0.000 A 
ATOM      5  C   UNL     1      16.482  52.769  46.119  0.00  0.00    +0.000 A 
ATOM      6  C   UNL     1      15.248  52.250  46.484  0.00  0.00    +0.000 A 
ATOM      7  N   UNL     1      14.665  52.712  47.592  0.00  0.00    +0.000 NA
ATOM      8  C   UNL     1      13.475  52.192  47.905  0.00  0.00    +0.000 A 
ATOM      9  N   UNL     1      12.825  51.245  47.224  0.00  0.00    +0.000 NA
ATOM     10  C   UNL     1      13.425  50.771  46.117  0.00  0.00    +0.000 A 
ATOM     11  C   UNL     1      14.671  51.262  45.674  0.00  0.00    +0.000 A 
ATOM     12  C   UNL     1      15.344  50.840  44.494  0.00  0.00    +0.000 A 
BRANCH   3  14
ATOM     13  C   UNL     1      18.733  51.030  43.195  0.00  0.00    +0.000 C 
ATOM     14  O   UNL     1      17.319  51.057  43.040  0.00  0.00    +0.000 OA
ENDBRANCH   3  14
ENDBRANCH   1  10
BRANCH   1  15
ATOM     15  C   UNL     1      12.895  48.330  45.597  0.00  0.00    +0.000 A 
ATOM     16  C   UNL     1      14.054  47.598  45.330  0.00  0.00    +0.000 A 
ATOM     17  C   UNL     1      14.127  46.232  45.628  0.00  0.00    +0.000 A 
ATOM     18  C   UNL     1      13.053  45.573  46.223  0.00  0.00    +0.000 A 
ATOM     19  C   UNL     1      11.904  46.297  46.529  0.00  0.00    +0.000 A 
ATOM     20  C   UNL     1      11.834  47.665  46.229  0.00  0.00    +0.000 A 
BRANCH  18  21
ATOM     21  O   UNL     1      13.258  44.243  46.460  0.00  0.00    +0.000 OA
BRANCH  21  22
ATOM     22  C   UNL     1      12.891  43.333  45.426  0.00  0.00    +0.000 C 
BRANCH  22  23
ATOM     23  C   UNL     1      13.993  43.301  44.393  0.00  0.00    +0.000 A 
ATOM     24  C   UNL     1      15.287  42.887  44.736  0.00  0.00    +0.000 A 
ATOM     25  C   UNL     1      16.305  42.878  43.777  0.00  0.00    +0.000 A 
ATOM     26  C   UNL     1      16.038  43.282  42.471  0.00  0.00    +0.000 A 
ATOM     27  C   UNL     1      14.755  43.695  42.118  0.00  0.00    +0.000 A 
ATOM     28  C   UNL     1      13.737  43.705  43.074  0.00  0.00    +0.000 A 
ENDBRANCH  22  23
ENDBRANCH  21  22
ENDBRANCH  18  21
ENDBRANCH   1  15
TORSDOF 6
ENDMDL
MODEL 2
REMARK VINA RESULT:    -6.210     13.717     17.402
REMARK INTER + INTRA:          -9.119
REMARK INTER:                  -7.835
REMARK INTRA:                  -1.284
REMARK UNBOUND:                -0.730
REMARK  Name = 
REMARK  7 active torsions:
REMARK  status: ('A' for Active; 'I' for Inactive)
REMARK    1  A    between atoms: C_1  and  O_2
REMARK    2  A    between atoms: O_2  and  C_3
REMARK    3  A    between atoms: C_10  and  N_11
REMARK    4  A    between atoms: N_11  and  C_12
REMARK    5  A    between atoms: C_15  and  O_16
REMARK    6  A    between atoms: O_16  and  C_17
REMARK    7  A    between atoms: C_17  and  C_18
REMARK                            x       y       z     vdW  Elec       q    Type
REMARK                         _______ _______ _______ _____ _____    ______ ____
ROOT
ATOM      1  N   UNL     1      20.836  33.183  52.022  0.00  0.00    +0.000 N 
ATOM      2  H   UNL     1      20.241  32.683  52.674  0.00  0.00    +0.000 HD
ENDROOT
BRANCH   1  10
ATOM      3  C   UNL     1      21.692  34.282  56.096  0.00  0.00    +0.000 A 
ATOM      4  C   UNL     1      23.029  34.310  56.475  0.00  0.00    +0.000 A 
ATOM      5  C   UNL     1      24.029  33.949  55.568  0.00  0.00    +0.000 A 
ATOM      6  C   UNL     1      23.732  33.562  54.269  0.00  0.00    +0.000 A 
ATOM      7  N   UNL     1      24.737  33.221  53.460  0.00  0.00    +0.000 NA
ATOM      8  C   UNL     1      24.408  32.847  52.220  0.00  0.00    +0.000 A 
ATOM      9  N   UNL     1      23.174  32.801  51.712  0.00  0.00    +0.000 NA
ATOM     10  C   UNL     1      22.167  33.162  52.527  0.00  0.00    +0.000 A 
ATOM     11  C   UNL     1      22.390  33.550  53.864  0.00  0.00    +0.000 A 
ATOM     12  C   UNL     1      21.373  33.904  54.794  0.00  0.00    +0.000 A 
BRANCH   3  14
ATOM     13  C   UNL     1      19.508  34.073  57.015  0.00  0.00    +0.000 C 
ATOM     14  O   UNL     1      20.810  34.643  57.074  0.00  0.00    +0.000 OA
ENDBRANCH   3  14
ENDBRANCH   1  10
BRANCH   1  15
ATOM     15  C   UNL     1      20.147  34.258  51.418  0.00  0.00    +0.000 A 
ATOM     16  C   UNL     1      18.873  34.124  50.860  0.00  0.00    +0.000 A 
ATOM     17  C   UNL     1      18.195  35.231  50.339  0.00  0.00    +0.000 A 
ATOM     18  C   UNL     1      18.763  36.503  50.385  0.00  0.00    +0.000 A 
ATOM     19  C   UNL     1      20.017  36.660  50.972  0.00  0.00    +0.000 A 
ATOM     20  C   UNL     1      20.693  35.548  51.493  0.00  0.00    +0.000 A 
BRANCH  18  21
ATOM     21  O   UNL     1      17.995  37.494  49.842  0.00  0.00    +0.000 OA
BRANCH  21  22
ATOM     22  C   UNL     1      16.788  37.829  50.524  0.00  0.00    +0.000 C 
BRANCH  22  23
ATOM     23  C   UNL     1      17.138  38.520  51.820  0.00  0.00    +0.000 A 
ATOM     24  C   UNL     1      16.820  37.936  53.055  0.00  0.00    +0.000 A 
ATOM     25  C   UNL     1      17.132  38.591  54.249  0.00  0.00    +0.000 A 
ATOM     26  C   UNL     1      17.763  39.833  54.221  0.00  0.00    +0.000 A 
ATOM     27  C   UNL     1      18.085  40.423  53.001  0.00  0.00    +0.000 A 
ATOM     28  C   UNL     1      17.773  39.771  51.807  0.00  0.00    +0.000 A 
ENDBRANCH  22  23
ENDBRANCH  21  22
ENDBRANCH  18  21
ENDBRANCH   1  15
TORSDOF 6
ENDMDL
MODEL 3
REMARK VINA RESULT:    -6.196      3.354      9.008
REMARK INTER + INTRA:          -9.099
REMARK INTER:                  -8.369
REMARK INTRA:                  -0.730
REMARK UNBOUND:                -0.730
REMARK  Name = 
REMARK  7 active torsions:
REMARK  status: ('A' for Active; 'I' for Inactive)
REMARK    1  A    between atoms: C_1  and  O_2
REMARK    2  A    between atoms: O_2  and  C_3
REMARK    3  A    between atoms: C_10  and  N_11
REMARK    4  A    between atoms: N_11  and  C_12
REMARK    5  A    between atoms: C_15  and  O_16
REMARK    6  A    between atoms: O_16  and  C_17
REMARK    7  A    between atoms: C_17  and  C_18
REMARK                            x       y       z     vdW  Elec       q    Type
REMARK                         _______ _______ _______ _____ _____    ______ ____
ROOT
ATOM      1  N   UNL     1      14.737  44.471  45.505  0.00  0.00    +0.000 N 
ATOM      2  H   UNL     1      15.595  44.499  46.045  0.00  0.00    +0.000 HD
ENDROOT
BRANCH   1  10
ATOM      3  C   UNL     1      16.065  40.380  45.712  0.00  0.00    +0.000 A 
ATOM      4  C   UNL     1      16.352  39.748  44.508  0.00  0.00    +0.000 A 
ATOM      5  C   UNL     1      16.166  40.417  43.295  0.00  0.00    +0.000 A 
ATOM      6  C   UNL     1      15.702  41.724  43.247  0.00  0.00    +0.000 A 
ATOM      7  N   UNL     1      15.538  42.297  42.053  0.00  0.00    +0.000 NA
ATOM      8  C   UNL     1      15.082  43.553  42.048  0.00  0.00    +0.000 A 
ATOM      9  N   UNL     1      14.794  44.291  43.123  0.00  0.00    +0.000 NA
ATOM     10  C   UNL     1      14.978  43.713  44.324  0.00  0.00    +0.000 A 
ATOM     11  C   UNL     1      15.429  42.384  44.453  0.00  0.00    +0.000 A 
ATOM     12  C   UNL     1      15.606  41.695  45.685  0.00  0.00    +0.000 A 
BRANCH   3  14
ATOM     13  C   UNL     1      17.066  38.446  46.669  0.00  0.00    +0.000 C 
ATOM     14  O   UNL     1      16.275  39.618  46.826  0.00  0.00    +0.000 OA
ENDBRANCH   3  14
ENDBRANCH   1  10
BRANCH   1  15
ATOM     15  C   UNL     1      14.005  45.671  45.640  0.00  0.00    +0.000 A 
ATOM     16  C   UNL     1      12.776  45.740  46.302  0.00  0.00    +0.000 A 
ATOM     17  C   UNL     1      12.120  46.963  46.478  0.00  0.00    +0.000 A 
ATOM     18  C   UNL     1      12.689  48.150  46.018  0.00  0.00    +0.000 A 
ATOM     19  C   UNL     1      13.931  48.104  45.390  0.00  0.00    +0.000 A 
ATOM     20  C   UNL     1      14.584  46.876  45.215  0.00  0.00    +0.000 A 
BRANCH  18  21
ATOM     21  O   UNL     1      11.944  49.271  46.256  0.00  0.00    +0.000 OA
BRANCH  21  22
ATOM     22  C   UNL     1      12.367  50.479  45.627  0.00  0.00    +0.000 C 
BRANCH  22  23
ATOM     23  C   UNL     1      13.075  51.337  46.649  0.00  0.00    +0.000 A 
ATOM     24  C   UNL     1      12.483  51.613  47.890  0.00  0.00    +0.000 A 
ATOM     25  C   UNL     1      13.138  52.422  48.822  0.00  0.00    +0.000 A 
ATOM     26  C   UNL     1      14.388  52.961  48.524  0.00  0.00    +0.000 A 
ATOM     27  C   UNL     1      14.987  52.692  47.295  0.00  0.00    +0.000 A 
ATOM     28  C   UNL     1      14.334  51.885  46.362  0.00  0.00    +0.000 A 
ENDBRANCH  22  23
ENDBRANCH  21  22
ENDBRANCH  18  21
ENDBRANCH   1  15
TORSDOF 6
ENDMDL
