MODEL 1
REMARK VINA RESULT:    -7.195      0.000      0.000
REMARK INTER + INTRA:          -9.266
REMARK INTER:                  -8.798
REMARK INTRA:                  -0.467
REMARK UNBOUND:                -0.598
REMARK  Name = 
REMARK  8 active torsions:
REMARK  status: ('A' for Active; 'I' for Inactive)
REMARK    1  A    between atoms: C_1  and  C_2
REMARK    2  A    between atoms: C_4  and  C_5
REMARK    3  A    between atoms: C_8  and  C_9
REMARK    4  A    between atoms: C_12  and  C_13
REMARK    5  A    between atoms: C_16  and  C_17
REMARK    6  A    between atoms: C_21  and  C_22
REMARK    7  A    between atoms: C_24  and  C_25
REMARK    8  A    between atoms: C_25  and  O_27
REMARK                            x       y       z     vdW  Elec       q    Type
REMARK                         _______ _______ _______ _____ _____    ______ ____
ROOT
ATOM      1  C   UNL     1      13.734  46.608  45.465  0.00  0.00    +0.000 A 
ATOM      2  C   UNL     1      12.703  46.164  46.273  0.00  0.00    +0.000 A 
ATOM      3  C   UNL     1      12.871  44.770  46.468  0.00  0.00    +0.000 A 
ATOM      4  C   UNL     1      13.999  44.386  45.776  0.00  0.00    +0.000 A 
ATOM      5  N   UNL     1      14.509  45.509  45.173  0.00  0.00    +0.000 N 
ATOM      6  H   UNL     1      15.346  45.519  44.606  0.00  0.00    +0.000 HD
ENDROOT
BRANCH   4   7
ATOM      7  C   UNL     1      14.627  43.112  45.628  0.00  0.00    +0.000 A 
ATOM      8  C   UNL     1      14.865  42.140  46.583  0.00  0.00    +0.000 A 
ATOM      9  C   UNL     1      15.517  41.052  45.938  0.00  0.00    +0.000 A 
ATOM     10  C   UNL     1      16.013  39.792  46.344  0.00  0.00    +0.000 A 
ATOM     11  C   UNL     1      15.937  39.274  47.753  0.00  0.00    +0.000 C 
ATOM     12  C   UNL     1      16.611  38.987  45.353  0.00  0.00    +0.000 A 
ATOM     13  C   UNL     1      16.714  39.407  44.023  0.00  0.00    +0.000 A 
ATOM     14  C   UNL     1      16.226  40.654  43.604  0.00  0.00    +0.000 A 
ATOM     15  C   UNL     1      16.348  41.082  42.175  0.00  0.00    +0.000 C 
ATOM     16  C   UNL     1      15.638  41.432  44.607  0.00  0.00    +0.000 A 
ATOM     17  O   UNL     1      15.102  42.672  44.422  0.00  0.00    +0.000 OA
ENDBRANCH   4   7
BRANCH   1  21
ATOM     18  C   UNL     1      17.124  50.186  44.921  0.00  0.00    +0.000 C 
ATOM     19  C   UNL     1      15.715  49.722  44.675  0.00  0.00    +0.000 A 
ATOM     20  C   UNL     1      15.336  48.451  45.147  0.00  0.00    +0.000 A 
ATOM     21  C   UNL     1      14.042  47.942  44.952  0.00  0.00    +0.000 A 
ATOM     22  C   UNL     1      13.090  48.722  44.277  0.00  0.00    +0.000 A 
ATOM     23  C   UNL     1      11.685  48.240  44.037  0.00  0.00    +0.000 C 
ATOM     24  C   UNL     1      13.466  49.989  43.796  0.00  0.00    +0.000 A 
ATOM     25  C   UNL     1      14.763  50.501  43.989  0.00  0.00    +0.000 A 
BRANCH  25  26
ATOM     26  C   UNL     1      15.102  51.861  43.468  0.00  0.00    +0.000 C 
ATOM     27  O   UNL     1      15.616  52.136  42.400  0.00  0.00    +0.000 OA
BRANCH  26  28
ATOM     28  O   UNL     1      14.767  52.843  44.326  0.00  0.00    +0.000 OA
ATOM     29  H   UNL     1      13.925  53.188  43.962  0.00  0.00    +0.000 HD
ENDBRANCH  26  28
ENDBRANCH  25  26
ENDBRANCH   1  21
TORSDOF 4
ENDMDL
MODEL 2
REMARK VINA RESULT:    -6.985      0.696      2.018
REMARK INTER + INTRA:          -9.012
REMARK INTER:                  -8.494
REMARK INTRA:                  -0.519
REMARK UNBOUND:                -0.598
REMARK  Name = 
REMARK  8 active torsions:
REMARK  status: ('A' for Active; 'I' for Inactive)
REMARK    1  A    between atoms: C_1  and  C_2
REMARK    2  A    between atoms: C_4  and  C_5
REMARK    3  A    between atoms: C_8  and  C_9
REMARK    4  A    between atoms: C_12  and  C_13
REMARK    5  A    between atoms: C_16  and  C_17
REMARK    6  A    between atoms: C_21  and  C_22
REMARK    7  A    between atoms: C_24  and  C_25
REMARK    8  A    between atoms: C_25  and  O_27
REMARK                            x       y       z     vdW  Elec       q    Type
REMARK                         _______ _______ _______ _____ _____    ______ ____
ROOT
ATOM      1  C   UNL     1      13.834  46.179  45.376  0.00  0.00    +0.000 A 
ATOM      2  C   UNL     1      12.920  45.632  46.258  0.00  0.00    +0.000 A 
ATOM      3  C   UNL     1      13.169  44.237  46.335  0.00  0.00    +0.000 A 
ATOM      4  C   UNL     1      14.228  43.958  45.497  0.00  0.00    +0.000 A 
ATOM      5  N   UNL     1      14.618  45.142  44.924  0.00  0.00    +0.000 N 
ATOM      6  H   UNL     1      15.384  45.231  44.270  0.00  0.00    +0.000 HD
ENDROOT
BRANCH   4   7
ATOM      7  C   UNL     1      14.888  42.730  45.192  0.00  0.00    +0.000 A 
ATOM      8  C   UNL     1      15.392  42.285  43.983  0.00  0.00    +0.000 A 
ATOM      9  C   UNL     1      15.958  40.997  44.198  0.00  0.00    +0.000 A 
ATOM     10  C   UNL     1      16.611  40.038  43.391  0.00  0.00    +0.000 A 
ATOM     11  C   UNL     1      16.878  40.216  41.923  0.00  0.00    +0.000 C 
ATOM     12  C   UNL     1      17.029  38.847  44.020  0.00  0.00    +0.000 A 
ATOM     13  C   UNL     1      16.813  38.616  45.382  0.00  0.00    +0.000 A 
ATOM     14  C   UNL     1      16.167  39.558  46.196  0.00  0.00    +0.000 A 
ATOM     15  C   UNL     1      15.946  39.288  47.651  0.00  0.00    +0.000 C 
ATOM     16  C   UNL     1      15.761  40.730  45.547  0.00  0.00    +0.000 A 
ATOM     17  O   UNL     1      15.119  41.772  46.144  0.00  0.00    +0.000 OA
ENDBRANCH   4   7
BRANCH   1  21
ATOM     18  C   UNL     1      16.891  50.069  45.041  0.00  0.00    +0.000 C 
ATOM     19  C   UNL     1      15.532  49.492  44.754  0.00  0.00    +0.000 A 
ATOM     20  C   UNL     1      15.266  48.171  45.163  0.00  0.00    +0.000 A 
ATOM     21  C   UNL     1      14.025  47.557  44.928  0.00  0.00    +0.000 A 
ATOM     22  C   UNL     1      13.012  48.279  44.276  0.00  0.00    +0.000 A 
ATOM     23  C   UNL     1      11.659  47.684  43.995  0.00  0.00    +0.000 C 
ATOM     24  C   UNL     1      13.277  49.595  43.858  0.00  0.00    +0.000 A 
ATOM     25  C   UNL     1      14.520  50.212  44.091  0.00  0.00    +0.000 A 
BRANCH  25  26
ATOM     26  C   UNL     1      14.739  51.620  43.637  0.00  0.00    +0.000 C 
ATOM     27  O   UNL     1      15.261  51.990  42.603  0.00  0.00    +0.000 OA
BRANCH  26  28
ATOM     28  O   UNL     1      14.276  52.527  44.518  0.00  0.00    +0.000 OA
ATOM     29  H   UNL     1      15.087  52.989  44.819  0.00  0.00    +0.000 HD
ENDBRANCH  26  28
ENDBRANCH  25  26
ENDBRANCH   1  21
TORSDOF 4
ENDMDL
MODEL 3
REMARK VINA RESULT:    -6.814      4.803     11.051
REMARK INTER + INTRA:          -8.806
REMARK INTER:                  -8.208
REMARK INTRA:                  -0.598
REMARK UNBOUND:                -0.598
REMARK  Name = 
REMARK  8 active torsions:
REMARK  status: ('A' for Active; 'I' for Inactive)
REMARK    1  A    between atoms: C_1  and  C_2
REMARK    2  A    between atoms: C_4  and  C_5
REMARK    3  A    between atoms: C_8  and  C_9
REMARK    4  A    between atoms: C_12  and  C_13
REMARK    5  A    between atoms: C_16  and  C_17
REMARK    6  A    between atoms: C_21  and  C_22
REMARK    7  A    between atoms: C_24  and  C_25
REMARK    8  A    between atoms: C_25  and  O_27
REMARK                            x       y       z     vdW  Elec       q    Type
REMARK                         _______ _______ _______ _____ _____    ______ ____
ROOT
ATOM      1  C   UNL     1      16.502  38.219  48.981  0.00  0.00    +0.000 A 
ATOM      2  C   UNL     1      15.138  38.033  49.113  0.00  0.00    +0.000 A 
ATOM      3  C   UNL     1      14.487  38.948  48.247  0.00  0.00    +0.000 A 
ATOM      4  C   UNL     1      15.463  39.678  47.603  0.00  0.00    +0.000 A 
ATOM      5  N   UNL     1      16.676  39.226  48.059  0.00  0.00    +0.000 N 
ATOM      6  H   UNL     1      17.570  39.583  47.746  0.00  0.00    +0.000 HD
ENDROOT
BRANCH   4   7
ATOM      7  C   UNL     1      15.374  40.722  46.634  0.00  0.00    +0.000 A 
ATOM      8  C   UNL     1      14.767  41.961  46.738  0.00  0.00    +0.000 A 
ATOM      9  C   UNL     1      14.955  42.639  45.501  0.00  0.00    +0.000 A 
ATOM     10  C   UNL     1      14.587  43.900  44.979  0.00  0.00    +0.000 A 
ATOM     11  C   UNL     1      13.809  44.932  45.745  0.00  0.00    +0.000 C 
ATOM     12  C   UNL     1      14.985  44.189  43.657  0.00  0.00    +0.000 A 
ATOM     13  C   UNL     1      15.711  43.274  42.888  0.00  0.00    +0.000 A 
ATOM     14  C   UNL     1      16.084  42.019  43.392  0.00  0.00    +0.000 A 
ATOM     15  C   UNL     1      16.860  41.056  42.549  0.00  0.00    +0.000 C 
ATOM     16  C   UNL     1      15.676  41.758  44.705  0.00  0.00    +0.000 A 
ATOM     17  O   UNL     1      15.928  40.606  45.388  0.00  0.00    +0.000 OA
ENDBRANCH   4   7
BRANCH   1  21
ATOM     18  C   UNL     1      19.977  34.690  48.732  0.00  0.00    +0.000 C 
ATOM     19  C   UNL     1      19.355  35.808  49.523  0.00  0.00    +0.000 A 
ATOM     20  C   UNL     1      18.259  36.494  48.965  0.00  0.00    +0.000 A 
ATOM     21  C   UNL     1      17.626  37.553  49.636  0.00  0.00    +0.000 A 
ATOM     22  C   UNL     1      18.088  37.938  50.904  0.00  0.00    +0.000 A 
ATOM     23  C   UNL     1      17.455  39.061  51.681  0.00  0.00    +0.000 C 
ATOM     24  C   UNL     1      19.187  37.261  51.462  0.00  0.00    +0.000 A 
ATOM     25  C   UNL     1      19.824  36.200  50.791  0.00  0.00    +0.000 A 
BRANCH  25  26
ATOM     26  C   UNL     1      20.980  35.508  51.440  0.00  0.00    +0.000 C 
ATOM     27  O   UNL     1      20.952  34.774  52.409  0.00  0.00    +0.000 OA
BRANCH  26  28
ATOM     28  O   UNL     1      22.150  35.767  50.826  0.00  0.00    +0.000 OA
ATOM     29  H   UNL     1      22.194  35.090  50.119  0.00  0.00    +0.000 HD
ENDBRANCH  26  28
ENDBRANCH  25  26
ENDBRANCH   1  21
TORSDOF 4
ENDMDL
