MODEL 1
REMARK VINA RESULT:    -7.558      0.000      0.000
REMARK INTER + INTRA:          -9.709
REMARK INTER:                  -9.165
REMARK INTRA:                  -0.544
REMARK UNBOUND:                -0.604
REMARK  Name = 
REMARK  6 active torsions:
REMARK  status: ('A' for Active; 'I' for Inactive)
REMARK    1  A    between atoms: C_1  and  C_2
REMARK    2  A    between atoms: C_5  and  C_6
REMARK    3  A    between atoms: C_9  and  C_10
REMARK    4  A    between atoms: C_13  and  C_14
REMARK    5  A    between atoms: C_19  and  C_20
REMARK    6  A    between atoms: C_20  and  O_22
REMARK                            x       y       z     vdW  Elec       q    Type
REMARK                         _______ _______ _______ _____ _____    ______ ____
ROOT
ATOM      1  C   UNL     1      13.982  46.462  45.676  0.00  0.00    +0.000 A 
ATOM      2  C   UNL     1      12.849  45.932  46.257  0.00  0.00    +0.000 A 
ATOM      3  C   UNL     1      12.978  44.522  46.245  0.00  0.00    +0.000 A 
ATOM      4  C   UNL     1      14.196  44.206  45.667  0.00  0.00    +0.000 A 
ATOM      5  N   UNL     1      14.784  45.405  45.321  0.00  0.00    +0.000 N 
ATOM      6  H   UNL     1      15.672  45.488  44.850  0.00  0.00    +0.000 HD
ENDROOT
BRANCH   1  15
ATOM      7  C   UNL     1      17.621  50.797  44.301  0.00  0.00    +0.000 C 
ATOM      8  C   UNL     1      16.167  50.909  44.666  0.00  0.00    +0.000 A 
ATOM      9  C   UNL     1      15.568  52.184  44.690  0.00  0.00    +0.000 A 
ATOM     10  C   UNL     1      14.220  52.360  45.019  0.00  0.00    +0.000 A 
ATOM     11  C   UNL     1      13.392  51.274  45.342  0.00  0.00    +0.000 A 
ATOM     12  C   UNL     1      11.953  51.486  45.690  0.00  0.00    +0.000 C 
ATOM     13  C   UNL     1      14.013  50.021  45.310  0.00  0.00    +0.000 A 
ATOM     14  O   UNL     1      13.400  48.837  45.586  0.00  0.00    +0.000 OA
ATOM     15  C   UNL     1      14.321  47.833  45.451  0.00  0.00    +0.000 A 
ATOM     16  C   UNL     1      15.532  48.396  45.083  0.00  0.00    +0.000 A 
ATOM     17  C   UNL     1      15.346  49.804  44.988  0.00  0.00    +0.000 A 
ENDBRANCH   1  15
BRANCH   4  18
ATOM     18  C   UNL     1      14.816  42.908  45.401  0.00  0.00    +0.000 A 
ATOM     19  C   UNL     1      14.911  41.952  46.418  0.00  0.00    +0.000 A 
ATOM     20  C   UNL     1      15.495  40.706  46.174  0.00  0.00    +0.000 A 
ATOM     21  C   UNL     1      16.004  40.389  44.906  0.00  0.00    +0.000 A 
ATOM     22  C   UNL     1      16.593  39.140  44.648  0.00  0.00    +0.000 A 
ATOM     23  C   UNL     1      17.102  38.841  43.378  0.00  0.00    +0.000 A 
ATOM     24  C   UNL     1      17.022  39.793  42.358  0.00  0.00    +0.000 A 
ATOM     25  C   UNL     1      16.437  41.037  42.603  0.00  0.00    +0.000 A 
ATOM     26  C   UNL     1      15.922  41.349  43.871  0.00  0.00    +0.000 A 
ATOM     27  C   UNL     1      15.329  42.597  44.133  0.00  0.00    +0.000 A 
BRANCH  23  28
ATOM     28  C   UNL     1      17.731  37.534  43.070  0.00  0.00    +0.000 C 
ATOM     29  O   UNL     1      18.927  37.309  43.038  0.00  0.00    +0.000 OA
BRANCH  28  30
ATOM     30  O   UNL     1      16.833  36.567  42.815  0.00  0.00    +0.000 OA
ATOM     31  H   UNL     1      17.123  35.822  43.382  0.00  0.00    +0.000 HD
ENDBRANCH  28  30
ENDBRANCH  23  28
ENDBRANCH   4  18
TORSDOF 4
ENDMDL
MODEL 2
REMARK VINA RESULT:    -7.553      0.994      2.012
REMARK INTER + INTRA:          -9.703
REMARK INTER:                  -9.111
REMARK INTRA:                  -0.592
REMARK UNBOUND:                -0.604
REMARK  Name = 
REMARK  6 active torsions:
REMARK  status: ('A' for Active; 'I' for Inactive)
REMARK    1  A    between atoms: C_1  and  C_2
REMARK    2  A    between atoms: C_5  and  C_6
REMARK    3  A    between atoms: C_9  and  C_10
REMARK    4  A    between atoms: C_13  and  C_14
REMARK    5  A    between atoms: C_19  and  C_20
REMARK    6  A    between atoms: C_20  and  O_22
REMARK                            x       y       z     vdW  Elec       q    Type
REMARK                         _______ _______ _______ _____ _____    ______ ____
ROOT
ATOM      1  C   UNL     1      13.939  46.952  45.311  0.00  0.00    +0.000 A 
ATOM      2  C   UNL     1      12.952  46.491  46.157  0.00  0.00    +0.000 A 
ATOM      3  C   UNL     1      13.111  45.090  46.281  0.00  0.00    +0.000 A 
ATOM      4  C   UNL     1      14.203  44.710  45.519  0.00  0.00    +0.000 A 
ATOM      5  N   UNL     1      14.684  45.862  44.931  0.00  0.00    +0.000 N 
ATOM      6  H   UNL     1      15.463  45.891  44.291  0.00  0.00    +0.000 HD
ENDROOT
BRANCH   1  15
ATOM      7  C   UNL     1      12.375  52.188  43.295  0.00  0.00    +0.000 C 
ATOM      8  C   UNL     1      13.765  51.712  43.613  0.00  0.00    +0.000 A 
ATOM      9  C   UNL     1      14.846  52.594  43.422  0.00  0.00    +0.000 A 
ATOM     10  C   UNL     1      16.165  52.218  43.700  0.00  0.00    +0.000 A 
ATOM     11  C   UNL     1      16.479  50.938  44.184  0.00  0.00    +0.000 A 
ATOM     12  C   UNL     1      17.896  50.557  44.475  0.00  0.00    +0.000 C 
ATOM     13  C   UNL     1      15.387  50.084  44.365  0.00  0.00    +0.000 A 
ATOM     14  O   UNL     1      15.462  48.805  44.824  0.00  0.00    +0.000 OA
ATOM     15  C   UNL     1      14.195  48.287  44.868  0.00  0.00    +0.000 A 
ATOM     16  C   UNL     1      13.310  49.258  44.428  0.00  0.00    +0.000 A 
ATOM     17  C   UNL     1      14.065  50.420  44.102  0.00  0.00    +0.000 A 
ENDBRANCH   1  15
BRANCH   4  18
ATOM     18  C   UNL     1      14.793  43.391  45.289  0.00  0.00    +0.000 A 
ATOM     19  C   UNL     1      14.830  42.448  46.321  0.00  0.00    +0.000 A 
ATOM     20  C   UNL     1      15.385  41.183  46.111  0.00  0.00    +0.000 A 
ATOM     21  C   UNL     1      15.919  40.833  44.863  0.00  0.00    +0.000 A 
ATOM     22  C   UNL     1      16.480  39.564  44.640  0.00  0.00    +0.000 A 
ATOM     23  C   UNL     1      17.016  39.231  43.389  0.00  0.00    +0.000 A 
ATOM     24  C   UNL     1      16.992  40.170  42.354  0.00  0.00    +0.000 A 
ATOM     25  C   UNL     1      16.437  41.434  42.565  0.00  0.00    +0.000 A 
ATOM     26  C   UNL     1      15.895  41.779  43.813  0.00  0.00    +0.000 A 
ATOM     27  C   UNL     1      15.331  43.048  44.041  0.00  0.00    +0.000 A 
BRANCH  23  28
ATOM     28  C   UNL     1      17.615  37.903  43.118  0.00  0.00    +0.000 C 
ATOM     29  O   UNL     1      18.537  37.679  42.355  0.00  0.00    +0.000 OA
BRANCH  28  30
ATOM     30  O   UNL     1      17.030  36.912  43.813  0.00  0.00    +0.000 OA
ATOM     31  H   UNL     1      17.775  36.485  44.285  0.00  0.00    +0.000 HD
ENDBRANCH  28  30
ENDBRANCH  23  28
ENDBRANCH   4  18
TORSDOF 4
ENDMDL
MODEL 3
REMARK VINA RESULT:    -7.260      5.491      9.709
REMARK INTER + INTRA:          -9.349
REMARK INTER:                  -8.745
REMARK INTRA:                  -0.604
REMARK UNBOUND:                -0.604
REMARK  Name = 
REMARK  6 active torsions:
REMARK  status: ('A' for Active; 'I' for Inactive)
REMARK    1  A    between atoms: C_1  and  C_2
REMARK    2  A    between atoms: C_5  and  C_6
REMARK    3  A    between atoms: C_9  and  C_10
REMARK    4  A    between atoms: C_13  and  C_14
REMARK    5  A    between atoms: C_19  and  C_20
REMARK    6  A    between atoms: C_20  and  O_22
REMARK                            x       y       z     vdW  Elec       q    Type
REMARK                         _______ _______ _______ _____ _____    ______ ____
ROOT
ATOM      1  C   UNL     1      17.070  38.385  49.187  0.00  0.00    +0.000 A 
ATOM      2  C   UNL     1      17.474  37.210  48.589  0.00  0.00    +0.000 A 
ATOM      3  C   UNL     1      17.366  37.380  47.188  0.00  0.00    +0.000 A 
ATOM      4  C   UNL     1      16.907  38.664  46.944  0.00  0.00    +0.000 A 
ATOM      5  N   UNL     1      16.726  39.252  48.179  0.00  0.00    +0.000 N 
ATOM      6  H   UNL     1      16.367  40.185  48.317  0.00  0.00    +0.000 HD
ENDROOT
BRANCH   1  15
ATOM      7  C   UNL     1      17.440  37.166  54.871  0.00  0.00    +0.000 C 
ATOM      8  C   UNL     1      17.078  38.483  54.243  0.00  0.00    +0.000 A 
ATOM      9  C   UNL     1      16.789  39.578  55.080  0.00  0.00    +0.000 A 
ATOM     10  C   UNL     1      16.446  40.832  54.563  0.00  0.00    +0.000 A 
ATOM     11  C   UNL     1      16.373  41.065  53.180  0.00  0.00    +0.000 A 
ATOM     12  C   UNL     1      16.005  42.414  52.650  0.00  0.00    +0.000 C 
ATOM     13  C   UNL     1      16.665  39.960  52.374  0.00  0.00    +0.000 A 
ATOM     14  O   UNL     1      16.656  39.961  51.013  0.00  0.00    +0.000 OA
ATOM     15  C   UNL     1      16.992  38.707  50.578  0.00  0.00    +0.000 A 
ATOM     16  C   UNL     1      17.216  37.905  51.685  0.00  0.00    +0.000 A 
ATOM     17  C   UNL     1      17.010  38.701  52.848  0.00  0.00    +0.000 A 
ENDBRANCH   1  15
BRANCH   4  18
ATOM     18  C   UNL     1      16.613  39.348  45.684  0.00  0.00    +0.000 A 
ATOM     19  C   UNL     1      16.858  38.710  44.464  0.00  0.00    +0.000 A 
ATOM     20  C   UNL     1      16.574  39.350  43.255  0.00  0.00    +0.000 A 
ATOM     21  C   UNL     1      16.042  40.647  43.239  0.00  0.00    +0.000 A 
ATOM     22  C   UNL     1      15.752  41.302  42.029  0.00  0.00    +0.000 A 
ATOM     23  C   UNL     1      15.226  42.600  42.030  0.00  0.00    +0.000 A 
ATOM     24  C   UNL     1      14.987  43.250  43.244  0.00  0.00    +0.000 A 
ATOM     25  C   UNL     1      15.270  42.609  44.451  0.00  0.00    +0.000 A 
ATOM     26  C   UNL     1      15.796  41.306  44.465  0.00  0.00    +0.000 A 
ATOM     27  C   UNL     1      16.086  40.647  45.673  0.00  0.00    +0.000 A 
BRANCH  23  28
ATOM     28  C   UNL     1      14.909  43.321  40.773  0.00  0.00    +0.000 C 
ATOM     29  O   UNL     1      14.957  44.527  40.612  0.00  0.00    +0.000 OA
BRANCH  28  30
ATOM     30  O   UNL     1      14.544  42.498  39.775  0.00  0.00    +0.000 OA
ATOM     31  H   UNL     1      15.171  41.748  39.848  0.00  0.00    +0.000 HD
ENDBRANCH  28  30
ENDBRANCH  23  28
ENDBRANCH   4  18
TORSDOF 4
ENDMDL
