MODEL 1
REMARK VINA RESULT:    -8.099      0.000      0.000
REMARK INTER + INTRA:         -12.492
REMARK INTER:                 -10.866
REMARK INTRA:                  -1.626
REMARK UNBOUND:                -0.842
REMARK  Name = 
REMARK  8 active torsions:
REMARK  status: ('A' for Active; 'I' for Inactive)
REMARK    1  A    between atoms: C_2  and  O_3
REMARK    2  A    between atoms: C_2  and  C_4
REMARK    3  A    between atoms: C_8  and  C_9
REMARK    4  A    between atoms: C_9  and  N_10
REMARK    5  A    between atoms: C_13  and  C_14
REMARK    6  A    between atoms: C_18  and  C_19
REMARK    7  A    between atoms: C_19  and  S_20
REMARK    8  A    between atoms: S_20  and  C_21
REMARK                            x       y       z     vdW  Elec       q    Type
REMARK                         _______ _______ _______ _____ _____    ______ ____
ROOT
ATOM      1  C   UNL     1      21.904  34.283  54.986  0.00  0.00    +0.000 A 
ATOM      2  C   UNL     1      23.097  34.145  55.710  0.00  0.00    +0.000 A 
ATOM      3  C   UNL     1      24.262  33.701  55.081  0.00  0.00    +0.000 A 
ATOM      4  C   UNL     1      24.243  33.370  53.726  0.00  0.00    +0.000 A 
ATOM      5  C   UNL     1      23.062  33.486  52.983  0.00  0.00    +0.000 A 
ATOM      6  C   UNL     1      21.904  33.962  53.622  0.00  0.00    +0.000 A 
ENDROOT
BRANCH   1  10
ATOM      7  N   UNL     1      18.747  35.309  56.073  0.00  0.00    +0.000 N 
ATOM      8  N   UNL     1      19.349  35.267  57.273  0.00  0.00    +0.000 NA
ATOM      9  N   UNL     1      20.591  34.886  57.012  0.00  0.00    +0.000 NA
ATOM     10  C   UNL     1      20.686  34.727  55.647  0.00  0.00    +0.000 A 
ATOM     11  N   UNL     1      19.533  35.016  55.016  0.00  0.00    +0.000 NA
BRANCH   7  12
ATOM     12  C   UNL     1      17.373  35.745  55.925  0.00  0.00    +0.000 C 
BRANCH  12  17
ATOM     13  C   UNL     1      17.224  39.455  55.006  0.00  0.00    +0.000 A 
ATOM     14  C   UNL     1      17.022  40.039  56.260  0.00  0.00    +0.000 A 
ATOM     15  C   UNL     1      16.931  39.235  57.399  0.00  0.00    +0.000 A 
ATOM     16  C   UNL     1      17.039  37.848  57.286  0.00  0.00    +0.000 A 
ATOM     17  C   UNL     1      17.243  37.244  56.038  0.00  0.00    +0.000 A 
ATOM     18  C   UNL     1      17.339  38.061  54.900  0.00  0.00    +0.000 A 
BRANCH  13  20
ATOM     19  O   UNL     1      16.392  40.642  53.089  0.00  0.00    +0.000 OA
ATOM     20  C   UNL     1      17.326  40.268  53.770  0.00  0.00    +0.000 C 
BRANCH  20  21
ATOM     21  O   UNL     1      18.593  40.585  53.453  0.00  0.00    +0.000 OA
ATOM     22  H   UNL     1      18.541  41.532  53.202  0.00  0.00    +0.000 HD
ENDBRANCH  20  21
ENDBRANCH  13  20
ENDBRANCH  12  17
ENDBRANCH   7  12
ENDBRANCH   1  10
BRANCH   5  23
ATOM     23  C   UNL     1      23.028  33.077  51.530  0.00  0.00    +0.000 C 
BRANCH  23  24
ATOM     24  S   UNL     1      23.436  34.435  50.397  0.00  0.00    +0.000 S 
BRANCH  24  25
ATOM     25  C   UNL     1      21.813  35.073  50.026  0.00  0.00    +0.000 A 
ATOM     26  C   UNL     1      21.247  34.768  48.793  0.00  0.00    +0.000 A 
ATOM     27  C   UNL     1      19.994  35.287  48.486  0.00  0.00    +0.000 A 
ATOM     28  C   UNL     1      19.340  36.103  49.414  0.00  0.00    +0.000 A 
ATOM     29  C   UNL     1      18.073  36.649  49.152  0.00  0.00    +0.000 A 
ATOM     30  C   UNL     1      17.441  37.450  50.098  0.00  0.00    +0.000 A 
ATOM     31  C   UNL     1      18.078  37.716  51.306  0.00  0.00    +0.000 A 
ATOM     32  C   UNL     1      19.345  37.178  51.561  0.00  0.00    +0.000 A 
ATOM     33  C   UNL     1      19.994  36.370  50.636  0.00  0.00    +0.000 A 
ATOM     34  N   UNL     1      21.208  35.871  50.932  0.00  0.00    +0.000 NA
ENDBRANCH  24  25
ENDBRANCH  23  24
ENDBRANCH   5  23
TORSDOF 8
ENDMDL
MODEL 2
REMARK VINA RESULT:    -7.276     11.706     14.816
REMARK INTER + INTRA:         -11.308
REMARK INTER:                 -10.467
REMARK INTRA:                  -0.842
REMARK UNBOUND:                -0.842
REMARK  Name = 
REMARK  8 active torsions:
REMARK  status: ('A' for Active; 'I' for Inactive)
REMARK    1  A    between atoms: C_2  and  O_3
REMARK    2  A    between atoms: C_2  and  C_4
REMARK    3  A    between atoms: C_8  and  C_9
REMARK    4  A    between atoms: C_9  and  N_10
REMARK    5  A    between atoms: C_13  and  C_14
REMARK    6  A    between atoms: C_18  and  C_19
REMARK    7  A    between atoms: C_19  and  S_20
REMARK    8  A    between atoms: S_20  and  C_21
REMARK                            x       y       z     vdW  Elec       q    Type
REMARK                         _______ _______ _______ _____ _____    ______ ____
ROOT
ATOM      1  C   UNL     1      12.583  45.777  46.320  0.00  0.00    +0.000 A 
ATOM      2  C   UNL     1      11.594  44.965  46.893  0.00  0.00    +0.000 A 
ATOM      3  C   UNL     1      11.788  43.588  47.015  0.00  0.00    +0.000 A 
ATOM      4  C   UNL     1      12.966  43.004  46.547  0.00  0.00    +0.000 A 
ATOM      5  C   UNL     1      13.964  43.790  45.959  0.00  0.00    +0.000 A 
ATOM      6  C   UNL     1      13.767  45.179  45.869  0.00  0.00    +0.000 A 
ENDROOT
BRANCH   1  10
ATOM      7  N   UNL     1      12.344  49.164  45.497  0.00  0.00    +0.000 N 
ATOM      8  N   UNL     1      11.590  49.192  46.609  0.00  0.00    +0.000 NA
ATOM      9  N   UNL     1      11.593  47.942  47.047  0.00  0.00    +0.000 NA
ATOM     10  C   UNL     1      12.370  47.211  46.177  0.00  0.00    +0.000 A 
ATOM     11  N   UNL     1      12.886  47.967  45.191  0.00  0.00    +0.000 NA
BRANCH   7  12
ATOM     12  C   UNL     1      12.635  50.367  44.743  0.00  0.00    +0.000 C 
BRANCH  12  17
ATOM     13  C   UNL     1      16.372  51.181  44.846  0.00  0.00    +0.000 A 
ATOM     14  C   UNL     1      16.424  52.091  45.906  0.00  0.00    +0.000 A 
ATOM     15  C   UNL     1      15.254  52.442  46.583  0.00  0.00    +0.000 A 
ATOM     16  C   UNL     1      14.031  51.889  46.201  0.00  0.00    +0.000 A 
ATOM     17  C   UNL     1      13.959  50.973  45.142  0.00  0.00    +0.000 A 
ATOM     18  C   UNL     1      15.141  50.621  44.471  0.00  0.00    +0.000 A 
BRANCH  13  20
ATOM     19  O   UNL     1      17.792  50.982  42.918  0.00  0.00    +0.000 OA
ATOM     20  C   UNL     1      17.587  50.779  44.098  0.00  0.00    +0.000 C 
BRANCH  20  21
ATOM     21  O   UNL     1      18.494  50.150  44.867  0.00  0.00    +0.000 OA
ATOM     22  H   UNL     1      18.127  49.247  44.969  0.00  0.00    +0.000 HD
ENDBRANCH  20  21
ENDBRANCH  13  20
ENDBRANCH  12  17
ENDBRANCH   7  12
ENDBRANCH   1  10
BRANCH   5  23
ATOM     23  C   UNL     1      15.214  43.152  45.404  0.00  0.00    +0.000 C 
BRANCH  23  24
ATOM     24  S   UNL     1      15.130  42.857  43.614  0.00  0.00    +0.000 S 
BRANCH  24  25
ATOM     25  C   UNL     1      15.895  41.252  43.493  0.00  0.00    +0.000 A 
ATOM     26  C   UNL     1      15.803  40.391  44.581  0.00  0.00    +0.000 A 
ATOM     27  C   UNL     1      16.423  39.148  44.504  0.00  0.00    +0.000 A 
ATOM     28  C   UNL     1      17.126  38.799  43.347  0.00  0.00    +0.000 A 
ATOM     29  C   UNL     1      17.766  37.556  43.221  0.00  0.00    +0.000 A 
ATOM     30  C   UNL     1      18.450  37.232  42.053  0.00  0.00    +0.000 A 
ATOM     31  C   UNL     1      18.505  38.153  41.012  0.00  0.00    +0.000 A 
ATOM     32  C   UNL     1      17.873  39.395  41.145  0.00  0.00    +0.000 A 
ATOM     33  C   UNL     1      17.178  39.740  42.297  0.00  0.00    +0.000 A 
ATOM     34  N   UNL     1      16.582  40.944  42.372  0.00  0.00    +0.000 NA
ENDBRANCH  24  25
ENDBRANCH  23  24
ENDBRANCH   5  23
TORSDOF 8
ENDMDL
MODEL 3
REMARK VINA RESULT:    -7.259      1.121      2.028
REMARK INTER + INTRA:         -11.284
REMARK INTER:                  -9.507
REMARK INTRA:                  -1.777
REMARK UNBOUND:                -0.842
REMARK  Name = 
REMARK  8 active torsions:
REMARK  status: ('A' for Active; 'I' for Inactive)
REMARK    1  A    between atoms: C_2  and  O_3
REMARK    2  A    between atoms: C_2  and  C_4
REMARK    3  A    between atoms: C_8  and  C_9
REMARK    4  A    between atoms: C_9  and  N_10
REMARK    5  A    between atoms: C_13  and  C_14
REMARK    6  A    between atoms: C_18  and  C_19
REMARK    7  A    between atoms: C_19  and  S_20
REMARK    8  A    between atoms: S_20  and  C_21
REMARK                            x       y       z     vdW  Elec       q    Type
REMARK                         _______ _______ _______ _____ _____    ______ ____
ROOT
ATOM      1  C   UNL     1      21.803  34.015  55.073  0.00  0.00    +0.000 A 
ATOM      2  C   UNL     1      23.033  33.958  55.743  0.00  0.00    +0.000 A 
ATOM      3  C   UNL     1      24.198  33.604  55.059  0.00  0.00    +0.000 A 
ATOM      4  C   UNL     1      24.143  33.284  53.703  0.00  0.00    +0.000 A 
ATOM      5  C   UNL     1      22.925  33.320  53.013  0.00  0.00    +0.000 A 
ATOM      6  C   UNL     1      21.765  33.705  53.707  0.00  0.00    +0.000 A 
ENDROOT
BRANCH   1  10
ATOM      7  N   UNL     1      18.640  34.846  56.302  0.00  0.00    +0.000 N 
ATOM      8  N   UNL     1      19.271  34.732  57.483  0.00  0.00    +0.000 NA
ATOM      9  N   UNL     1      20.518  34.415  57.167  0.00  0.00    +0.000 NA
ATOM     10  C   UNL     1      20.586  34.365  55.792  0.00  0.00    +0.000 A 
ATOM     11  N   UNL     1      19.410  34.662  55.210  0.00  0.00    +0.000 NA
BRANCH   7  12
ATOM     12  C   UNL     1      17.249  35.244  56.217  0.00  0.00    +0.000 C 
BRANCH  12  17
ATOM     13  C   UNL     1      17.087  38.539  54.280  0.00  0.00    +0.000 A 
ATOM     14  C   UNL     1      16.567  38.111  53.055  0.00  0.00    +0.000 A 
ATOM     15  C   UNL     1      16.271  36.760  52.856  0.00  0.00    +0.000 A 
ATOM     16  C   UNL     1      16.498  35.836  53.877  0.00  0.00    +0.000 A 
ATOM     17  C   UNL     1      17.019  36.246  55.112  0.00  0.00    +0.000 A 
ATOM     18  C   UNL     1      17.307  37.607  55.305  0.00  0.00    +0.000 A 
BRANCH  13  20
ATOM     19  O   UNL     1      17.947  40.720  53.750  0.00  0.00    +0.000 OA
ATOM     20  C   UNL     1      17.417  39.962  54.538  0.00  0.00    +0.000 C 
BRANCH  20  21
ATOM     21  O   UNL     1      17.054  40.372  55.766  0.00  0.00    +0.000 OA
ATOM     22  H   UNL     1      16.832  41.318  55.640  0.00  0.00    +0.000 HD
ENDBRANCH  20  21
ENDBRANCH  13  20
ENDBRANCH  12  17
ENDBRANCH   7  12
ENDBRANCH   1  10
BRANCH   5  23
ATOM     23  C   UNL     1      22.855  32.920  51.559  0.00  0.00    +0.000 C 
BRANCH  23  24
ATOM     24  S   UNL     1      23.317  34.263  50.427  0.00  0.00    +0.000 S 
BRANCH  24  25
ATOM     25  C   UNL     1      21.758  35.103  50.235  0.00  0.00    +0.000 A 
ATOM     26  C   UNL     1      21.338  35.962  51.246  0.00  0.00    +0.000 A 
ATOM     27  C   UNL     1      20.108  36.597  51.116  0.00  0.00    +0.000 A 
ATOM     28  C   UNL     1      19.324  36.356  49.985  0.00  0.00    +0.000 A 
ATOM     29  C   UNL     1      18.076  36.976  49.806  0.00  0.00    +0.000 A 
ATOM     30  C   UNL     1      17.322  36.723  48.664  0.00  0.00    +0.000 A 
ATOM     31  C   UNL     1      17.807  35.844  47.702  0.00  0.00    +0.000 A 
ATOM     32  C   UNL     1      19.046  35.221  47.887  0.00  0.00    +0.000 A 
ATOM     33  C   UNL     1      19.823  35.461  49.014  0.00  0.00    +0.000 A 
ATOM     34  N   UNL     1      21.011  34.842  49.141  0.00  0.00    +0.000 NA
ENDBRANCH  24  25
ENDBRANCH  23  24
ENDBRANCH   5  23
TORSDOF 8
ENDMDL
