MODEL 1
REMARK VINA RESULT:    -8.352      0.000      0.000
REMARK INTER + INTRA:         -12.319
REMARK INTER:                 -10.531
REMARK INTRA:                  -1.787
REMARK UNBOUND:                -1.038
REMARK  Name = 
REMARK  6 active torsions:
REMARK  status: ('A' for Active; 'I' for Inactive)
REMARK    1  A    between atoms: C_5  and  N_6
REMARK    2  A    between atoms: N_10  and  C_11
REMARK    3  A    between atoms: C_11  and  N_13
REMARK    4  A    between atoms: C_15  and  C_16
REMARK    5  A    between atoms: C_23  and  C_24
REMARK    6  A    between atoms: N_32  and  C_33
REMARK                            x       y       z     vdW  Elec       q    Type
REMARK                         _______ _______ _______ _____ _____    ______ ____
ROOT
ATOM      1  N   UNL     1      14.606  40.826  52.194  0.00  0.00    +0.000 N 
ATOM      2  C   UNL     1      14.832  40.338  50.910  0.00  0.00    +0.000 A 
ATOM      3  N   UNL     1      15.315  39.107  50.837  0.00  0.00    +0.000 NA
ATOM      4  C   UNL     1      15.501  38.631  49.618  0.00  0.00    +0.000 A 
ATOM      5  N   UNL     1      15.896  37.315  49.375  0.00  0.00    +0.000 N 
ATOM      6  N   UNL     1      15.326  39.330  48.507  0.00  0.00    +0.000 NA
ATOM      7  C   UNL     1      14.903  40.579  48.666  0.00  0.00    +0.000 A 
ATOM      8  N   UNL     1      14.717  41.445  47.586  0.00  0.00    +0.000 N 
ATOM      9  N   UNL     1      14.617  41.107  49.847  0.00  0.00    +0.000 NA
ATOM     10  H   UNL     1      14.999  40.197  52.879  0.00  0.00    +0.000 HD
ATOM     11  H   UNL     1      15.894  37.146  48.384  0.00  0.00    +0.000 HD
ATOM     12  H   UNL     1      14.527  42.366  47.968  0.00  0.00    +0.000 HD
ENDROOT
BRANCH   1  17
ATOM     13  F   UNL     1      11.022  44.629  54.052  0.00  0.00    +0.000 F 
ATOM     14  C   UNL     1      11.876  43.694  53.616  0.00  0.00    +0.000 A 
ATOM     15  C   UNL     1      13.240  43.863  53.817  0.00  0.00    +0.000 A 
ATOM     16  C   UNL     1      14.130  42.891  53.351  0.00  0.00    +0.000 A 
ATOM     17  C   UNL     1      13.667  41.747  52.681  0.00  0.00    +0.000 A 
ATOM     18  C   UNL     1      12.284  41.620  52.469  0.00  0.00    +0.000 A 
ATOM     19  C   UNL     1      11.391  42.584  52.943  0.00  0.00    +0.000 A 
ENDBRANCH   1  17
BRANCH   8  20
ATOM     20  C   UNL     1      15.211  41.431  46.271  0.00  0.00    +0.000 A 
ATOM     21  C   UNL     1      15.674  40.276  45.621  0.00  0.00    +0.000 A 
ATOM     22  C   UNL     1      16.146  40.332  44.303  0.00  0.00    +0.000 A 
ATOM     23  C   UNL     1      16.168  41.541  43.631  0.00  0.00    +0.000 A 
ATOM     24  F   UNL     1      16.659  41.601  42.387  0.00  0.00    +0.000 F 
ATOM     25  C   UNL     1      15.696  42.698  44.235  0.00  0.00    +0.000 A 
ATOM     26  C   UNL     1      15.212  42.636  45.546  0.00  0.00    +0.000 A 
ENDBRANCH   8  20
BRANCH   5  27
ATOM     27  C   UNL     1      16.067  36.237  50.223  0.00  0.00    +0.000 C 
ATOM     28  S   UNL     1      14.856  35.158  50.693  0.00  0.00    +0.000 S 
BRANCH  27  29
ATOM     29  N   UNL     1      17.390  36.114  50.695  0.00  0.00    +0.000 N 
ATOM     30  N   UNL     1      18.422  35.852  49.816  0.00  0.00    +0.000 NA
ATOM     31  C   UNL     1      19.498  35.648  50.512  0.00  0.00    +0.000 C 
ATOM     32  C   UNL     1      19.304  35.657  52.003  0.00  0.00    +0.000 C 
ATOM     33  C   UNL     1      17.884  36.207  52.085  0.00  0.00    +0.000 C 
BRANCH  31  34
ATOM     34  C   UNL     1      20.821  35.395  49.891  0.00  0.00    +0.000 A 
ATOM     35  C   UNL     1      20.878  35.060  48.532  0.00  0.00    +0.000 A 
ATOM     36  C   UNL     1      22.106  34.820  47.914  0.00  0.00    +0.000 A 
ATOM     37  C   UNL     1      23.287  34.910  48.652  0.00  0.00    +0.000 A 
ATOM     38  C   UNL     1      23.238  35.247  50.005  0.00  0.00    +0.000 A 
ATOM     39  C   UNL     1      22.009  35.487  50.629  0.00  0.00    +0.000 A 
ENDBRANCH  31  34
BRANCH  33  40
ATOM     40  C   UNL     1      17.860  37.614  52.657  0.00  0.00    +0.000 A 
ATOM     41  C   UNL     1      18.427  38.702  51.973  0.00  0.00    +0.000 A 
ATOM     42  C   UNL     1      18.399  39.984  52.525  0.00  0.00    +0.000 A 
ATOM     43  C   UNL     1      17.808  40.196  53.769  0.00  0.00    +0.000 A 
ATOM     44  C   UNL     1      17.249  39.126  54.465  0.00  0.00    +0.000 A 
ATOM     45  C   UNL     1      17.274  37.841  53.913  0.00  0.00    +0.000 A 
ENDBRANCH  33  40
ENDBRANCH  27  29
ENDBRANCH   5  27
TORSDOF 6
ENDMDL
MODEL 2
REMARK VINA RESULT:    -8.053      2.981      8.485
REMARK INTER + INTRA:         -11.916
REMARK INTER:                  -9.752
REMARK INTRA:                  -2.163
REMARK UNBOUND:                -1.038
REMARK  Name = 
REMARK  6 active torsions:
REMARK  status: ('A' for Active; 'I' for Inactive)
REMARK    1  A    between atoms: C_5  and  N_6
REMARK    2  A    between atoms: N_10  and  C_11
REMARK    3  A    between atoms: C_11  and  N_13
REMARK    4  A    between atoms: C_15  and  C_16
REMARK    5  A    between atoms: C_23  and  C_24
REMARK    6  A    between atoms: N_32  and  C_33
REMARK                            x       y       z     vdW  Elec       q    Type
REMARK                         _______ _______ _______ _____ _____    ______ ____
ROOT
ATOM      1  N   UNL     1      18.119  37.318  50.169  0.00  0.00    +0.000 N 
ATOM      2  C   UNL     1      17.063  38.196  50.404  0.00  0.00    +0.000 A 
ATOM      3  N   UNL     1      16.123  38.231  49.473  0.00  0.00    +0.000 NA
ATOM      4  C   UNL     1      15.105  39.040  49.709  0.00  0.00    +0.000 A 
ATOM      5  N   UNL     1      13.985  39.105  48.880  0.00  0.00    +0.000 N 
ATOM      6  N   UNL     1      15.027  39.860  50.746  0.00  0.00    +0.000 NA
ATOM      7  C   UNL     1      16.041  39.813  51.602  0.00  0.00    +0.000 A 
ATOM      8  N   UNL     1      16.112  40.651  52.718  0.00  0.00    +0.000 N 
ATOM      9  N   UNL     1      17.059  38.975  51.481  0.00  0.00    +0.000 NA
ATOM     10  H   UNL     1      18.064  36.954  49.229  0.00  0.00    +0.000 HD
ATOM     11  H   UNL     1      13.303  39.719  49.291  0.00  0.00    +0.000 HD
ATOM     12  H   UNL     1      17.030  40.524  53.132  0.00  0.00    +0.000 HD
ENDROOT
BRANCH   1  17
ATOM     13  F   UNL     1      21.227  34.339  53.665  0.00  0.00    +0.000 F 
ATOM     14  C   UNL     1      20.490  35.078  52.826  0.00  0.00    +0.000 A 
ATOM     15  C   UNL     1      19.115  35.163  53.012  0.00  0.00    +0.000 A 
ATOM     16  C   UNL     1      18.347  35.925  52.128  0.00  0.00    +0.000 A 
ATOM     17  C   UNL     1      18.942  36.605  51.052  0.00  0.00    +0.000 A 
ATOM     18  C   UNL     1      20.329  36.476  50.875  0.00  0.00    +0.000 A 
ATOM     19  C   UNL     1      21.102  35.723  51.763  0.00  0.00    +0.000 A 
ENDBRANCH   1  17
BRANCH   8  20
ATOM     20  C   UNL     1      15.479  41.867  53.025  0.00  0.00    +0.000 A 
ATOM     21  C   UNL     1      14.164  41.965  53.504  0.00  0.00    +0.000 A 
ATOM     22  C   UNL     1      13.596  43.212  53.801  0.00  0.00    +0.000 A 
ATOM     23  C   UNL     1      14.334  44.366  53.610  0.00  0.00    +0.000 A 
ATOM     24  F   UNL     1      13.777  45.560  53.851  0.00  0.00    +0.000 F 
ATOM     25  C   UNL     1      15.646  44.305  53.159  0.00  0.00    +0.000 A 
ATOM     26  C   UNL     1      16.214  43.058  52.879  0.00  0.00    +0.000 A 
ENDBRANCH   8  20
BRANCH   5  27
ATOM     27  C   UNL     1      13.611  38.352  47.782  0.00  0.00    +0.000 C 
ATOM     28  S   UNL     1      12.503  37.078  47.799  0.00  0.00    +0.000 S 
BRANCH  27  29
ATOM     29  N   UNL     1      14.269  38.743  46.599  0.00  0.00    +0.000 N 
ATOM     30  N   UNL     1      14.380  40.080  46.271  0.00  0.00    +0.000 NA
ATOM     31  C   UNL     1      14.894  40.159  45.082  0.00  0.00    +0.000 C 
ATOM     32  C   UNL     1      15.119  38.840  44.395  0.00  0.00    +0.000 C 
ATOM     33  C   UNL     1      14.888  37.888  45.563  0.00  0.00    +0.000 C 
BRANCH  31  34
ATOM     34  C   UNL     1      15.213  41.452  44.429  0.00  0.00    +0.000 A 
ATOM     35  C   UNL     1      16.320  41.522  43.574  0.00  0.00    +0.000 A 
ATOM     36  C   UNL     1      16.646  42.721  42.937  0.00  0.00    +0.000 A 
ATOM     37  C   UNL     1      15.870  43.859  43.156  0.00  0.00    +0.000 A 
ATOM     38  C   UNL     1      14.764  43.796  44.004  0.00  0.00    +0.000 A 
ATOM     39  C   UNL     1      14.434  42.597  44.645  0.00  0.00    +0.000 A 
ENDBRANCH  31  34
BRANCH  33  40
ATOM     40  C   UNL     1      16.178  37.218  46.005  0.00  0.00    +0.000 A 
ATOM     41  C   UNL     1      16.181  35.971  46.652  0.00  0.00    +0.000 A 
ATOM     42  C   UNL     1      17.381  35.381  47.055  0.00  0.00    +0.000 A 
ATOM     43  C   UNL     1      18.592  36.032  46.824  0.00  0.00    +0.000 A 
ATOM     44  C   UNL     1      18.605  37.275  46.193  0.00  0.00    +0.000 A 
ATOM     45  C   UNL     1      17.405  37.866  45.786  0.00  0.00    +0.000 A 
ENDBRANCH  33  40
ENDBRANCH  27  29
ENDBRANCH   5  27
TORSDOF 6
ENDMDL
MODEL 3
REMARK VINA RESULT:    -7.919      3.176      4.397
REMARK INTER + INTRA:         -11.735
REMARK INTER:                 -10.697
REMARK INTRA:                  -1.038
REMARK UNBOUND:                -1.038
REMARK  Name = 
REMARK  6 active torsions:
REMARK  status: ('A' for Active; 'I' for Inactive)
REMARK    1  A    between atoms: C_5  and  N_6
REMARK    2  A    between atoms: N_10  and  C_11
REMARK    3  A    between atoms: C_11  and  N_13
REMARK    4  A    between atoms: C_15  and  C_16
REMARK    5  A    between atoms: C_23  and  C_24
REMARK    6  A    between atoms: N_32  and  C_33
REMARK                            x       y       z     vdW  Elec       q    Type
REMARK                         _______ _______ _______ _____ _____    ______ ____
ROOT
ATOM      1  N   UNL     1      15.697  41.357  53.974  0.00  0.00    +0.000 N 
ATOM      2  C   UNL     1      15.840  40.263  53.124  0.00  0.00    +0.000 A 
ATOM      3  N   UNL     1      15.933  39.081  53.713  0.00  0.00    +0.000 NA
ATOM      4  C   UNL     1      16.037  38.040  52.907  0.00  0.00    +0.000 A 
ATOM      5  N   UNL     1      16.031  36.724  53.370  0.00  0.00    +0.000 N 
ATOM      6  N   UNL     1      16.146  38.121  51.589  0.00  0.00    +0.000 NA
ATOM      7  C   UNL     1      16.110  39.346  51.078  0.00  0.00    +0.000 A 
ATOM      8  N   UNL     1      16.257  39.586  49.709  0.00  0.00    +0.000 N 
ATOM      9  N   UNL     1      15.928  40.437  51.808  0.00  0.00    +0.000 NA
ATOM     10  H   UNL     1      15.842  41.072  54.932  0.00  0.00    +0.000 HD
ATOM     11  H   UNL     1      16.036  36.095  52.585  0.00  0.00    +0.000 HD
ATOM     12  H   UNL     1      16.331  40.591  49.586  0.00  0.00    +0.000 HD
ENDROOT
BRANCH   1  17
ATOM     13  F   UNL     1      13.022  46.185  53.437  0.00  0.00    +0.000 F 
ATOM     14  C   UNL     1      13.677  45.021  53.544  0.00  0.00    +0.000 A 
ATOM     15  C   UNL     1      12.971  43.860  53.834  0.00  0.00    +0.000 A 
ATOM     16  C   UNL     1      13.658  42.650  53.957  0.00  0.00    +0.000 A 
ATOM     17  C   UNL     1      15.052  42.589  53.794  0.00  0.00    +0.000 A 
ATOM     18  C   UNL     1      15.740  43.785  53.530  0.00  0.00    +0.000 A 
ATOM     19  C   UNL     1      15.054  44.995  53.396  0.00  0.00    +0.000 A 
ENDBRANCH   1  17
BRANCH   8  20
ATOM     20  C   UNL     1      16.799  38.812  48.670  0.00  0.00    +0.000 A 
ATOM     21  C   UNL     1      16.790  39.199  47.321  0.00  0.00    +0.000 A 
ATOM     22  C   UNL     1      17.360  38.382  46.334  0.00  0.00    +0.000 A 
ATOM     23  C   UNL     1      17.931  37.173  46.688  0.00  0.00    +0.000 A 
ATOM     24  F   UNL     1      18.435  36.373  45.739  0.00  0.00    +0.000 F 
ATOM     25  C   UNL     1      17.978  36.770  48.015  0.00  0.00    +0.000 A 
ATOM     26  C   UNL     1      17.422  37.595  49.000  0.00  0.00    +0.000 A 
ENDBRANCH   8  20
BRANCH   5  27
ATOM     27  C   UNL     1      15.820  36.196  54.630  0.00  0.00    +0.000 C 
ATOM     28  S   UNL     1      14.311  35.899  55.328  0.00  0.00    +0.000 S 
BRANCH  27  29
ATOM     29  N   UNL     1      17.019  35.925  55.320  0.00  0.00    +0.000 N 
ATOM     30  N   UNL     1      18.136  35.493  54.634  0.00  0.00    +0.000 NA
ATOM     31  C   UNL     1      19.047  35.184  55.506  0.00  0.00    +0.000 C 
ATOM     32  C   UNL     1      18.614  35.285  56.942  0.00  0.00    +0.000 C 
ATOM     33  C   UNL     1      17.287  36.017  56.771  0.00  0.00    +0.000 C 
BRANCH  31  34
ATOM     34  C   UNL     1      20.408  34.736  55.123  0.00  0.00    +0.000 A 
ATOM     35  C   UNL     1      20.656  34.395  53.787  0.00  0.00    +0.000 A 
ATOM     36  C   UNL     1      21.926  33.973  53.390  0.00  0.00    +0.000 A 
ATOM     37  C   UNL     1      22.956  33.886  54.327  0.00  0.00    +0.000 A 
ATOM     38  C   UNL     1      22.716  34.228  55.659  0.00  0.00    +0.000 A 
ATOM     39  C   UNL     1      21.445  34.649  56.062  0.00  0.00    +0.000 A 
ENDBRANCH  31  34
BRANCH  33  40
ATOM     40  C   UNL     1      17.358  37.440  57.298  0.00  0.00    +0.000 A 
ATOM     41  C   UNL     1      17.055  38.546  56.486  0.00  0.00    +0.000 A 
ATOM     42  C   UNL     1      17.137  39.845  56.993  0.00  0.00    +0.000 A 
ATOM     43  C   UNL     1      17.528  40.056  58.314  0.00  0.00    +0.000 A 
ATOM     44  C   UNL     1      17.841  38.970  59.129  0.00  0.00    +0.000 A 
ATOM     45  C   UNL     1      17.758  37.669  58.625  0.00  0.00    +0.000 A 
ENDBRANCH  33  40
ENDBRANCH  27  29
ENDBRANCH   5  27
TORSDOF 6
ENDMDL
