MODEL 1
REMARK VINA RESULT:    -6.462      0.000      0.000
REMARK INTER + INTRA:          -9.054
REMARK INTER:                  -8.162
REMARK INTRA:                  -0.892
REMARK UNBOUND:                -0.891
REMARK  Name = 
REMARK  5 active torsions:
REMARK  status: ('A' for Active; 'I' for Inactive)
REMARK    1  A    between atoms: C_11  and  C_12
REMARK    2  A    between atoms: C_12  and  C_13
REMARK    3  A    between atoms: C_26  and  C_27
REMARK    4  A    between atoms: C_27  and  C_28
REMARK    5  A    between atoms: C_31  and  O_32
REMARK                            x       y       z     vdW  Elec       q    Type
REMARK                         _______ _______ _______ _____ _____    ______ ____
ROOT
ATOM      1  O   UNL     1      14.130  39.934  56.178  0.00  0.00    +0.000 OA
ATOM      2  C   UNL     1      15.183  40.526  56.401  0.00  0.00    +0.000 C 
ATOM      3  C   UNL     1      15.895  41.363  55.339  0.00  0.00    +0.000 C 
ATOM      4  N   UNL     1      15.478  40.968  54.013  0.00  0.00    +0.000 N 
ATOM      5  C   UNL     1      15.809  41.698  52.899  0.00  0.00    +0.000 C 
ATOM      6  O   UNL     1      16.520  42.702  52.943  0.00  0.00    +0.000 OA
ATOM      7  C   UNL     1      15.200  41.179  51.595  0.00  0.00    +0.000 C 
ATOM      8  N   UNL     1      15.750  39.887  51.221  0.00  0.00    +0.000 N 
ATOM      9  C   UNL     1      15.261  38.708  51.734  0.00  0.00    +0.000 C 
ATOM     10  O   UNL     1      14.359  38.687  52.574  0.00  0.00    +0.000 OA
ATOM     11  C   UNL     1      15.925  37.423  51.199  0.00  0.00    +0.000 C 
ATOM     12  N   UNL     1      15.654  36.353  52.159  0.00  0.00    +0.000 N 
ATOM     13  C   UNL     1      16.490  35.268  52.278  0.00  0.00    +0.000 C 
ATOM     14  O   UNL     1      17.471  35.095  51.556  0.00  0.00    +0.000 OA
ATOM     15  C   UNL     1      16.165  34.334  53.444  0.00  0.00    +0.000 C 
ATOM     16  N   UNL     1      17.241  34.415  54.417  0.00  0.00    +0.000 N 
ATOM     17  C   UNL     1      17.263  35.473  55.303  0.00  0.00    +0.000 C 
ATOM     18  O   UNL     1      16.372  36.326  55.295  0.00  0.00    +0.000 OA
ATOM     19  C   UNL     1      18.527  35.600  56.186  0.00  0.00    +0.000 C 
ATOM     20  N   UNL     1      18.309  36.724  57.106  0.00  0.00    +0.000 N 
ATOM     21  C   UNL     1      17.505  36.626  58.223  0.00  0.00    +0.000 C 
ATOM     22  O   UNL     1      17.096  35.573  58.696  0.00  0.00    +0.000 OA
ATOM     23  C   UNL     1      17.136  37.968  58.821  0.00  0.00    +0.000 C 
ATOM     24  C   UNL     1      15.654  38.244  58.582  0.00  0.00    +0.000 C 
ATOM     25  C   UNL     1      15.301  39.721  58.731  0.00  0.00    +0.000 C 
ATOM     26  N   UNL     1      15.810  40.520  57.632  0.00  0.00    +0.000 N 
ATOM     27  H   UNL     1      14.821  40.189  53.926  0.00  0.00    +0.000 HD
ATOM     28  H   UNL     1      16.492  39.869  50.527  0.00  0.00    +0.000 HD
ATOM     29  H   UNL     1      15.090  36.611  52.970  0.00  0.00    +0.000 HD
ATOM     30  H   UNL     1      18.115  33.981  54.152  0.00  0.00    +0.000 HD
ATOM     31  H   UNL     1      18.297  37.629  56.651  0.00  0.00    +0.000 HD
ATOM     32  H   UNL     1      16.695  40.996  57.744  0.00  0.00    +0.000 HD
ENDROOT
BRANCH  11  33
ATOM     33  C   UNL     1      15.387  37.057  49.806  0.00  0.00    +0.000 C 
BRANCH  33  34
ATOM     34  C   UNL     1      16.369  37.318  48.687  0.00  0.00    +0.000 A 
ATOM     35  C   UNL     1      16.322  38.523  47.972  0.00  0.00    +0.000 A 
ATOM     36  C   UNL     1      17.208  38.755  46.919  0.00  0.00    +0.000 A 
ATOM     37  C   UNL     1      18.151  37.787  46.575  0.00  0.00    +0.000 A 
ATOM     38  C   UNL     1      18.212  36.591  47.287  0.00  0.00    +0.000 A 
ATOM     39  C   UNL     1      17.328  36.357  48.340  0.00  0.00    +0.000 A 
ENDBRANCH  33  34
ENDBRANCH  11  33
BRANCH  19  40
ATOM     40  C   UNL     1      18.982  34.277  56.827  0.00  0.00    +0.000 C 
BRANCH  40  41
ATOM     41  C   UNL     1      20.473  34.039  56.714  0.00  0.00    +0.000 A 
ATOM     42  C   UNL     1      21.117  33.154  57.590  0.00  0.00    +0.000 A 
ATOM     43  C   UNL     1      22.494  32.944  57.500  0.00  0.00    +0.000 A 
ATOM     44  C   UNL     1      23.231  33.615  56.535  0.00  0.00    +0.000 A 
ATOM     45  C   UNL     1      22.613  34.492  55.649  0.00  0.00    +0.000 A 
ATOM     46  C   UNL     1      21.234  34.704  55.740  0.00  0.00    +0.000 A 
BRANCH  44  47
ATOM     47  O   UNL     1      24.575  33.387  56.485  0.00  0.00    +0.000 OA
ATOM     48  H   UNL     1      24.924  33.787  55.674  0.00  0.00    +0.000 HD
ENDBRANCH  44  47
ENDBRANCH  40  41
ENDBRANCH  19  40
TORSDOF 5
ENDMDL
MODEL 2
REMARK VINA RESULT:    -6.423      3.908      6.041
REMARK INTER + INTRA:          -9.004
REMARK INTER:                  -8.119
REMARK INTRA:                  -0.885
REMARK UNBOUND:                -0.891
REMARK  Name = 
REMARK  5 active torsions:
REMARK  status: ('A' for Active; 'I' for Inactive)
REMARK    1  A    between atoms: C_11  and  C_12
REMARK    2  A    between atoms: C_12  and  C_13
REMARK    3  A    between atoms: C_26  and  C_27
REMARK    4  A    between atoms: C_27  and  C_28
REMARK    5  A    between atoms: C_31  and  O_32
REMARK                            x       y       z     vdW  Elec       q    Type
REMARK                         _______ _______ _______ _____ _____    ______ ____
ROOT
ATOM      1  O   UNL     1      15.770  37.030  53.478  0.00  0.00    +0.000 OA
ATOM      2  C   UNL     1      16.742  37.696  53.824  0.00  0.00    +0.000 C 
ATOM      3  C   UNL     1      16.859  39.191  53.530  0.00  0.00    +0.000 C 
ATOM      4  N   UNL     1      15.997  39.564  52.431  0.00  0.00    +0.000 N 
ATOM      5  C   UNL     1      15.761  40.876  52.106  0.00  0.00    +0.000 C 
ATOM      6  O   UNL     1      16.300  41.818  52.687  0.00  0.00    +0.000 OA
ATOM      7  C   UNL     1      14.750  41.079  50.975  0.00  0.00    +0.000 C 
ATOM      8  N   UNL     1      15.258  40.592  49.704  0.00  0.00    +0.000 N 
ATOM      9  C   UNL     1      15.165  39.270  49.338  0.00  0.00    +0.000 C 
ATOM     10  O   UNL     1      14.686  38.417  50.087  0.00  0.00    +0.000 OA
ATOM     11  C   UNL     1      15.712  38.928  47.936  0.00  0.00    +0.000 C 
ATOM     12  N   UNL     1      15.983  37.490  47.907  0.00  0.00    +0.000 N 
ATOM     13  C   UNL     1      16.924  36.955  47.059  0.00  0.00    +0.000 C 
ATOM     14  O   UNL     1      17.545  37.628  46.238  0.00  0.00    +0.000 OA
ATOM     15  C   UNL     1      17.212  35.469  47.276  0.00  0.00    +0.000 C 
ATOM     16  N   UNL     1      18.568  35.329  47.776  0.00  0.00    +0.000 N 
ATOM     17  C   UNL     1      18.813  35.547  49.116  0.00  0.00    +0.000 C 
ATOM     18  O   UNL     1      17.896  35.830  49.892  0.00  0.00    +0.000 OA
ATOM     19  C   UNL     1      20.299  35.561  49.548  0.00  0.00    +0.000 C 
ATOM     20  N   UNL     1      20.331  35.718  51.008  0.00  0.00    +0.000 N 
ATOM     21  C   UNL     1      20.062  34.680  51.874  0.00  0.00    +0.000 C 
ATOM     22  O   UNL     1      20.010  33.499  51.550  0.00  0.00    +0.000 OA
ATOM     23  C   UNL     1      19.801  35.131  53.296  0.00  0.00    +0.000 C 
ATOM     24  C   UNL     1      18.326  34.932  53.634  0.00  0.00    +0.000 C 
ATOM     25  C   UNL     1      17.883  35.757  54.838  0.00  0.00    +0.000 C 
ATOM     26  N   UNL     1      17.805  37.173  54.534  0.00  0.00    +0.000 N 
ATOM     27  H   UNL     1      15.462  38.827  51.966  0.00  0.00    +0.000 HD
ATOM     28  H   UNL     1      15.655  41.270  49.060  0.00  0.00    +0.000 HD
ATOM     29  H   UNL     1      15.765  36.975  48.761  0.00  0.00    +0.000 HD
ATOM     30  H   UNL     1      19.309  35.500  47.110  0.00  0.00    +0.000 HD
ATOM     31  H   UNL     1      20.026  36.630  51.328  0.00  0.00    +0.000 HD
ATOM     32  H   UNL     1      18.595  37.764  54.758  0.00  0.00    +0.000 HD
ENDROOT
BRANCH  11  33
ATOM     33  C   UNL     1      14.710  39.318  46.837  0.00  0.00    +0.000 C 
BRANCH  33  34
ATOM     34  C   UNL     1      15.149  40.502  46.008  0.00  0.00    +0.000 A 
ATOM     35  C   UNL     1      14.784  41.803  46.384  0.00  0.00    +0.000 A 
ATOM     36  C   UNL     1      15.163  42.896  45.604  0.00  0.00    +0.000 A 
ATOM     37  C   UNL     1      15.912  42.700  44.444  0.00  0.00    +0.000 A 
ATOM     38  C   UNL     1      16.288  41.412  44.068  0.00  0.00    +0.000 A 
ATOM     39  C   UNL     1      15.911  40.317  44.846  0.00  0.00    +0.000 A 
ENDBRANCH  33  34
ENDBRANCH  11  33
BRANCH  19  40
ATOM     40  C   UNL     1      21.132  34.403  48.971  0.00  0.00    +0.000 C 
BRANCH  40  41
ATOM     41  C   UNL     1      22.528  34.818  48.560  0.00  0.00    +0.000 A 
ATOM     42  C   UNL     1      22.797  35.182  47.233  0.00  0.00    +0.000 A 
ATOM     43  C   UNL     1      24.085  35.550  46.845  0.00  0.00    +0.000 A 
ATOM     44  C   UNL     1      25.111  35.556  47.780  0.00  0.00    +0.000 A 
ATOM     45  C   UNL     1      24.867  35.206  49.104  0.00  0.00    +0.000 A 
ATOM     46  C   UNL     1      23.577  34.837  49.493  0.00  0.00    +0.000 A 
BRANCH  44  47
ATOM     47  O   UNL     1      26.357  35.915  47.358  0.00  0.00    +0.000 OA
ATOM     48  H   UNL     1      26.487  36.856  47.554  0.00  0.00    +0.000 HD
ENDBRANCH  44  47
ENDBRANCH  40  41
ENDBRANCH  19  40
TORSDOF 5
ENDMDL
MODEL 3
REMARK VINA RESULT:    -6.382      6.041      9.046
REMARK INTER + INTRA:          -8.953
REMARK INTER:                  -8.062
REMARK INTRA:                  -0.891
REMARK UNBOUND:                -0.891
REMARK  Name = 
REMARK  5 active torsions:
REMARK  status: ('A' for Active; 'I' for Inactive)
REMARK    1  A    between atoms: C_11  and  C_12
REMARK    2  A    between atoms: C_12  and  C_13
REMARK    3  A    between atoms: C_26  and  C_27
REMARK    4  A    between atoms: C_27  and  C_28
REMARK    5  A    between atoms: C_31  and  O_32
REMARK                            x       y       z     vdW  Elec       q    Type
REMARK                         _______ _______ _______ _____ _____    ______ ____
ROOT
ATOM      1  O   UNL     1      13.629  40.420  46.252  0.00  0.00    +0.000 OA
ATOM      2  C   UNL     1      14.525  41.103  46.742  0.00  0.00    +0.000 C 
ATOM      3  C   UNL     1      15.412  42.019  45.901  0.00  0.00    +0.000 C 
ATOM      4  N   UNL     1      15.400  41.610  44.514  0.00  0.00    +0.000 N 
ATOM      5  C   UNL     1      15.946  42.386  43.523  0.00  0.00    +0.000 C 
ATOM      6  O   UNL     1      16.523  43.450  43.746  0.00  0.00    +0.000 OA
ATOM      7  C   UNL     1      15.756  41.835  42.108  0.00  0.00    +0.000 C 
ATOM      8  N   UNL     1      16.502  40.605  41.904  0.00  0.00    +0.000 N 
ATOM      9  C   UNL     1      16.007  39.378  42.278  0.00  0.00    +0.000 C 
ATOM     10  O   UNL     1      14.920  39.260  42.848  0.00  0.00    +0.000 OA
ATOM     11  C   UNL     1      16.906  38.169  41.949  0.00  0.00    +0.000 C 
ATOM     12  N   UNL     1      16.490  37.062  42.812  0.00  0.00    +0.000 N 
ATOM     13  C   UNL     1      17.362  36.057  43.158  0.00  0.00    +0.000 C 
ATOM     14  O   UNL     1      18.510  35.987  42.724  0.00  0.00    +0.000 OA
ATOM     15  C   UNL     1      16.828  35.077  44.203  0.00  0.00    +0.000 C 
ATOM     16  N   UNL     1      17.595  35.240  45.426  0.00  0.00    +0.000 N 
ATOM     17  C   UNL     1      17.283  36.280  46.277  0.00  0.00    +0.000 C 
ATOM     18  O   UNL     1      16.350  37.048  46.026  0.00  0.00    +0.000 OA
ATOM     19  C   UNL     1      18.249  36.508  47.463  0.00  0.00    +0.000 C 
ATOM     20  N   UNL     1      17.691  37.592  48.283  0.00  0.00    +0.000 N 
ATOM     21  C   UNL     1      16.633  37.402  49.147  0.00  0.00    +0.000 C 
ATOM     22  O   UNL     1      16.213  36.308  49.503  0.00  0.00    +0.000 OA
ATOM     23  C   UNL     1      15.995  38.694  49.615  0.00  0.00    +0.000 C 
ATOM     24  C   UNL     1      14.611  38.837  48.989  0.00  0.00    +0.000 C 
ATOM     25  C   UNL     1      14.095  40.272  49.026  0.00  0.00    +0.000 C 
ATOM     26  N   UNL     1      14.800  41.133  48.095  0.00  0.00    +0.000 N 
ATOM     27  H   UNL     1      14.865  40.775  44.262  0.00  0.00    +0.000 HD
ATOM     28  H   UNL     1      17.400  40.667  41.432  0.00  0.00    +0.000 HD
ATOM     29  H   UNL     1      15.710  37.253  43.442  0.00  0.00    +0.000 HD
ATOM     30  H   UNL     1      18.544  34.893  45.407  0.00  0.00    +0.000 HD
ATOM     31  H   UNL     1      17.716  38.499  47.834  0.00  0.00    +0.000 HD
ATOM     32  H   UNL     1      15.576  41.686  48.434  0.00  0.00    +0.000 HD
ENDROOT
BRANCH  11  33
ATOM     33  C   UNL     1      16.793  37.778  40.466  0.00  0.00    +0.000 C 
BRANCH  33  34
ATOM     34  C   UNL     1      17.998  38.166  39.642  0.00  0.00    +0.000 A 
ATOM     35  C   UNL     1      19.065  38.859  40.232  0.00  0.00    +0.000 A 
ATOM     36  C   UNL     1      20.167  39.244  39.466  0.00  0.00    +0.000 A 
ATOM     37  C   UNL     1      20.213  38.938  38.107  0.00  0.00    +0.000 A 
ATOM     38  C   UNL     1      19.162  38.241  37.514  0.00  0.00    +0.000 A 
ATOM     39  C   UNL     1      18.060  37.854  38.277  0.00  0.00    +0.000 A 
ENDBRANCH  33  34
ENDBRANCH  11  33
BRANCH  19  40
ATOM     40  C   UNL     1      18.639  35.222  48.213  0.00  0.00    +0.000 C 
BRANCH  40  41
ATOM     41  C   UNL     1      20.071  35.227  48.704  0.00  0.00    +0.000 A 
ATOM     42  C   UNL     1      21.109  34.802  47.862  0.00  0.00    +0.000 A 
ATOM     43  C   UNL     1      22.429  34.789  48.314  0.00  0.00    +0.000 A 
ATOM     44  C   UNL     1      22.717  35.201  49.608  0.00  0.00    +0.000 A 
ATOM     45  C   UNL     1      21.705  35.633  50.459  0.00  0.00    +0.000 A 
ATOM     46  C   UNL     1      20.383  35.645  50.007  0.00  0.00    +0.000 A 
BRANCH  44  47
ATOM     47  O   UNL     1      24.020  35.166  50.013  0.00  0.00    +0.000 OA
ATOM     48  H   UNL     1      24.211  35.983  50.498  0.00  0.00    +0.000 HD
ENDBRANCH  44  47
ENDBRANCH  40  41
ENDBRANCH  19  40
TORSDOF 5
ENDMDL
