MODEL 1
REMARK VINA RESULT:    -7.368      0.000      0.000
REMARK INTER + INTRA:         -10.678
REMARK INTER:                  -9.572
REMARK INTRA:                  -1.106
REMARK UNBOUND:                -1.156
REMARK  Name = 
REMARK  5 active torsions:
REMARK  status: ('A' for Active; 'I' for Inactive)
REMARK    1  A    between atoms: C_2  and  C_19
REMARK    2  A    between atoms: N_3  and  C_4
REMARK    3  A    between atoms: C_4  and  C_5
REMARK    4  A    between atoms: C_6  and  C_7
REMARK    5  A    between atoms: C_6  and  C_13
REMARK                            x       y       z     vdW  Elec       q    Type
REMARK                         _______ _______ _______ _____ _____    ______ ____
ROOT
ATOM      1  C   UNL     1      15.906  38.340  49.845  0.00  0.00    +0.000 C 
ENDROOT
BRANCH   1   4
ATOM      2  O   UNL     1      14.632  38.046  47.341  0.00  0.00    +0.000 OA
ATOM      3  C   UNL     1      15.264  39.069  47.580  0.00  0.00    +0.000 C 
ATOM      4  N   UNL     1      15.894  39.316  48.781  0.00  0.00    +0.000 N 
ATOM      5  H   UNL     1      16.578  40.056  48.851  0.00  0.00    +0.000 HD
BRANCH   3   6
ATOM      6  C   UNL     1      15.411  40.102  46.529  0.00  0.00    +0.000 A 
ATOM      7  C   UNL     1      16.149  39.891  45.376  0.00  0.00    +0.000 A 
ATOM      8  N   UNL     1      16.297  40.811  44.390  0.00  0.00    +0.000 NA
ATOM      9  C   UNL     1      15.710  42.011  44.555  0.00  0.00    +0.000 A 
ATOM     10  C   UNL     1      15.843  42.979  43.569  0.00  0.00    +0.000 A 
ATOM     11  C   UNL     1      15.257  44.243  43.695  0.00  0.00    +0.000 A 
ATOM     12  C   UNL     1      14.518  44.553  44.833  0.00  0.00    +0.000 A 
ATOM     13  C   UNL     1      14.368  43.600  45.838  0.00  0.00    +0.000 A 
ATOM     14  C   UNL     1      14.957  42.330  45.707  0.00  0.00    +0.000 A 
ATOM     15  C   UNL     1      14.819  41.352  46.700  0.00  0.00    +0.000 A 
ENDBRANCH   3   6
ENDBRANCH   1   4
BRANCH   1  16
ATOM     16  C   UNL     1      17.220  37.621  49.796  0.00  0.00    +0.000 C 
ATOM     17  C   UNL     1      18.147  37.506  50.773  0.00  0.00    +0.000 C 
BRANCH  17  18
ATOM     18  C   UNL     1      17.938  38.212  52.057  0.00  0.00    +0.000 A 
ATOM     19  C   UNL     1      17.428  37.517  53.160  0.00  0.00    +0.000 A 
ATOM     20  C   UNL     1      17.224  38.177  54.373  0.00  0.00    +0.000 A 
ATOM     21  C   UNL     1      17.533  39.532  54.492  0.00  0.00    +0.000 A 
ATOM     22  C   UNL     1      18.050  40.229  53.400  0.00  0.00    +0.000 A 
ATOM     23  C   UNL     1      18.254  39.572  52.186  0.00  0.00    +0.000 A 
ENDBRANCH  17  18
BRANCH  17  24
ATOM     24  C   UNL     1      19.353  36.676  50.505  0.00  0.00    +0.000 A 
ATOM     25  C   UNL     1      20.463  36.700  51.364  0.00  0.00    +0.000 A 
ATOM     26  C   UNL     1      21.596  35.931  51.088  0.00  0.00    +0.000 A 
ATOM     27  C   UNL     1      21.638  35.135  49.945  0.00  0.00    +0.000 A 
ATOM     28  C   UNL     1      20.550  35.112  49.076  0.00  0.00    +0.000 A 
ATOM     29  C   UNL     1      19.416  35.880  49.352  0.00  0.00    +0.000 A 
ENDBRANCH  17  24
ENDBRANCH   1  16
TORSDOF 5
ENDMDL
MODEL 2
REMARK VINA RESULT:    -7.333      0.832      1.508
REMARK INTER + INTRA:         -10.633
REMARK INTER:                  -9.516
REMARK INTRA:                  -1.117
REMARK UNBOUND:                -1.156
REMARK  Name = 
REMARK  5 active torsions:
REMARK  status: ('A' for Active; 'I' for Inactive)
REMARK    1  A    between atoms: C_2  and  C_19
REMARK    2  A    between atoms: N_3  and  C_4
REMARK    3  A    between atoms: C_4  and  C_5
REMARK    4  A    between atoms: C_6  and  C_7
REMARK    5  A    between atoms: C_6  and  C_13
REMARK                            x       y       z     vdW  Elec       q    Type
REMARK                         _______ _______ _______ _____ _____    ______ ____
ROOT
ATOM      1  C   UNL     1      15.859  38.122  49.896  0.00  0.00    +0.000 C 
ENDROOT
BRANCH   1   4
ATOM      2  O   UNL     1      14.123  38.346  47.679  0.00  0.00    +0.000 OA
ATOM      3  C   UNL     1      14.988  39.196  47.855  0.00  0.00    +0.000 C 
ATOM      4  N   UNL     1      15.861  39.189  48.922  0.00  0.00    +0.000 N 
ATOM      5  H   UNL     1      16.687  39.771  48.905  0.00  0.00    +0.000 HD
BRANCH   3   6
ATOM      6  C   UNL     1      15.157  40.285  46.867  0.00  0.00    +0.000 A 
ATOM      7  C   UNL     1      14.741  41.583  47.111  0.00  0.00    +0.000 A 
ATOM      8  N   UNL     1      14.888  42.607  46.232  0.00  0.00    +0.000 NA
ATOM      9  C   UNL     1      15.452  42.336  45.040  0.00  0.00    +0.000 A 
ATOM     10  C   UNL     1      15.616  43.357  44.113  0.00  0.00    +0.000 A 
ATOM     11  C   UNL     1      16.191  43.127  42.860  0.00  0.00    +0.000 A 
ATOM     12  C   UNL     1      16.616  41.848  42.517  0.00  0.00    +0.000 A 
ATOM     13  C   UNL     1      16.465  40.804  43.428  0.00  0.00    +0.000 A 
ATOM     14  C   UNL     1      15.887  41.040  44.688  0.00  0.00    +0.000 A 
ATOM     15  C   UNL     1      15.726  40.010  45.625  0.00  0.00    +0.000 A 
ENDBRANCH   3   6
ENDBRANCH   1   4
BRANCH   1  16
ATOM     16  C   UNL     1      17.197  37.449  49.844  0.00  0.00    +0.000 C 
ATOM     17  C   UNL     1      18.153  37.414  50.799  0.00  0.00    +0.000 C 
BRANCH  17  18
ATOM     18  C   UNL     1      17.953  38.175  52.053  0.00  0.00    +0.000 A 
ATOM     19  C   UNL     1      17.447  37.529  53.186  0.00  0.00    +0.000 A 
ATOM     20  C   UNL     1      17.251  38.240  54.371  0.00  0.00    +0.000 A 
ATOM     21  C   UNL     1      17.564  39.598  54.431  0.00  0.00    +0.000 A 
ATOM     22  C   UNL     1      18.077  40.247  53.309  0.00  0.00    +0.000 A 
ATOM     23  C   UNL     1      18.272  39.538  52.122  0.00  0.00    +0.000 A 
ENDBRANCH  17  18
BRANCH  17  24
ATOM     24  C   UNL     1      19.381  36.616  50.536  0.00  0.00    +0.000 A 
ATOM     25  C   UNL     1      20.471  36.640  51.420  0.00  0.00    +0.000 A 
ATOM     26  C   UNL     1      21.626  35.900  51.150  0.00  0.00    +0.000 A 
ATOM     27  C   UNL     1      21.708  35.134  49.989  0.00  0.00    +0.000 A 
ATOM     28  C   UNL     1      20.639  35.111  49.096  0.00  0.00    +0.000 A 
ATOM     29  C   UNL     1      19.484  35.850  49.367  0.00  0.00    +0.000 A 
ENDBRANCH  17  24
ENDBRANCH   1  16
TORSDOF 5
ENDMDL
MODEL 3
REMARK VINA RESULT:    -6.704      2.801      9.785
REMARK INTER + INTRA:          -9.821
REMARK INTER:                  -8.664
REMARK INTRA:                  -1.156
REMARK UNBOUND:                -1.156
REMARK  Name = 
REMARK  5 active torsions:
REMARK  status: ('A' for Active; 'I' for Inactive)
REMARK    1  A    between atoms: C_2  and  C_19
REMARK    2  A    between atoms: N_3  and  C_4
REMARK    3  A    between atoms: C_4  and  C_5
REMARK    4  A    between atoms: C_6  and  C_7
REMARK    5  A    between atoms: C_6  and  C_13
REMARK                            x       y       z     vdW  Elec       q    Type
REMARK                         _______ _______ _______ _____ _____    ______ ____
ROOT
ATOM      1  C   UNL     1      12.982  41.567  46.443  0.00  0.00    +0.000 C 
ENDROOT
BRANCH   1   4
ATOM      2  O   UNL     1      12.538  40.119  48.828  0.00  0.00    +0.000 OA
ATOM      3  C   UNL     1      13.681  40.440  48.521  0.00  0.00    +0.000 C 
ATOM      4  N   UNL     1      14.000  41.121  47.365  0.00  0.00    +0.000 N 
ATOM      5  H   UNL     1      14.908  41.553  47.266  0.00  0.00    +0.000 HD
BRANCH   3   6
ATOM      6  C   UNL     1      14.801  40.128  49.437  0.00  0.00    +0.000 A 
ATOM      7  C   UNL     1      15.734  39.142  49.165  0.00  0.00    +0.000 A 
ATOM      8  N   UNL     1      16.776  38.836  49.978  0.00  0.00    +0.000 NA
ATOM      9  C   UNL     1      16.896  39.518  51.132  0.00  0.00    +0.000 A 
ATOM     10  C   UNL     1      17.948  39.230  51.991  0.00  0.00    +0.000 A 
ATOM     11  C   UNL     1      18.113  39.907  53.203  0.00  0.00    +0.000 A 
ATOM     12  C   UNL     1      17.209  40.897  53.573  0.00  0.00    +0.000 A 
ATOM     13  C   UNL     1      16.144  41.207  52.729  0.00  0.00    +0.000 A 
ATOM     14  C   UNL     1      15.982  40.526  51.510  0.00  0.00    +0.000 A 
ATOM     15  C   UNL     1      14.922  40.820  50.641  0.00  0.00    +0.000 A 
ENDBRANCH   3   6
ENDBRANCH   1   4
BRANCH   1  16
ATOM     16  C   UNL     1      12.948  43.065  46.486  0.00  0.00    +0.000 C 
ATOM     17  C   UNL     1      13.465  43.938  45.593  0.00  0.00    +0.000 C 
BRANCH  17  18
ATOM     18  C   UNL     1      14.237  43.425  44.439  0.00  0.00    +0.000 A 
ATOM     19  C   UNL     1      15.574  43.047  44.608  0.00  0.00    +0.000 A 
ATOM     20  C   UNL     1      16.310  42.566  43.523  0.00  0.00    +0.000 A 
ATOM     21  C   UNL     1      15.712  42.455  42.268  0.00  0.00    +0.000 A 
ATOM     22  C   UNL     1      14.378  42.820  42.093  0.00  0.00    +0.000 A 
ATOM     23  C   UNL     1      13.641  43.303  43.176  0.00  0.00    +0.000 A 
ENDBRANCH  17  18
BRANCH  17  24
ATOM     24  C   UNL     1      13.242  45.392  45.821  0.00  0.00    +0.000 A 
ATOM     25  C   UNL     1      12.099  45.860  46.488  0.00  0.00    +0.000 A 
ATOM     26  C   UNL     1      11.893  47.229  46.677  0.00  0.00    +0.000 A 
ATOM     27  C   UNL     1      12.822  48.148  46.193  0.00  0.00    +0.000 A 
ATOM     28  C   UNL     1      13.953  47.699  45.516  0.00  0.00    +0.000 A 
ATOM     29  C   UNL     1      14.160  46.330  45.329  0.00  0.00    +0.000 A 
ENDBRANCH  17  24
ENDBRANCH   1  16
TORSDOF 5
ENDMDL
