MODEL 1
REMARK VINA RESULT:    -7.788      0.000      0.000
REMARK INTER + INTRA:         -11.160
REMARK INTER:                 -10.355
REMARK INTRA:                  -0.805
REMARK UNBOUND:                -1.096
REMARK  Name = 
REMARK  6 active torsions:
REMARK  status: ('A' for Active; 'I' for Inactive)
REMARK    1  A    between atoms: C_1  and  C_2
REMARK    2  A    between atoms: C_4  and  C_5
REMARK    3  A    between atoms: N_7  and  C_8
REMARK    4  A    between atoms: C_11  and  C_12
REMARK    5  A    between atoms: C_16  and  C_17
REMARK    6  A    between atoms: N_23  and  C_24
REMARK                            x       y       z     vdW  Elec       q    Type
REMARK                         _______ _______ _______ _____ _____    ______ ____
ROOT
ATOM      1  C   UNL     1      16.030  38.891  49.055  0.00  0.00    +0.000 C 
ATOM      2  O   UNL     1      14.894  38.655  49.444  0.00  0.00    +0.000 OA
ATOM      3  N   UNL     1      17.113  39.168  49.870  0.00  0.00    +0.000 N 
ATOM      4  H   UNL     1      17.977  39.406  49.400  0.00  0.00    +0.000 HD
ENDROOT
BRANCH   1   8
ATOM      5  C   UNL     1      17.892  37.770  44.506  0.00  0.00    +0.000 C 
ATOM      6  C   UNL     1      17.164  38.381  45.643  0.00  0.00    +0.000 A 
ATOM      7  C   UNL     1      17.323  38.132  47.014  0.00  0.00    +0.000 A 
ATOM      8  C   UNL     1      16.372  38.911  47.653  0.00  0.00    +0.000 A 
ATOM      9  N   UNL     1      15.748  39.651  46.653  0.00  0.00    +0.000 N 
ATOM     10  N   UNL     1      16.197  39.269  45.420  0.00  0.00    +0.000 NA
BRANCH   9  11
ATOM     11  C   UNL     1      14.824  40.743  46.727  0.00  0.00    +0.000 A 
ATOM     12  C   UNL     1      13.572  40.527  47.326  0.00  0.00    +0.000 A 
ATOM     13  C   UNL     1      12.629  41.556  47.407  0.00  0.00    +0.000 A 
ATOM     14  C   UNL     1      12.908  42.824  46.884  0.00  0.00    +0.000 A 
ATOM     15  C   UNL     1      11.970  43.866  46.959  0.00  0.00    +0.000 A 
ATOM     16  C   UNL     1      12.270  45.120  46.427  0.00  0.00    +0.000 A 
ATOM     17 CL   UNL     1      11.111  46.388  46.524  0.00  0.00    +0.000 Cl
ATOM     18  C   UNL     1      13.499  45.355  45.820  0.00  0.00    +0.000 A 
ATOM     19  C   UNL     1      14.438  44.324  45.738  0.00  0.00    +0.000 A 
ATOM     20  C   UNL     1      14.159  43.052  46.266  0.00  0.00    +0.000 A 
ATOM     21  C   UNL     1      15.098  42.006  46.187  0.00  0.00    +0.000 A 
ENDBRANCH   9  11
ENDBRANCH   1   8
BRANCH   3  22
ATOM     22  C   UNL     1      17.143  39.228  51.279  0.00  0.00    +0.000 A 
ATOM     23  C   UNL     1      16.974  38.024  51.971  0.00  0.00    +0.000 A 
ATOM     24  C   UNL     1      16.999  37.992  53.372  0.00  0.00    +0.000 A 
ATOM     25  C   UNL     1      17.187  39.164  54.117  0.00  0.00    +0.000 A 
ATOM     26  C   UNL     1      17.347  40.366  53.413  0.00  0.00    +0.000 A 
ATOM     27  C   UNL     1      17.326  40.398  52.011  0.00  0.00    +0.000 A 
BRANCH  25  28
ATOM     28  C   UNL     1      17.220  39.133  55.589  0.00  0.00    +0.000 A 
ATOM     29  C   UNL     1      17.470  37.936  56.283  0.00  0.00    +0.000 A 
ATOM     30  C   UNL     1      17.500  37.901  57.680  0.00  0.00    +0.000 A 
ATOM     31  C   UNL     1      17.276  39.066  58.410  0.00  0.00    +0.000 A 
ATOM     32  C   UNL     1      17.023  40.266  57.741  0.00  0.00    +0.000 A 
ATOM     33  C   UNL     1      16.996  40.299  56.342  0.00  0.00    +0.000 A 
BRANCH  32  34
ATOM     34  C   UNL     1      16.784  41.505  58.524  0.00  0.00    +0.000 C 
ATOM     35  N   UNL     1      15.592  41.976  58.716  0.00  0.00    +0.000 NA
ATOM     36  N   UNL     1      17.819  42.197  59.072  0.00  0.00    +0.000 N 
ATOM     37  H   UNL     1      14.889  41.399  58.245  0.00  0.00    +0.000 HD
ATOM     38  H   UNL     1      18.739  42.128  58.660  0.00  0.00    +0.000 HD
ATOM     39  H   UNL     1      17.553  43.131  59.367  0.00  0.00    +0.000 HD
ENDBRANCH  32  34
ENDBRANCH  25  28
ENDBRANCH   3  22
TORSDOF 5
ENDMDL
MODEL 2
REMARK VINA RESULT:    -7.615      6.007      9.915
REMARK INTER + INTRA:         -10.937
REMARK INTER:                  -9.905
REMARK INTRA:                  -1.032
REMARK UNBOUND:                -1.096
REMARK  Name = 
REMARK  6 active torsions:
REMARK  status: ('A' for Active; 'I' for Inactive)
REMARK    1  A    between atoms: C_1  and  C_2
REMARK    2  A    between atoms: C_4  and  C_5
REMARK    3  A    between atoms: N_7  and  C_8
REMARK    4  A    between atoms: C_11  and  C_12
REMARK    5  A    between atoms: C_16  and  C_17
REMARK    6  A    between atoms: N_23  and  C_24
REMARK                            x       y       z     vdW  Elec       q    Type
REMARK                         _______ _______ _______ _____ _____    ______ ____
ROOT
ATOM      1  C   UNL     1      16.085  39.341  43.225  0.00  0.00    +0.000 C 
ATOM      2  O   UNL     1      14.906  39.020  43.306  0.00  0.00    +0.000 OA
ATOM      3  N   UNL     1      16.605  40.570  43.590  0.00  0.00    +0.000 N 
ATOM      4  H   UNL     1      17.589  40.711  43.406  0.00  0.00    +0.000 HD
ENDROOT
BRANCH   1   8
ATOM      5  C   UNL     1      19.344  36.906  40.249  0.00  0.00    +0.000 C 
ATOM      6  C   UNL     1      18.556  37.405  41.401  0.00  0.00    +0.000 A 
ATOM      7  C   UNL     1      17.408  38.211  41.386  0.00  0.00    +0.000 A 
ATOM      8  C   UNL     1      17.091  38.442  42.715  0.00  0.00    +0.000 A 
ATOM      9  N   UNL     1      18.003  37.699  43.461  0.00  0.00    +0.000 N 
ATOM     10  N   UNL     1      18.934  37.122  42.645  0.00  0.00    +0.000 NA
BRANCH   9  11
ATOM     11  C   UNL     1      18.054  37.404  44.861  0.00  0.00    +0.000 A 
ATOM     12  C   UNL     1      18.694  36.226  45.279  0.00  0.00    +0.000 A 
ATOM     13  C   UNL     1      18.756  35.885  46.633  0.00  0.00    +0.000 A 
ATOM     14  C   UNL     1      18.172  36.706  47.604  0.00  0.00    +0.000 A 
ATOM     15  C   UNL     1      18.227  36.376  48.968  0.00  0.00    +0.000 A 
ATOM     16  C   UNL     1      17.635  37.209  49.917  0.00  0.00    +0.000 A 
ATOM     17 CL   UNL     1      17.708  36.791  51.584  0.00  0.00    +0.000 Cl
ATOM     18  C   UNL     1      16.986  38.375  49.526  0.00  0.00    +0.000 A 
ATOM     19  C   UNL     1      16.924  38.712  48.172  0.00  0.00    +0.000 A 
ATOM     20  C   UNL     1      17.513  37.889  47.198  0.00  0.00    +0.000 A 
ATOM     21  C   UNL     1      17.454  38.219  45.830  0.00  0.00    +0.000 A 
ENDBRANCH   9  11
ENDBRANCH   1   8
BRANCH   3  22
ATOM     22  C   UNL     1      15.914  41.677  44.126  0.00  0.00    +0.000 A 
ATOM     23  C   UNL     1      15.705  42.769  43.278  0.00  0.00    +0.000 A 
ATOM     24  C   UNL     1      15.021  43.906  43.728  0.00  0.00    +0.000 A 
ATOM     25  C   UNL     1      14.532  43.983  45.039  0.00  0.00    +0.000 A 
ATOM     26  C   UNL     1      14.755  42.885  45.883  0.00  0.00    +0.000 A 
ATOM     27  C   UNL     1      15.437  41.745  45.433  0.00  0.00    +0.000 A 
BRANCH  25  28
ATOM     28  C   UNL     1      13.807  45.173  45.513  0.00  0.00    +0.000 A 
ATOM     29  C   UNL     1      12.657  45.051  46.313  0.00  0.00    +0.000 A 
ATOM     30  C   UNL     1      11.964  46.178  46.763  0.00  0.00    +0.000 A 
ATOM     31  C   UNL     1      12.408  47.452  46.418  0.00  0.00    +0.000 A 
ATOM     32  C   UNL     1      13.547  47.597  45.622  0.00  0.00    +0.000 A 
ATOM     33  C   UNL     1      14.242  46.467  45.174  0.00  0.00    +0.000 A 
BRANCH  32  34
ATOM     34  C   UNL     1      14.017  48.958  45.257  0.00  0.00    +0.000 C 
ATOM     35  N   UNL     1      15.247  49.191  44.921  0.00  0.00    +0.000 NA
ATOM     36  N   UNL     1      13.165  50.017  45.263  0.00  0.00    +0.000 N 
ATOM     37  H   UNL     1      15.810  48.337  44.972  0.00  0.00    +0.000 HD
ATOM     38  H   UNL     1      12.348  49.998  45.857  0.00  0.00    +0.000 HD
ATOM     39  H   UNL     1      13.649  50.909  45.231  0.00  0.00    +0.000 HD
ENDBRANCH  32  34
ENDBRANCH  25  28
ENDBRANCH   3  22
TORSDOF 5
ENDMDL
MODEL 3
REMARK VINA RESULT:    -7.526      7.805     12.193
REMARK INTER + INTRA:         -10.821
REMARK INTER:                  -9.725
REMARK INTRA:                  -1.096
REMARK UNBOUND:                -1.096
REMARK  Name = 
REMARK  6 active torsions:
REMARK  status: ('A' for Active; 'I' for Inactive)
REMARK    1  A    between atoms: C_1  and  C_2
REMARK    2  A    between atoms: C_4  and  C_5
REMARK    3  A    between atoms: N_7  and  C_8
REMARK    4  A    between atoms: C_11  and  C_12
REMARK    5  A    between atoms: C_16  and  C_17
REMARK    6  A    between atoms: N_23  and  C_24
REMARK                            x       y       z     vdW  Elec       q    Type
REMARK                         _______ _______ _______ _____ _____    ______ ____
ROOT
ATOM      1  C   UNL     1      11.365  48.963  45.807  0.00  0.00    +0.000 C 
ATOM      2  O   UNL     1      11.086  48.736  44.637  0.00  0.00    +0.000 OA
ATOM      3  N   UNL     1      12.094  48.124  46.633  0.00  0.00    +0.000 N 
ATOM      4  H   UNL     1      12.190  48.418  47.595  0.00  0.00    +0.000 HD
ENDROOT
BRANCH   1   8
ATOM      5  C   UNL     1       8.733  52.404  48.385  0.00  0.00    +0.000 C 
ATOM      6  C   UNL     1       9.787  51.663  47.652  0.00  0.00    +0.000 A 
ATOM      7  C   UNL     1       9.663  50.478  46.912  0.00  0.00    +0.000 A 
ATOM      8  C   UNL     1      10.942  50.170  46.476  0.00  0.00    +0.000 A 
ATOM      9  N   UNL     1      11.754  51.219  46.897  0.00  0.00    +0.000 N 
ATOM     10  N   UNL     1      11.046  52.094  47.672  0.00  0.00    +0.000 NA
BRANCH   9  11
ATOM     11  C   UNL     1      13.115  51.539  46.588  0.00  0.00    +0.000 A 
ATOM     12  C   UNL     1      13.800  52.446  47.412  0.00  0.00    +0.000 A 
ATOM     13  C   UNL     1      15.123  52.804  47.142  0.00  0.00    +0.000 A 
ATOM     14  C   UNL     1      15.796  52.271  46.036  0.00  0.00    +0.000 A 
ATOM     15  C   UNL     1      17.126  52.621  45.753  0.00  0.00    +0.000 A 
ATOM     16  C   UNL     1      17.774  52.079  44.643  0.00  0.00    +0.000 A 
ATOM     17 CL   UNL     1      19.403  52.518  44.307  0.00  0.00    +0.000 Cl
ATOM     18  C   UNL     1      17.114  51.186  43.806  0.00  0.00    +0.000 A 
ATOM     19  C   UNL     1      15.790  50.833  44.077  0.00  0.00    +0.000 A 
ATOM     20  C   UNL     1      15.116  51.366  45.189  0.00  0.00    +0.000 A 
ATOM     21  C   UNL     1      13.781  51.018  45.470  0.00  0.00    +0.000 A 
ENDBRANCH   9  11
ENDBRANCH   1   8
BRANCH   3  22
ATOM     22  C   UNL     1      12.662  46.874  46.311  0.00  0.00    +0.000 A 
ATOM     23  C   UNL     1      13.843  46.884  45.563  0.00  0.00    +0.000 A 
ATOM     24  C   UNL     1      14.478  45.686  45.208  0.00  0.00    +0.000 A 
ATOM     25  C   UNL     1      13.945  44.447  45.587  0.00  0.00    +0.000 A 
ATOM     26  C   UNL     1      12.755  44.449  46.329  0.00  0.00    +0.000 A 
ATOM     27  C   UNL     1      12.121  45.647  46.688  0.00  0.00    +0.000 A 
BRANCH  25  28
ATOM     28  C   UNL     1      14.613  43.187  45.221  0.00  0.00    +0.000 A 
ATOM     29  C   UNL     1      14.963  42.241  46.200  0.00  0.00    +0.000 A 
ATOM     30  C   UNL     1      15.600  41.045  45.858  0.00  0.00    +0.000 A 
ATOM     31  C   UNL     1      15.900  40.773  44.526  0.00  0.00    +0.000 A 
ATOM     32  C   UNL     1      15.564  41.700  43.536  0.00  0.00    +0.000 A 
ATOM     33  C   UNL     1      14.924  42.897  43.881  0.00  0.00    +0.000 A 
BRANCH  32  34
ATOM     34  C   UNL     1      15.888  41.406  42.117  0.00  0.00    +0.000 C 
ATOM     35  N   UNL     1      15.297  42.018  41.138  0.00  0.00    +0.000 NA
ATOM     36  N   UNL     1      16.823  40.475  41.791  0.00  0.00    +0.000 N 
ATOM     37  H   UNL     1      14.596  42.678  41.487  0.00  0.00    +0.000 HD
ATOM     38  H   UNL     1      17.024  39.722  42.434  0.00  0.00    +0.000 HD
ATOM     39  H   UNL     1      16.779  40.201  40.814  0.00  0.00    +0.000 HD
ENDBRANCH  32  34
ENDBRANCH  25  28
ENDBRANCH   3  22
TORSDOF 5
ENDMDL
