MODEL 1
REMARK VINA RESULT:    -7.055      0.000      0.000
REMARK INTER + INTRA:          -8.633
REMARK INTER:                  -8.420
REMARK INTRA:                  -0.213
REMARK UNBOUND:                -0.547
REMARK  Name = 
REMARK  5 active torsions:
REMARK  status: ('A' for Active; 'I' for Inactive)
REMARK    1  A    between atoms: C_1  and  C_2
REMARK    2  A    between atoms: C_2  and  C_3
REMARK    3  A    between atoms: C_11  and  N_12
REMARK    4  A    between atoms: C_13  and  C_15
REMARK    5  A    between atoms: C_23  and  O_24
REMARK                            x       y       z     vdW  Elec       q    Type
REMARK                         _______ _______ _______ _____ _____    ______ ____
ROOT
ATOM      1  C   UNL     1       9.947  47.593  44.907  0.00  0.00    +0.000 C 
ATOM      2  C   UNL     1      11.455  47.549  44.599  0.00  0.00    +0.000 C 
ATOM      3  C   UNL     1      11.651  46.699  43.330  0.00  0.00    +0.000 C 
ATOM      4  O   UNL     1      11.821  48.907  44.294  0.00  0.00    +0.000 OA
ATOM      5  C   UNL     1      13.146  49.226  44.364  0.00  0.00    +0.000 A 
ATOM      6  C   UNL     1      13.496  50.449  43.782  0.00  0.00    +0.000 A 
ATOM      7  C   UNL     1      14.825  50.891  43.773  0.00  0.00    +0.000 A 
ATOM      8  C   UNL     1      15.802  50.096  44.386  0.00  0.00    +0.000 A 
ATOM      9  C   UNL     1      15.448  48.877  44.981  0.00  0.00    +0.000 A 
ATOM     10  C   UNL     1      14.115  48.432  44.976  0.00  0.00    +0.000 A 
ATOM     11  C   UNL     1      13.756  47.132  45.650  0.00  0.00    +0.000 C 
ATOM     12  C   UNL     1      12.227  46.975  45.813  0.00  0.00    +0.000 C 
ATOM     13  C   UNL     1      17.221  50.537  44.421  0.00  0.00    +0.000 C 
ATOM     14  O   UNL     1      18.075  49.830  44.952  0.00  0.00    +0.000 OA
ATOM     15  C   UNL     1      17.557  51.890  43.839  0.00  0.00    +0.000 C 
ATOM     16  C   UNL     1      16.620  52.260  42.700  0.00  0.00    +0.000 C 
ATOM     17  C   UNL     1      15.167  52.221  43.160  0.00  0.00    +0.000 C 
ENDROOT
BRANCH  11  18
ATOM     18  N   UNL     1      14.371  46.008  44.948  0.00  0.00    +0.000 N 
ATOM     19  C   UNL     1      14.177  44.716  45.386  0.00  0.00    +0.000 C 
ATOM     20  O   UNL     1      13.439  44.433  46.323  0.00  0.00    +0.000 OA
ATOM     21  H   UNL     1      15.142  46.214  44.326  0.00  0.00    +0.000 HD
BRANCH  19  22
ATOM     22  C   UNL     1      14.933  43.649  44.677  0.00  0.00    +0.000 A 
ATOM     23  C   UNL     1      15.422  43.923  43.391  0.00  0.00    +0.000 A 
ATOM     24  C   UNL     1      16.143  42.955  42.690  0.00  0.00    +0.000 A 
ATOM     25  C   UNL     1      16.382  41.717  43.279  0.00  0.00    +0.000 A 
ATOM     26  F   UNL     1      17.077  40.800  42.591  0.00  0.00    +0.000 F 
ATOM     27  C   UNL     1      15.913  41.440  44.563  0.00  0.00    +0.000 A 
ATOM     28 CL   UNL     1      16.221  39.915  45.299  0.00  0.00    +0.000 Cl
ATOM     29  C   UNL     1      15.190  42.404  45.269  0.00  0.00    +0.000 A 
ENDBRANCH  19  22
ENDBRANCH  11  18
BRANCH  12  30
ATOM     30  O   UNL     1      11.813  47.622  47.034  0.00  0.00    +0.000 OA
ATOM     31  H   UNL     1      10.850  47.497  47.106  0.00  0.00    +0.000 HD
ENDBRANCH  12  30
TORSDOF 3
ENDMDL
MODEL 2
REMARK VINA RESULT:    -6.989      6.681     11.309
REMARK INTER + INTRA:          -8.558
REMARK INTER:                  -7.936
REMARK INTRA:                  -0.622
REMARK UNBOUND:                -0.547
REMARK  Name = 
REMARK  5 active torsions:
REMARK  status: ('A' for Active; 'I' for Inactive)
REMARK    1  A    between atoms: C_1  and  C_2
REMARK    2  A    between atoms: C_2  and  C_3
REMARK    3  A    between atoms: C_11  and  N_12
REMARK    4  A    between atoms: C_13  and  C_15
REMARK    5  A    between atoms: C_23  and  O_24
REMARK                            x       y       z     vdW  Elec       q    Type
REMARK                         _______ _______ _______ _____ _____    ______ ____
ROOT
ATOM      1  C   UNL     1      14.903  40.698  53.399  0.00  0.00    +0.000 C 
ATOM      2  C   UNL     1      15.640  40.255  52.122  0.00  0.00    +0.000 C 
ATOM      3  C   UNL     1      16.311  41.500  51.511  0.00  0.00    +0.000 C 
ATOM      4  O   UNL     1      16.672  39.358  52.569  0.00  0.00    +0.000 OA
ATOM      5  C   UNL     1      17.221  38.525  51.639  0.00  0.00    +0.000 A 
ATOM      6  C   UNL     1      18.404  37.891  52.030  0.00  0.00    +0.000 A 
ATOM      7  C   UNL     1      19.077  37.019  51.165  0.00  0.00    +0.000 A 
ATOM      8  C   UNL     1      18.528  36.769  49.901  0.00  0.00    +0.000 A 
ATOM      9  C   UNL     1      17.334  37.393  49.515  0.00  0.00    +0.000 A 
ATOM     10  C   UNL     1      16.669  38.278  50.382  0.00  0.00    +0.000 A 
ATOM     11  C   UNL     1      15.370  38.913  49.954  0.00  0.00    +0.000 C 
ATOM     12  C   UNL     1      14.645  39.587  51.141  0.00  0.00    +0.000 C 
ATOM     13  C   UNL     1      19.195  35.832  48.959  0.00  0.00    +0.000 C 
ATOM     14  O   UNL     1      18.713  35.623  47.848  0.00  0.00    +0.000 OA
ATOM     15  C   UNL     1      20.439  35.116  49.434  0.00  0.00    +0.000 C 
ATOM     16  C   UNL     1      21.218  35.950  50.439  0.00  0.00    +0.000 C 
ATOM     17  C   UNL     1      20.337  36.334  51.622  0.00  0.00    +0.000 C 
ENDROOT
BRANCH  11  18
ATOM     18  N   UNL     1      15.594  39.823  48.834  0.00  0.00    +0.000 N 
ATOM     19  C   UNL     1      14.728  39.844  47.763  0.00  0.00    +0.000 C 
ATOM     20  O   UNL     1      13.705  39.170  47.719  0.00  0.00    +0.000 OA
ATOM     21  H   UNL     1      16.520  40.220  48.735  0.00  0.00    +0.000 HD
BRANCH  19  22
ATOM     22  C   UNL     1      15.098  40.721  46.620  0.00  0.00    +0.000 A 
ATOM     23  C   UNL     1      14.821  42.093  46.718  0.00  0.00    +0.000 A 
ATOM     24  C   UNL     1      15.156  42.956  45.673  0.00  0.00    +0.000 A 
ATOM     25  C   UNL     1      15.777  42.448  44.535  0.00  0.00    +0.000 A 
ATOM     26  F   UNL     1      16.093  43.292  43.543  0.00  0.00    +0.000 F 
ATOM     27  C   UNL     1      16.071  41.089  44.436  0.00  0.00    +0.000 A 
ATOM     28 CL   UNL     1      16.854  40.461  43.037  0.00  0.00    +0.000 Cl
ATOM     29  C   UNL     1      15.736  40.219  45.477  0.00  0.00    +0.000 A 
ENDBRANCH  19  22
ENDBRANCH  11  18
BRANCH  12  30
ATOM     30  O   UNL     1      13.838  38.603  51.822  0.00  0.00    +0.000 OA
ATOM     31  H   UNL     1      14.235  38.475  52.702  0.00  0.00    +0.000 HD
ENDBRANCH  12  30
TORSDOF 3
ENDMDL
MODEL 3
REMARK VINA RESULT:    -6.796      1.339      1.760
REMARK INTER + INTRA:          -8.336
REMARK INTER:                  -7.789
REMARK INTRA:                  -0.547
REMARK UNBOUND:                -0.547
REMARK  Name = 
REMARK  5 active torsions:
REMARK  status: ('A' for Active; 'I' for Inactive)
REMARK    1  A    between atoms: C_1  and  C_2
REMARK    2  A    between atoms: C_2  and  C_3
REMARK    3  A    between atoms: C_11  and  N_12
REMARK    4  A    between atoms: C_13  and  C_15
REMARK    5  A    between atoms: C_23  and  O_24
REMARK                            x       y       z     vdW  Elec       q    Type
REMARK                         _______ _______ _______ _____ _____    ______ ____
ROOT
ATOM      1  C   UNL     1       9.295  45.322  45.273  0.00  0.00    +0.000 C 
ATOM      2  C   UNL     1      10.774  45.571  44.928  0.00  0.00    +0.000 C 
ATOM      3  C   UNL     1      11.052  44.925  43.558  0.00  0.00    +0.000 C 
ATOM      4  O   UNL     1      10.898  46.998  44.788  0.00  0.00    +0.000 OA
ATOM      5  C   UNL     1      12.153  47.526  44.868  0.00  0.00    +0.000 A 
ATOM      6  C   UNL     1      12.270  48.852  44.438  0.00  0.00    +0.000 A 
ATOM      7  C   UNL     1      13.507  49.510  44.454  0.00  0.00    +0.000 A 
ATOM      8  C   UNL     1      14.627  48.824  44.939  0.00  0.00    +0.000 A 
ATOM      9  C   UNL     1      14.506  47.500  45.384  0.00  0.00    +0.000 A 
ATOM     10  C   UNL     1      13.266  46.839  45.353  0.00  0.00    +0.000 A 
ATOM     11  C   UNL     1      13.157  45.425  45.865  0.00  0.00    +0.000 C 
ATOM     12  C   UNL     1      11.682  44.994  46.042  0.00  0.00    +0.000 C 
ATOM     13  C   UNL     1      15.955  49.491  44.998  0.00  0.00    +0.000 C 
ATOM     14  O   UNL     1      16.936  48.881  45.416  0.00  0.00    +0.000 OA
ATOM     15  C   UNL     1      16.037  50.942  44.584  0.00  0.00    +0.000 C 
ATOM     16  C   UNL     1      15.003  51.283  43.522  0.00  0.00    +0.000 C 
ATOM     17  C   UNL     1      13.598  50.943  44.006  0.00  0.00    +0.000 C 
ENDROOT
BRANCH  11  18
ATOM     18  N   UNL     1      13.917  44.515  45.013  0.00  0.00    +0.000 N 
ATOM     19  C   UNL     1      14.387  43.318  45.508  0.00  0.00    +0.000 C 
ATOM     20  O   UNL     1      14.140  42.923  46.642  0.00  0.00    +0.000 OA
ATOM     21  H   UNL     1      14.318  44.897  44.166  0.00  0.00    +0.000 HD
BRANCH  19  22
ATOM     22  C   UNL     1      15.246  42.510  44.602  0.00  0.00    +0.000 A 
ATOM     23  C   UNL     1      15.855  43.154  43.514  0.00  0.00    +0.000 A 
ATOM     24  C   UNL     1      16.675  42.439  42.641  0.00  0.00    +0.000 A 
ATOM     25  C   UNL     1      16.893  41.082  42.861  0.00  0.00    +0.000 A 
ATOM     26  F   UNL     1      17.685  40.411  42.012  0.00  0.00    +0.000 F 
ATOM     27  C   UNL     1      16.305  40.437  43.948  0.00  0.00    +0.000 A 
ATOM     28 CL   UNL     1      16.587  38.762  44.231  0.00  0.00    +0.000 Cl
ATOM     29  C   UNL     1      15.482  41.147  44.825  0.00  0.00    +0.000 A 
ENDBRANCH  19  22
ENDBRANCH  11  18
BRANCH  12  30
ATOM     30  O   UNL     1      11.221  45.409  47.344  0.00  0.00    +0.000 OA
ATOM     31  H   UNL     1      11.748  46.190  47.593  0.00  0.00    +0.000 HD
ENDBRANCH  12  30
TORSDOF 3
ENDMDL
