MODEL 1
REMARK VINA RESULT:    -6.375      0.000      0.000
REMARK INTER + INTRA:          -8.919
REMARK INTER:                  -7.538
REMARK INTRA:                  -1.381
REMARK UNBOUND:                -0.866
REMARK  Name = 
REMARK  6 active torsions:
REMARK  status: ('A' for Active; 'I' for Inactive)
REMARK    1  A    between atoms: O_1  and  N_2
REMARK    2  A    between atoms: C_3  and  C_4
REMARK    3  A    between atoms: C_3  and  C_11
REMARK    4  A    between atoms: C_9  and  O_10
REMARK    5  A    between atoms: C_13  and  C_14
REMARK    6  A    between atoms: C_22  and  O_23
REMARK                            x       y       z     vdW  Elec       q    Type
REMARK                         _______ _______ _______ _____ _____    ______ ____
ROOT
ATOM      1  C   UNL     1      13.568  43.298  45.918  0.00  0.00    +0.000 A 
ATOM      2  C   UNL     1      13.807  44.659  45.679  0.00  0.00    +0.000 A 
ATOM      3  C   UNL     1      12.937  45.638  46.184  0.00  0.00    +0.000 A 
ATOM      4  C   UNL     1      11.825  45.212  46.932  0.00  0.00    +0.000 A 
ATOM      5  C   UNL     1      11.581  43.853  47.168  0.00  0.00    +0.000 A 
ATOM      6  C   UNL     1      12.455  42.897  46.660  0.00  0.00    +0.000 A 
ENDROOT
BRANCH   3   7
ATOM      7  C   UNL     1      13.183  47.069  45.939  0.00  0.00    +0.000 A 
ATOM      8  C   UNL     1      14.360  47.502  45.304  0.00  0.00    +0.000 A 
ATOM      9  C   UNL     1      14.595  48.861  45.070  0.00  0.00    +0.000 A 
ATOM     10  C   UNL     1      13.655  49.808  45.465  0.00  0.00    +0.000 A 
ATOM     11  C   UNL     1      12.482  49.400  46.096  0.00  0.00    +0.000 A 
ATOM     12  C   UNL     1      12.250  48.043  46.331  0.00  0.00    +0.000 A 
ENDBRANCH   3   7
BRANCH   1  14
ATOM     13  N   UNL     1      15.281  41.543  46.126  0.00  0.00    +0.000 NA
ATOM     14  C   UNL     1      14.527  42.301  45.371  0.00  0.00    +0.000 C 
BRANCH  14  15
ATOM     15  C   UNL     1      14.631  42.143  43.877  0.00  0.00    +0.000 A 
ATOM     16  C   UNL     1      13.684  41.392  43.163  0.00  0.00    +0.000 A 
ATOM     17  C   UNL     1      13.789  41.248  41.776  0.00  0.00    +0.000 A 
ATOM     18  C   UNL     1      14.841  41.846  41.085  0.00  0.00    +0.000 A 
ATOM     19  C   UNL     1      15.794  42.586  41.782  0.00  0.00    +0.000 A 
ATOM     20  C   UNL     1      15.693  42.729  43.166  0.00  0.00    +0.000 A 
BRANCH  20  21
ATOM     21  O   UNL     1      16.681  43.465  43.763  0.00  0.00    +0.000 OA
ATOM     22  H   UNL     1      16.812  44.261  43.202  0.00  0.00    +0.000 HD
ENDBRANCH  20  21
ENDBRANCH  14  15
BRANCH  13  23
ATOM     23  O   UNL     1      15.111  41.809  47.489  0.00  0.00    +0.000 OA
ATOM     24  H   UNL     1      16.026  41.819  47.824  0.00  0.00    +0.000 HD
ENDBRANCH  13  23
ENDBRANCH   1  14
BRANCH   6  25
ATOM     25  O   UNL     1      12.229  41.570  46.889  0.00  0.00    +0.000 OA
ATOM     26  H   UNL     1      11.349  41.457  47.287  0.00  0.00    +0.000 HD
ENDBRANCH   6  25
TORSDOF 6
ENDMDL
MODEL 2
REMARK VINA RESULT:    -6.160      3.636      7.113
REMARK INTER + INTRA:          -8.647
REMARK INTER:                  -7.225
REMARK INTRA:                  -1.422
REMARK UNBOUND:                -0.866
REMARK  Name = 
REMARK  6 active torsions:
REMARK  status: ('A' for Active; 'I' for Inactive)
REMARK    1  A    between atoms: O_1  and  N_2
REMARK    2  A    between atoms: C_3  and  C_4
REMARK    3  A    between atoms: C_3  and  C_11
REMARK    4  A    between atoms: C_9  and  O_10
REMARK    5  A    between atoms: C_13  and  C_14
REMARK    6  A    between atoms: C_22  and  O_23
REMARK                            x       y       z     vdW  Elec       q    Type
REMARK                         _______ _______ _______ _____ _____    ______ ____
ROOT
ATOM      1  C   UNL     1      12.846  47.661  45.232  0.00  0.00    +0.000 A 
ATOM      2  C   UNL     1      13.653  46.583  44.841  0.00  0.00    +0.000 A 
ATOM      3  C   UNL     1      13.550  45.340  45.487  0.00  0.00    +0.000 A 
ATOM      4  C   UNL     1      12.618  45.215  46.533  0.00  0.00    +0.000 A 
ATOM      5  C   UNL     1      11.815  46.291  46.928  0.00  0.00    +0.000 A 
ATOM      6  C   UNL     1      11.930  47.514  46.275  0.00  0.00    +0.000 A 
ENDROOT
BRANCH   3   7
ATOM      7  C   UNL     1      14.393  44.204  45.080  0.00  0.00    +0.000 A 
ATOM      8  C   UNL     1      15.105  44.227  43.869  0.00  0.00    +0.000 A 
ATOM      9  C   UNL     1      15.907  43.149  43.482  0.00  0.00    +0.000 A 
ATOM     10  C   UNL     1      16.010  42.029  44.302  0.00  0.00    +0.000 A 
ATOM     11  C   UNL     1      15.312  41.984  45.506  0.00  0.00    +0.000 A 
ATOM     12  C   UNL     1      14.511  43.062  45.891  0.00  0.00    +0.000 A 
ENDBRANCH   3   7
BRANCH   1  14
ATOM     13  N   UNL     1      12.235  49.286  43.487  0.00  0.00    +0.000 NA
ATOM     14  C   UNL     1      12.985  48.952  44.506  0.00  0.00    +0.000 C 
BRANCH  14  15
ATOM     15  C   UNL     1      14.029  49.933  44.971  0.00  0.00    +0.000 A 
ATOM     16  C   UNL     1      15.378  49.776  44.612  0.00  0.00    +0.000 A 
ATOM     17  C   UNL     1      16.342  50.690  45.049  0.00  0.00    +0.000 A 
ATOM     18  C   UNL     1      15.975  51.767  45.853  0.00  0.00    +0.000 A 
ATOM     19  C   UNL     1      14.642  51.929  46.226  0.00  0.00    +0.000 A 
ATOM     20  C   UNL     1      13.679  51.018  45.793  0.00  0.00    +0.000 A 
BRANCH  20  21
ATOM     21  O   UNL     1      12.399  51.255  46.218  0.00  0.00    +0.000 OA
ATOM     22  H   UNL     1      12.300  52.232  46.270  0.00  0.00    +0.000 HD
ENDBRANCH  20  21
ENDBRANCH  14  15
BRANCH  13  23
ATOM     23  O   UNL     1      11.330  48.278  43.138  0.00  0.00    +0.000 OA
ATOM     24  H   UNL     1      11.732  47.893  42.338  0.00  0.00    +0.000 HD
ENDBRANCH  13  23
ENDBRANCH   1  14
BRANCH   6  25
ATOM     25  O   UNL     1      11.147  48.568  46.650  0.00  0.00    +0.000 OA
ATOM     26  H   UNL     1      10.620  48.318  47.427  0.00  0.00    +0.000 HD
ENDBRANCH   6  25
TORSDOF 6
ENDMDL
MODEL 3
REMARK VINA RESULT:    -6.016      9.738     12.644
REMARK INTER + INTRA:          -8.466
REMARK INTER:                  -7.599
REMARK INTRA:                  -0.866
REMARK UNBOUND:                -0.866
REMARK  Name = 
REMARK  6 active torsions:
REMARK  status: ('A' for Active; 'I' for Inactive)
REMARK    1  A    between atoms: O_1  and  N_2
REMARK    2  A    between atoms: C_3  and  C_4
REMARK    3  A    between atoms: C_3  and  C_11
REMARK    4  A    between atoms: C_9  and  O_10
REMARK    5  A    between atoms: C_13  and  C_14
REMARK    6  A    between atoms: C_22  and  O_23
REMARK                            x       y       z     vdW  Elec       q    Type
REMARK                         _______ _______ _______ _____ _____    ______ ____
ROOT
ATOM      1  C   UNL     1      17.165  38.795  52.724  0.00  0.00    +0.000 A 
ATOM      2  C   UNL     1      18.273  38.063  52.275  0.00  0.00    +0.000 A 
ATOM      3  C   UNL     1      18.227  37.369  51.056  0.00  0.00    +0.000 A 
ATOM      4  C   UNL     1      17.040  37.430  50.305  0.00  0.00    +0.000 A 
ATOM      5  C   UNL     1      15.930  38.157  50.752  0.00  0.00    +0.000 A 
ATOM      6  C   UNL     1      15.995  38.840  51.963  0.00  0.00    +0.000 A 
ENDROOT
BRANCH   3   7
ATOM      7  C   UNL     1      19.388  36.599  50.579  0.00  0.00    +0.000 A 
ATOM      8  C   UNL     1      19.330  35.872  49.377  0.00  0.00    +0.000 A 
ATOM      9  C   UNL     1      20.432  35.141  48.922  0.00  0.00    +0.000 A 
ATOM     10  C   UNL     1      21.611  35.127  49.661  0.00  0.00    +0.000 A 
ATOM     11  C   UNL     1      21.690  35.840  50.855  0.00  0.00    +0.000 A 
ATOM     12  C   UNL     1      20.588  36.568  51.309  0.00  0.00    +0.000 A 
ENDBRANCH   3   7
BRANCH   1  14
ATOM     13  N   UNL     1      17.328  40.828  54.101  0.00  0.00    +0.000 NA
ATOM     14  C   UNL     1      17.270  39.524  54.016  0.00  0.00    +0.000 C 
BRANCH  14  15
ATOM     15  C   UNL     1      17.298  38.727  55.294  0.00  0.00    +0.000 A 
ATOM     16  C   UNL     1      17.516  37.340  55.275  0.00  0.00    +0.000 A 
ATOM     17  C   UNL     1      17.539  36.606  56.466  0.00  0.00    +0.000 A 
ATOM     18  C   UNL     1      17.339  37.246  57.688  0.00  0.00    +0.000 A 
ATOM     19  C   UNL     1      17.111  38.620  57.721  0.00  0.00    +0.000 A 
ATOM     20  C   UNL     1      17.086  39.353  56.535  0.00  0.00    +0.000 A 
BRANCH  20  21
ATOM     21  O   UNL     1      16.846  40.695  56.667  0.00  0.00    +0.000 OA
ATOM     22  H   UNL     1      17.504  41.032  57.314  0.00  0.00    +0.000 HD
ENDBRANCH  20  21
ENDBRANCH  14  15
BRANCH  13  23
ATOM     23  O   UNL     1      17.324  41.445  52.845  0.00  0.00    +0.000 OA
ATOM     24  H   UNL     1      17.523  40.707  52.240  0.00  0.00    +0.000 HD
ENDBRANCH  13  23
ENDBRANCH   1  14
BRANCH   6  25
ATOM     25  O   UNL     1      14.919  39.555  52.405  0.00  0.00    +0.000 OA
ATOM     26  H   UNL     1      14.113  39.022  52.303  0.00  0.00    +0.000 HD
ENDBRANCH   6  25
TORSDOF 6
ENDMDL
