MODEL 1
REMARK VINA RESULT:    -6.529      0.000      0.000
REMARK INTER + INTRA:          -6.911
REMARK INTER:                  -6.911
REMARK INTRA:                   0.000
REMARK UNBOUND:                 0.000
REMARK  Name = 
REMARK  3 active torsions:
REMARK  status: ('A' for Active; 'I' for Inactive)
REMARK    1  A    between atoms: C_1  and  C_2
REMARK    2  A    between atoms: C_11  and  O_12
REMARK    3  A    between atoms: C_21  and  O_22
REMARK                            x       y       z     vdW  Elec       q    Type
REMARK                         _______ _______ _______ _____ _____    ______ ____
ROOT
ATOM      1  C   UNL     1      11.407  46.361  44.581  0.00  0.00    +0.000 C 
ATOM      2  C   UNL     1      12.179  46.473  45.920  0.00  0.00    +0.000 C 
ATOM      3  C   UNL     1      13.608  46.957  45.654  0.00  0.00    +0.000 C 
ATOM      4  C   UNL     1      14.423  45.896  44.895  0.00  0.00    +0.000 C 
ATOM      5  C   UNL     1      14.427  44.489  45.567  0.00  0.00    +0.000 C 
ATOM      6  C   UNL     1      15.139  43.312  44.799  0.00  0.00    +0.000 A 
ATOM      7  C   UNL     1      15.769  43.616  43.641  0.00  0.00    +0.000 A 
ATOM      8  C   UNL     1      16.355  42.848  42.720  0.00  0.00    +0.000 A 
ATOM      9  C   UNL     1      16.262  41.337  42.683  0.00  0.00    +0.000 A 
ATOM     10  N   UNL     1      16.198  40.753  41.532  0.00  0.00    +0.000 NA
ATOM     11  C   UNL     1      16.219  40.505  43.966  0.00  0.00    +0.000 A 
ATOM     12  C   UNL     1      15.616  40.908  45.083  0.00  0.00    +0.000 A 
ATOM     13  C   UNL     1      15.085  42.100  45.429  0.00  0.00    +0.000 A 
ATOM     14  C   UNL     1      14.376  42.070  46.790  0.00  0.00    +0.000 C 
ATOM     15  C   UNL     1      13.002  42.733  46.761  0.00  0.00    +0.000 C 
ATOM     16  C   UNL     1      12.982  44.039  45.953  0.00  0.00    +0.000 C 
ATOM     17  C   UNL     1      12.271  45.160  46.718  0.00  0.00    +0.000 C 
ATOM     18  C   UNL     1      10.837  44.938  47.201  0.00  0.00    +0.000 C 
ATOM     19  C   UNL     1      10.312  46.361  47.475  0.00  0.00    +0.000 C 
ATOM     20  C   UNL     1      11.388  47.324  46.933  0.00  0.00    +0.000 C 
ATOM     21  H   UNL     1      16.039  39.749  41.660  0.00  0.00    +0.000 HD
ENDROOT
BRANCH  11  22
ATOM     22  O   UNL     1      16.779  39.237  43.900  0.00  0.00    +0.000 OA
ATOM     23  H   UNL     1      16.037  38.611  43.807  0.00  0.00    +0.000 HD
ENDBRANCH  11  22
BRANCH  20  24
ATOM     24  O   UNL     1      10.831  48.504  46.387  0.00  0.00    +0.000 OA
ATOM     25  H   UNL     1      10.036  48.266  45.881  0.00  0.00    +0.000 HD
ENDBRANCH  20  24
TORSDOF 2
ENDMDL
MODEL 2
REMARK VINA RESULT:    -5.693      1.703      2.682
REMARK INTER + INTRA:          -6.025
REMARK INTER:                  -6.025
REMARK INTRA:                   0.000
REMARK UNBOUND:                 0.000
REMARK  Name = 
REMARK  3 active torsions:
REMARK  status: ('A' for Active; 'I' for Inactive)
REMARK    1  A    between atoms: C_1  and  C_2
REMARK    2  A    between atoms: C_11  and  O_12
REMARK    3  A    between atoms: C_21  and  O_22
REMARK                            x       y       z     vdW  Elec       q    Type
REMARK                         _______ _______ _______ _____ _____    ______ ____
ROOT
ATOM      1  C   UNL     1      12.629  44.182  43.683  0.00  0.00    +0.000 C 
ATOM      2  C   UNL     1      13.658  44.555  44.780  0.00  0.00    +0.000 C 
ATOM      3  C   UNL     1      15.009  44.877  44.133  0.00  0.00    +0.000 C 
ATOM      4  C   UNL     1      15.641  43.623  43.507  0.00  0.00    +0.000 C 
ATOM      5  C   UNL     1      15.765  42.413  44.482  0.00  0.00    +0.000 C 
ATOM      6  C   UNL     1      16.292  41.049  43.895  0.00  0.00    +0.000 A 
ATOM      7  C   UNL     1      16.677  41.038  42.599  0.00  0.00    +0.000 A 
ATOM      8  C   UNL     1      17.056  40.044  41.792  0.00  0.00    +0.000 A 
ATOM      9  C   UNL     1      16.940  38.573  42.137  0.00  0.00    +0.000 A 
ATOM     10  N   UNL     1      16.637  37.743  41.195  0.00  0.00    +0.000 NA
ATOM     11  C   UNL     1      17.148  38.066  43.565  0.00  0.00    +0.000 A 
ATOM     12  C   UNL     1      16.789  38.753  44.649  0.00  0.00    +0.000 A 
ATOM     13  C   UNL     1      16.353  40.022  44.795  0.00  0.00    +0.000 A 
ATOM     14  C   UNL     1      15.935  40.352  46.235  0.00  0.00    +0.000 C 
ATOM     15  C   UNL     1      14.591  41.070  46.316  0.00  0.00    +0.000 C 
ATOM     16  C   UNL     1      14.423  42.152  45.238  0.00  0.00    +0.000 C 
ATOM     17  C   UNL     1      13.895  43.460  45.836  0.00  0.00    +0.000 C 
ATOM     18  C   UNL     1      12.587  43.443  46.627  0.00  0.00    +0.000 C 
ATOM     19  C   UNL     1      12.145  44.919  46.648  0.00  0.00    +0.000 C 
ATOM     20  C   UNL     1      13.099  45.664  45.694  0.00  0.00    +0.000 C 
ATOM     21  H   UNL     1      16.495  36.807  41.587  0.00  0.00    +0.000 HD
ENDROOT
BRANCH  11  22
ATOM     22  O   UNL     1      17.668  36.786  43.698  0.00  0.00    +0.000 OA
ATOM     23  H   UNL     1      18.029  36.725  44.602  0.00  0.00    +0.000 HD
ENDBRANCH  11  22
BRANCH  20  24
ATOM     24  O   UNL     1      12.457  46.715  44.999  0.00  0.00    +0.000 OA
ATOM     25  H   UNL     1      11.908  46.333  44.294  0.00  0.00    +0.000 HD
ENDBRANCH  20  24
TORSDOF 2
ENDMDL
MODEL 3
REMARK VINA RESULT:    -5.654      2.739      7.225
REMARK INTER + INTRA:          -5.984
REMARK INTER:                  -5.984
REMARK INTRA:                   0.000
REMARK UNBOUND:                 0.000
REMARK  Name = 
REMARK  3 active torsions:
REMARK  status: ('A' for Active; 'I' for Inactive)
REMARK    1  A    between atoms: C_1  and  C_2
REMARK    2  A    between atoms: C_11  and  O_12
REMARK    3  A    between atoms: C_21  and  O_22
REMARK                            x       y       z     vdW  Elec       q    Type
REMARK                         _______ _______ _______ _____ _____    ______ ____
ROOT
ATOM      1  C   UNL     1      13.132  42.071  43.781  0.00  0.00    +0.000 C 
ATOM      2  C   UNL     1      14.318  42.463  44.699  0.00  0.00    +0.000 C 
ATOM      3  C   UNL     1      13.913  42.294  46.166  0.00  0.00    +0.000 C 
ATOM      4  C   UNL     1      12.838  43.318  46.569  0.00  0.00    +0.000 C 
ATOM      5  C   UNL     1      13.217  44.799  46.261  0.00  0.00    +0.000 C 
ATOM      6  C   UNL     1      12.127  45.905  46.531  0.00  0.00    +0.000 A 
ATOM      7  C   UNL     1      10.961  45.507  47.087  0.00  0.00    +0.000 A 
ATOM      8  C   UNL     1       9.824  46.161  47.333  0.00  0.00    +0.000 A 
ATOM      9  C   UNL     1       9.512  47.554  46.824  0.00  0.00    +0.000 A 
ATOM     10  N   UNL     1       8.299  47.823  46.475  0.00  0.00    +0.000 NA
ATOM     11  C   UNL     1      10.600  48.622  46.698  0.00  0.00    +0.000 A 
ATOM     12  C   UNL     1      11.860  48.352  46.358  0.00  0.00    +0.000 A 
ATOM     13  C   UNL     1      12.512  47.179  46.217  0.00  0.00    +0.000 A 
ATOM     14  C   UNL     1      13.942  47.346  45.683  0.00  0.00    +0.000 C 
ATOM     15  C   UNL     1      14.273  46.380  44.550  0.00  0.00    +0.000 C 
ATOM     16  C   UNL     1      13.746  44.959  44.800  0.00  0.00    +0.000 C 
ATOM     17  C   UNL     1      14.821  43.906  44.514  0.00  0.00    +0.000 C 
ATOM     18  C   UNL     1      15.487  43.875  43.139  0.00  0.00    +0.000 C 
ATOM     19  C   UNL     1      16.114  42.469  43.059  0.00  0.00    +0.000 C 
ATOM     20  C   UNL     1      15.594  41.700  44.290  0.00  0.00    +0.000 C 
ATOM     21  H   UNL     1       8.256  48.760  46.061  0.00  0.00    +0.000 HD
ENDROOT
BRANCH  11  22
ATOM     22  O   UNL     1      10.199  49.938  46.877  0.00  0.00    +0.000 OA
ATOM     23  H   UNL     1      10.613  50.455  46.161  0.00  0.00    +0.000 HD
ENDBRANCH  11  22
BRANCH  20  24
ATOM     24  O   UNL     1      15.387  40.327  44.022  0.00  0.00    +0.000 OA
ATOM     25  H   UNL     1      15.311  39.853  44.867  0.00  0.00    +0.000 HD
ENDBRANCH  20  24
TORSDOF 2
ENDMDL
