MODEL 1
REMARK VINA RESULT:    -7.738      0.000      0.000
REMARK INTER + INTRA:         -11.341
REMARK INTER:                  -9.896
REMARK INTRA:                  -1.445
REMARK UNBOUND:                -0.436
REMARK  Name = 
REMARK  10 active torsions:
REMARK  status: ('A' for Active; 'I' for Inactive)
REMARK    1  A    between atoms: C_1  and  C_2
REMARK    2  A    between atoms: C_9  and  C_10
REMARK    3  A    between atoms: C_11  and  C_12
REMARK    4  A    between atoms: C_12  and  N_13
REMARK    5  A    between atoms: N_16  and  C_17
REMARK    6  A    between atoms: C_17  and  C_18
REMARK    7  A    between atoms: C_18  and  N_19
REMARK    8  A    between atoms: N_19  and  C_20
REMARK    9  A    between atoms: N_19  and  C_21
REMARK   10  A    between atoms: C_32  and  C_33
REMARK                            x       y       z     vdW  Elec       q    Type
REMARK                         _______ _______ _______ _____ _____    ______ ____
ROOT
ATOM      1  C   UNL     1      18.284  40.014  52.865  0.00  0.00    +0.000 C 
ATOM      2  C   UNL     1      17.340  40.022  54.007  0.00  0.00    +0.000 A 
ATOM      3  N   UNL     1      17.693  39.764  55.251  0.00  0.00    +0.000 NA
ATOM      4  N   UNL     1      16.606  39.941  56.055  0.00  0.00    +0.000 NA
ATOM      5  C   UNL     1      15.598  40.302  55.292  0.00  0.00    +0.000 A 
ATOM      6  N   UNL     1      15.996  40.382  53.971  0.00  0.00    +0.000 N 
ATOM      7  C   UNL     1      15.141  40.728  52.919  0.00  0.00    +0.000 A 
ATOM      8  S   UNL     1      15.453  40.170  51.350  0.00  0.00    +0.000 S 
ATOM      9  C   UNL     1      14.030  40.876  50.742  0.00  0.00    +0.000 A 
ATOM     10  C   UNL     1      13.340  41.548  51.725  0.00  0.00    +0.000 A 
ATOM     11  C   UNL     1      13.986  41.490  53.015  0.00  0.00    +0.000 A 
ATOM     12  C   UNL     1      13.533  42.209  54.212  0.00  0.00    +0.000 C 
ATOM     13  N   UNL     1      13.635  41.766  55.415  0.00  0.00    +0.000 NA
ATOM     14  C   UNL     1      14.183  40.448  55.704  0.00  0.00    +0.000 C 
ENDROOT
BRANCH  12  15
ATOM     15  C   UNL     1      12.886  43.531  54.016  0.00  0.00    +0.000 A 
ATOM     16  C   UNL     1      11.496  43.599  54.202  0.00  0.00    +0.000 A 
ATOM     17  C   UNL     1      10.825  44.808  54.019  0.00  0.00    +0.000 A 
ATOM     18  C   UNL     1      11.536  45.952  53.663  0.00  0.00    +0.000 A 
ATOM     19  C   UNL     1      12.922  45.893  53.498  0.00  0.00    +0.000 A 
ATOM     20  C   UNL     1      13.604  44.685  53.680  0.00  0.00    +0.000 A 
ATOM     21 CL   UNL     1      15.324  44.708  53.521  0.00  0.00    +0.000 Cl
ENDBRANCH  12  15
BRANCH   9  22
ATOM     22  C   UNL     1      13.624  40.783  49.381  0.00  0.00    +0.000 C 
ATOM     23  C   UNL     1      13.280  40.710  48.232  0.00  0.00    +0.000 C 
BRANCH  23  24
ATOM     24  C   UNL     1      12.852  40.630  46.829  0.00  0.00    +0.000 C 
BRANCH  24  25
ATOM     25  N   UNL     1      13.700  41.448  45.966  0.00  0.00    +0.000 N 
ATOM     26  C   UNL     1      14.679  40.786  45.231  0.00  0.00    +0.000 A 
ATOM     27  O   UNL     1      14.841  39.565  45.325  0.00  0.00    +0.000 OA
ATOM     28  N   UNL     1      15.471  41.557  44.392  0.00  0.00    +0.000 N 
ATOM     29  C   UNL     1      15.426  42.941  44.311  0.00  0.00    +0.000 A 
ATOM     30  O   UNL     1      16.206  43.625  43.651  0.00  0.00    +0.000 OA
ATOM     31  C   UNL     1      14.386  43.616  45.103  0.00  0.00    +0.000 A 
ATOM     32  C   UNL     1      14.265  45.014  45.028  0.00  0.00    +0.000 A 
ATOM     33  C   UNL     1      13.296  45.673  45.776  0.00  0.00    +0.000 A 
ATOM     34  C   UNL     1      12.452  44.938  46.599  0.00  0.00    +0.000 A 
ATOM     35  C   UNL     1      12.575  43.546  46.672  0.00  0.00    +0.000 A 
ATOM     36  C   UNL     1      13.544  42.861  45.918  0.00  0.00    +0.000 A 
BRANCH  28  37
ATOM     37  C   UNL     1      16.436  40.854  43.545  0.00  0.00    +0.000 C 
BRANCH  37  38
ATOM     38  C   UNL     1      15.814  40.339  42.225  0.00  0.00    +0.000 C 
BRANCH  38  39
ATOM     39  N   UNL     1      16.059  38.910  41.938  0.00  0.00    +0.000 NA
ATOM     40  C   UNL     1      17.113  38.393  42.815  0.00  0.00    +0.000 C 
ATOM     41  C   UNL     1      16.440  38.700  40.538  0.00  0.00    +0.000 C 
ENDBRANCH  38  39
ENDBRANCH  37  38
ENDBRANCH  28  37
ENDBRANCH  24  25
ENDBRANCH  23  24
ENDBRANCH   9  22
TORSDOF 7
ENDMDL
MODEL 2
REMARK VINA RESULT:    -7.455      2.343      3.045
REMARK INTER + INTRA:         -10.942
REMARK INTER:                  -9.438
REMARK INTRA:                  -1.504
REMARK UNBOUND:                -0.436
REMARK  Name = 
REMARK  10 active torsions:
REMARK  status: ('A' for Active; 'I' for Inactive)
REMARK    1  A    between atoms: C_1  and  C_2
REMARK    2  A    between atoms: C_9  and  C_10
REMARK    3  A    between atoms: C_11  and  C_12
REMARK    4  A    between atoms: C_12  and  N_13
REMARK    5  A    between atoms: N_16  and  C_17
REMARK    6  A    between atoms: C_17  and  C_18
REMARK    7  A    between atoms: C_18  and  N_19
REMARK    8  A    between atoms: N_19  and  C_20
REMARK    9  A    between atoms: N_19  and  C_21
REMARK   10  A    between atoms: C_32  and  C_33
REMARK                            x       y       z     vdW  Elec       q    Type
REMARK                         _______ _______ _______ _____ _____    ______ ____
ROOT
ATOM      1  C   UNL     1      18.208  37.246  50.416  0.00  0.00    +0.000 C 
ATOM      2  C   UNL     1      17.497  37.336  51.712  0.00  0.00    +0.000 A 
ATOM      3  N   UNL     1      17.872  36.691  52.800  0.00  0.00    +0.000 NA
ATOM      4  N   UNL     1      17.054  37.062  53.826  0.00  0.00    +0.000 NA
ATOM      5  C   UNL     1      16.185  37.928  53.354  0.00  0.00    +0.000 A 
ATOM      6  N   UNL     1      16.414  38.157  52.009  0.00  0.00    +0.000 N 
ATOM      7  C   UNL     1      15.641  39.020  51.224  0.00  0.00    +0.000 A 
ATOM      8  S   UNL     1      15.507  38.760  49.555  0.00  0.00    +0.000 S 
ATOM      9  C   UNL     1      14.417  40.053  49.372  0.00  0.00    +0.000 A 
ATOM     10  C   UNL     1      14.179  40.686  50.571  0.00  0.00    +0.000 A 
ATOM     11  C   UNL     1      14.905  40.105  51.675  0.00  0.00    +0.000 A 
ATOM     12  C   UNL     1      14.929  40.646  53.039  0.00  0.00    +0.000 C 
ATOM     13  N   UNL     1      14.998  39.936  54.108  0.00  0.00    +0.000 NA
ATOM     14  C   UNL     1      15.008  38.480  54.063  0.00  0.00    +0.000 C 
ENDROOT
BRANCH  12  15
ATOM     15  C   UNL     1      14.841  42.121  53.195  0.00  0.00    +0.000 A 
ATOM     16  C   UNL     1      16.004  42.865  52.941  0.00  0.00    +0.000 A 
ATOM     17  C   UNL     1      15.991  44.252  53.084  0.00  0.00    +0.000 A 
ATOM     18  C   UNL     1      14.820  44.902  53.467  0.00  0.00    +0.000 A 
ATOM     19  C   UNL     1      13.654  44.167  53.699  0.00  0.00    +0.000 A 
ATOM     20  C   UNL     1      13.657  42.775  53.558  0.00  0.00    +0.000 A 
ATOM     21 CL   UNL     1      12.161  41.945  53.800  0.00  0.00    +0.000 Cl
ENDBRANCH  12  15
BRANCH   9  22
ATOM     22  C   UNL     1      13.840  40.426  48.125  0.00  0.00    +0.000 C 
ATOM     23  C   UNL     1      13.359  40.744  47.071  0.00  0.00    +0.000 C 
BRANCH  23  24
ATOM     24  C   UNL     1      12.776  41.144  45.784  0.00  0.00    +0.000 C 
BRANCH  24  25
ATOM     25  N   UNL     1      13.268  42.453  45.361  0.00  0.00    +0.000 N 
ATOM     26  C   UNL     1      14.315  42.470  44.446  0.00  0.00    +0.000 A 
ATOM     27  O   UNL     1      14.825  41.424  44.031  0.00  0.00    +0.000 OA
ATOM     28  N   UNL     1      14.769  43.712  44.025  0.00  0.00    +0.000 N 
ATOM     29  C   UNL     1      14.324  44.928  44.523  0.00  0.00    +0.000 A 
ATOM     30  O   UNL     1      14.810  46.019  44.227  0.00  0.00    +0.000 OA
ATOM     31  C   UNL     1      13.220  44.882  45.493  0.00  0.00    +0.000 A 
ATOM     32  C   UNL     1      12.702  46.085  46.000  0.00  0.00    +0.000 A 
ATOM     33  C   UNL     1      11.665  46.064  46.926  0.00  0.00    +0.000 A 
ATOM     34  C   UNL     1      11.150  44.844  47.347  0.00  0.00    +0.000 A 
ATOM     35  C   UNL     1      11.669  43.647  46.840  0.00  0.00    +0.000 A 
ATOM     36  C   UNL     1      12.713  43.648  45.898  0.00  0.00    +0.000 A 
BRANCH  28  37
ATOM     37  C   UNL     1      15.804  43.734  42.990  0.00  0.00    +0.000 C 
BRANCH  37  38
ATOM     38  C   UNL     1      15.238  44.027  41.580  0.00  0.00    +0.000 C 
BRANCH  38  39
ATOM     39  N   UNL     1      13.955  43.361  41.274  0.00  0.00    +0.000 NA
ATOM     40  C   UNL     1      14.161  42.294  40.291  0.00  0.00    +0.000 C 
ATOM     41  C   UNL     1      12.962  44.312  40.764  0.00  0.00    +0.000 C 
ENDBRANCH  38  39
ENDBRANCH  37  38
ENDBRANCH  28  37
ENDBRANCH  24  25
ENDBRANCH  23  24
ENDBRANCH   9  22
TORSDOF 7
ENDMDL
MODEL 3
REMARK VINA RESULT:    -7.376      3.137      9.650
REMARK INTER + INTRA:         -10.831
REMARK INTER:                 -10.394
REMARK INTRA:                  -0.436
REMARK UNBOUND:                -0.436
REMARK  Name = 
REMARK  10 active torsions:
REMARK  status: ('A' for Active; 'I' for Inactive)
REMARK    1  A    between atoms: C_1  and  C_2
REMARK    2  A    between atoms: C_9  and  C_10
REMARK    3  A    between atoms: C_11  and  C_12
REMARK    4  A    between atoms: C_12  and  N_13
REMARK    5  A    between atoms: N_16  and  C_17
REMARK    6  A    between atoms: C_17  and  C_18
REMARK    7  A    between atoms: C_18  and  N_19
REMARK    8  A    between atoms: N_19  and  C_20
REMARK    9  A    between atoms: N_19  and  C_21
REMARK   10  A    between atoms: C_32  and  C_33
REMARK                            x       y       z     vdW  Elec       q    Type
REMARK                         _______ _______ _______ _____ _____    ______ ____
ROOT
ATOM      1  C   UNL     1      13.441  39.335  42.386  0.00  0.00    +0.000 C 
ATOM      2  C   UNL     1      14.089  40.651  42.183  0.00  0.00    +0.000 A 
ATOM      3  N   UNL     1      14.442  41.119  41.001  0.00  0.00    +0.000 NA
ATOM      4  N   UNL     1      14.928  42.383  41.164  0.00  0.00    +0.000 NA
ATOM      5  C   UNL     1      14.870  42.673  42.445  0.00  0.00    +0.000 A 
ATOM      6  N   UNL     1      14.336  41.614  43.157  0.00  0.00    +0.000 N 
ATOM      7  C   UNL     1      14.162  41.618  44.544  0.00  0.00    +0.000 A 
ATOM      8  S   UNL     1      14.171  40.159  45.406  0.00  0.00    +0.000 S 
ATOM      9  C   UNL     1      14.021  40.960  46.899  0.00  0.00    +0.000 A 
ATOM     10  C   UNL     1      13.943  42.324  46.734  0.00  0.00    +0.000 A 
ATOM     11  C   UNL     1      14.007  42.735  45.351  0.00  0.00    +0.000 A 
ATOM     12  C   UNL     1      13.834  44.113  44.878  0.00  0.00    +0.000 C 
ATOM     13  N   UNL     1      14.446  44.623  43.869  0.00  0.00    +0.000 NA
ATOM     14  C   UNL     1      15.434  43.870  43.109  0.00  0.00    +0.000 C 
ENDROOT
BRANCH  12  15
ATOM     15  C   UNL     1      12.906  44.990  45.637  0.00  0.00    +0.000 A 
ATOM     16  C   UNL     1      11.724  44.406  46.122  0.00  0.00    +0.000 A 
ATOM     17  C   UNL     1      10.804  45.179  46.830  0.00  0.00    +0.000 A 
ATOM     18  C   UNL     1      11.062  46.527  47.067  0.00  0.00    +0.000 A 
ATOM     19  C   UNL     1      12.247  47.105  46.605  0.00  0.00    +0.000 A 
ATOM     20  C   UNL     1      13.177  46.339  45.894  0.00  0.00    +0.000 A 
ATOM     21 CL   UNL     1      14.645  47.110  45.413  0.00  0.00    +0.000 Cl
ENDBRANCH  12  15
BRANCH   9  22
ATOM     22  C   UNL     1      13.973  40.288  48.153  0.00  0.00    +0.000 C 
ATOM     23  C   UNL     1      13.938  39.722  49.212  0.00  0.00    +0.000 C 
BRANCH  23  24
ATOM     24  C   UNL     1      13.907  39.030  50.508  0.00  0.00    +0.000 C 
BRANCH  24  25
ATOM     25  N   UNL     1      15.035  39.424  51.348  0.00  0.00    +0.000 N 
ATOM     26  C   UNL     1      14.856  40.532  52.169  0.00  0.00    +0.000 A 
ATOM     27  O   UNL     1      13.799  41.171  52.168  0.00  0.00    +0.000 OA
ATOM     28  N   UNL     1      15.919  40.894  52.986  0.00  0.00    +0.000 N 
ATOM     29  C   UNL     1      17.170  40.297  52.967  0.00  0.00    +0.000 A 
ATOM     30  O   UNL     1      18.140  40.695  53.611  0.00  0.00    +0.000 OA
ATOM     31  C   UNL     1      17.335  39.131  52.086  0.00  0.00    +0.000 A 
ATOM     32  C   UNL     1      18.569  38.461  52.057  0.00  0.00    +0.000 A 
ATOM     33  C   UNL     1      18.749  37.363  51.223  0.00  0.00    +0.000 A 
ATOM     34  C   UNL     1      17.700  36.938  50.418  0.00  0.00    +0.000 A 
ATOM     35  C   UNL     1      16.471  37.609  50.448  0.00  0.00    +0.000 A 
ATOM     36  C   UNL     1      16.268  38.716  51.289  0.00  0.00    +0.000 A 
BRANCH  28  37
ATOM     37  C   UNL     1      15.701  41.999  53.922  0.00  0.00    +0.000 C 
BRANCH  37  38
ATOM     38  C   UNL     1      15.713  43.383  53.230  0.00  0.00    +0.000 C 
BRANCH  38  39
ATOM     39  N   UNL     1      14.879  44.412  53.885  0.00  0.00    +0.000 NA
ATOM     40  C   UNL     1      13.460  44.074  53.747  0.00  0.00    +0.000 C 
ATOM     41  C   UNL     1      15.124  45.743  53.319  0.00  0.00    +0.000 C 
ENDBRANCH  38  39
ENDBRANCH  37  38
ENDBRANCH  28  37
ENDBRANCH  24  25
ENDBRANCH  23  24
ENDBRANCH   9  22
TORSDOF 7
ENDMDL
