MODEL 1
REMARK VINA RESULT:    -7.343      0.000      0.000
REMARK INTER + INTRA:         -12.337
REMARK INTER:                 -10.253
REMARK INTRA:                  -2.084
REMARK UNBOUND:                -1.560
REMARK  Name = 
REMARK  9 active torsions:
REMARK  status: ('A' for Active; 'I' for Inactive)
REMARK    1  A    between atoms: N_1  and  C_2
REMARK    2  A    between atoms: C_9  and  O_10
REMARK    3  A    between atoms: O_10  and  C_11
REMARK    4  A    between atoms: C_14  and  C_15
REMARK    5  A    between atoms: C_20  and  N_21
REMARK    6  A    between atoms: C_22  and  C_24
REMARK    7  A    between atoms: C_27  and  C_28
REMARK    8  A    between atoms: C_33  and  S_34
REMARK    9  A    between atoms: S_34  and  N_35
REMARK                            x       y       z     vdW  Elec       q    Type
REMARK                         _______ _______ _______ _____ _____    ______ ____
ROOT
ATOM      1  C   UNL     1      24.120  33.257  50.171  0.00  0.00    +0.000 A 
ATOM      2  C   UNL     1      25.271  32.520  49.875  0.00  0.00    +0.000 A 
ATOM      3  C   UNL     1      26.251  33.072  49.051  0.00  0.00    +0.000 A 
ATOM      4  C   UNL     1      26.075  34.350  48.499  0.00  0.00    +0.000 A 
ATOM      5  C   UNL     1      24.904  35.074  48.795  0.00  0.00    +0.000 A 
ATOM      6  C   UNL     1      23.917  34.535  49.624  0.00  0.00    +0.000 A 
ENDROOT
BRANCH   4   7
ATOM      7  C   UNL     1      27.133  34.964  47.612  0.00  0.00    +0.000 C 
ATOM      8  F   UNL     1      26.752  36.156  47.071  0.00  0.00    +0.000 F 
ATOM      9  F   UNL     1      28.299  35.214  48.267  0.00  0.00    +0.000 F 
ATOM     10  F   UNL     1      27.452  34.165  46.557  0.00  0.00    +0.000 F 
ENDBRANCH   4   7
BRANCH   6  11
ATOM     11  N   UNL     1      22.714  35.198  49.952  0.00  0.00    +0.000 N 
ATOM     12  C   UNL     1      21.463  35.007  49.400  0.00  0.00    +0.000 C 
ATOM     13  O   UNL     1      21.190  34.267  48.462  0.00  0.00    +0.000 OA
ATOM     14  H   UNL     1      22.823  35.942  50.633  0.00  0.00    +0.000 HD
BRANCH  12  15
ATOM     15  C   UNL     1      20.375  35.833  50.000  0.00  0.00    +0.000 A 
ATOM     16  C   UNL     1      19.143  35.898  49.339  0.00  0.00    +0.000 A 
ATOM     17  C   UNL     1      18.100  36.665  49.867  0.00  0.00    +0.000 A 
ATOM     18  C   UNL     1      18.266  37.369  51.070  0.00  0.00    +0.000 A 
ATOM     19  C   UNL     1      19.500  37.285  51.733  0.00  0.00    +0.000 A 
ATOM     20  C   UNL     1      20.546  36.516  51.210  0.00  0.00    +0.000 A 
BRANCH  18  21
ATOM     21  C   UNL     1      17.174  38.184  51.618  0.00  0.00    +0.000 A 
ATOM     22  C   UNL     1      16.886  39.417  51.004  0.00  0.00    +0.000 A 
ATOM     23  C   UNL     1      15.865  40.243  51.479  0.00  0.00    +0.000 A 
ATOM     24  C   UNL     1      15.108  39.851  52.579  0.00  0.00    +0.000 A 
ATOM     25  C   UNL     1      15.370  38.633  53.205  0.00  0.00    +0.000 A 
ATOM     26  C   UNL     1      16.396  37.802  52.731  0.00  0.00    +0.000 A 
BRANCH  26  27
ATOM     27  S   UNL     1      16.714  36.254  53.533  0.00  0.00    +0.000 S 
ATOM     28  O   UNL     1      17.801  36.427  54.469  0.00  0.00    +0.000 OA
ATOM     29  O   UNL     1      16.668  35.199  52.548  0.00  0.00    +0.000 OA
BRANCH  27  30
ATOM     30  N   UNL     1      15.364  35.981  54.504  0.00  0.00    +0.000 NA
ATOM     31  H   UNL     1      15.668  35.514  55.361  0.00  0.00    +0.000 HD
ATOM     32  H   UNL     1      14.897  36.873  54.675  0.00  0.00    +0.000 HD
ENDBRANCH  27  30
ENDBRANCH  26  27
ENDBRANCH  18  21
ENDBRANCH  12  15
ENDBRANCH   6  11
BRANCH   1  33
ATOM     33  O   UNL     1      23.117  32.715  50.952  0.00  0.00    +0.000 OA
BRANCH  33  41
ATOM     34  C   UNL     1      20.481  34.106  54.782  0.00  0.00    +0.000 A 
ATOM     35  N   UNL     1      20.369  34.519  56.058  0.00  0.00    +0.000 NA
ATOM     36  C   UNL     1      21.506  34.627  56.775  0.00  0.00    +0.000 A 
ATOM     37  C   UNL     1      22.764  34.337  56.278  0.00  0.00    +0.000 A 
ATOM     38  C   UNL     1      22.879  33.915  54.951  0.00  0.00    +0.000 A 
ATOM     39  C   UNL     1      24.132  33.621  54.389  0.00  0.00    +0.000 A 
ATOM     40  C   UNL     1      24.240  33.208  53.058  0.00  0.00    +0.000 A 
ATOM     41  C   UNL     1      23.092  33.077  52.281  0.00  0.00    +0.000 A 
ATOM     42  C   UNL     1      21.843  33.385  52.820  0.00  0.00    +0.000 A 
ATOM     43  C   UNL     1      21.712  33.796  54.165  0.00  0.00    +0.000 A 
BRANCH  34  44
ATOM     44  N   UNL     1      19.266  34.011  54.095  0.00  0.00    +0.000 N 
ATOM     45  H   UNL     1      19.238  33.073  53.702  0.00  0.00    +0.000 HD
ATOM     46  H   UNL     1      19.208  34.717  53.369  0.00  0.00    +0.000 HD
ENDBRANCH  34  44
ENDBRANCH  33  41
ENDBRANCH   1  33
TORSDOF 9
ENDMDL
MODEL 2
REMARK VINA RESULT:    -7.293      4.272      8.388
REMARK INTER + INTRA:         -12.263
REMARK INTER:                 -10.316
REMARK INTRA:                  -1.948
REMARK UNBOUND:                -1.560
REMARK  Name = 
REMARK  9 active torsions:
REMARK  status: ('A' for Active; 'I' for Inactive)
REMARK    1  A    between atoms: N_1  and  C_2
REMARK    2  A    between atoms: C_9  and  O_10
REMARK    3  A    between atoms: O_10  and  C_11
REMARK    4  A    between atoms: C_14  and  C_15
REMARK    5  A    between atoms: C_20  and  N_21
REMARK    6  A    between atoms: C_22  and  C_24
REMARK    7  A    between atoms: C_27  and  C_28
REMARK    8  A    between atoms: C_33  and  S_34
REMARK    9  A    between atoms: S_34  and  N_35
REMARK                            x       y       z     vdW  Elec       q    Type
REMARK                         _______ _______ _______ _____ _____    ______ ____
ROOT
ATOM      1  C   UNL     1      18.096  36.216  53.127  0.00  0.00    +0.000 A 
ATOM      2  C   UNL     1      17.044  36.649  53.940  0.00  0.00    +0.000 A 
ATOM      3  C   UNL     1      16.553  37.946  53.800  0.00  0.00    +0.000 A 
ATOM      4  C   UNL     1      17.126  38.825  52.867  0.00  0.00    +0.000 A 
ATOM      5  C   UNL     1      18.194  38.378  52.065  0.00  0.00    +0.000 A 
ATOM      6  C   UNL     1      18.691  37.078  52.191  0.00  0.00    +0.000 A 
ENDROOT
BRANCH   4   7
ATOM      7  C   UNL     1      16.598  40.230  52.699  0.00  0.00    +0.000 C 
ATOM      8  F   UNL     1      16.578  40.642  51.399  0.00  0.00    +0.000 F 
ATOM      9  F   UNL     1      15.323  40.379  53.151  0.00  0.00    +0.000 F 
ATOM     10  F   UNL     1      17.349  41.150  53.366  0.00  0.00    +0.000 F 
ENDBRANCH   4   7
BRANCH   6  11
ATOM     11  N   UNL     1      19.767  36.568  51.431  0.00  0.00    +0.000 N 
ATOM     12  C   UNL     1      19.708  35.866  50.243  0.00  0.00    +0.000 C 
ATOM     13  O   UNL     1      18.690  35.492  49.672  0.00  0.00    +0.000 OA
ATOM     14  H   UNL     1      20.676  36.694  51.862  0.00  0.00    +0.000 HD
BRANCH  12  15
ATOM     15  C   UNL     1      21.031  35.506  49.656  0.00  0.00    +0.000 A 
ATOM     16  C   UNL     1      22.167  35.584  50.471  0.00  0.00    +0.000 A 
ATOM     17  C   UNL     1      23.426  35.259  49.957  0.00  0.00    +0.000 A 
ATOM     18  C   UNL     1      23.571  34.840  48.626  0.00  0.00    +0.000 A 
ATOM     19  C   UNL     1      22.424  34.751  47.822  0.00  0.00    +0.000 A 
ATOM     20  C   UNL     1      21.162  35.072  48.332  0.00  0.00    +0.000 A 
BRANCH  18  21
ATOM     21  C   UNL     1      24.895  34.510  48.084  0.00  0.00    +0.000 A 
ATOM     22  C   UNL     1      25.655  35.541  47.501  0.00  0.00    +0.000 A 
ATOM     23  C   UNL     1      26.920  35.295  46.962  0.00  0.00    +0.000 A 
ATOM     24  C   UNL     1      27.451  34.009  46.995  0.00  0.00    +0.000 A 
ATOM     25  C   UNL     1      26.721  32.969  47.567  0.00  0.00    +0.000 A 
ATOM     26  C   UNL     1      25.450  33.214  48.109  0.00  0.00    +0.000 A 
BRANCH  26  27
ATOM     27  S   UNL     1      24.536  31.883  48.840  0.00  0.00    +0.000 S 
ATOM     28  O   UNL     1      23.368  31.618  48.031  0.00  0.00    +0.000 OA
ATOM     29  O   UNL     1      24.488  32.079  50.270  0.00  0.00    +0.000 OA
BRANCH  27  30
ATOM     30  N   UNL     1      25.507  30.522  48.634  0.00  0.00    +0.000 NA
ATOM     31  H   UNL     1      26.048  30.634  47.775  0.00  0.00    +0.000 HD
ATOM     32  H   UNL     1      26.089  30.405  49.465  0.00  0.00    +0.000 HD
ENDBRANCH  27  30
ENDBRANCH  26  27
ENDBRANCH  18  21
ENDBRANCH  12  15
ENDBRANCH   6  11
BRANCH   1  33
ATOM     33  O   UNL     1      18.626  34.948  53.275  0.00  0.00    +0.000 OA
BRANCH  33  41
ATOM     34  C   UNL     1      23.193  33.541  54.118  0.00  0.00    +0.000 A 
ATOM     35  N   UNL     1      24.230  33.312  54.944  0.00  0.00    +0.000 NA
ATOM     36  C   UNL     1      24.057  33.603  56.249  0.00  0.00    +0.000 A 
ATOM     37  C   UNL     1      22.887  34.119  56.778  0.00  0.00    +0.000 A 
ATOM     38  C   UNL     1      21.809  34.350  55.919  0.00  0.00    +0.000 A 
ATOM     39  C   UNL     1      20.593  34.860  56.402  0.00  0.00    +0.000 A 
ATOM     40  C   UNL     1      19.516  35.079  55.540  0.00  0.00    +0.000 A 
ATOM     41  C   UNL     1      19.650  34.799  54.182  0.00  0.00    +0.000 A 
ATOM     42  C   UNL     1      20.846  34.272  53.692  0.00  0.00    +0.000 A 
ATOM     43  C   UNL     1      21.949  34.051  54.546  0.00  0.00    +0.000 A 
BRANCH  34  44
ATOM     44  N   UNL     1      23.439  33.223  52.778  0.00  0.00    +0.000 N 
ATOM     45  H   UNL     1      23.448  32.207  52.728  0.00  0.00    +0.000 HD
ATOM     46  H   UNL     1      24.324  33.614  52.472  0.00  0.00    +0.000 HD
ENDBRANCH  34  44
ENDBRANCH  33  41
ENDBRANCH   1  33
TORSDOF 9
ENDMDL
MODEL 3
REMARK VINA RESULT:    -7.240      5.007      8.611
REMARK INTER + INTRA:         -12.186
REMARK INTER:                 -10.626
REMARK INTRA:                  -1.560
REMARK UNBOUND:                -1.560
REMARK  Name = 
REMARK  9 active torsions:
REMARK  status: ('A' for Active; 'I' for Inactive)
REMARK    1  A    between atoms: N_1  and  C_2
REMARK    2  A    between atoms: C_9  and  O_10
REMARK    3  A    between atoms: O_10  and  C_11
REMARK    4  A    between atoms: C_14  and  C_15
REMARK    5  A    between atoms: C_20  and  N_21
REMARK    6  A    between atoms: C_22  and  C_24
REMARK    7  A    between atoms: C_27  and  C_28
REMARK    8  A    between atoms: C_33  and  S_34
REMARK    9  A    between atoms: S_34  and  N_35
REMARK                            x       y       z     vdW  Elec       q    Type
REMARK                         _______ _______ _______ _____ _____    ______ ____
ROOT
ATOM      1  C   UNL     1      17.768  36.356  48.802  0.00  0.00    +0.000 A 
ATOM      2  C   UNL     1      18.686  35.486  48.206  0.00  0.00    +0.000 A 
ATOM      3  C   UNL     1      19.908  35.240  48.830  0.00  0.00    +0.000 A 
ATOM      4  C   UNL     1      20.231  35.880  50.037  0.00  0.00    +0.000 A 
ATOM      5  C   UNL     1      19.301  36.764  50.617  0.00  0.00    +0.000 A 
ATOM      6  C   UNL     1      18.070  37.015  50.006  0.00  0.00    +0.000 A 
ENDROOT
BRANCH   4   7
ATOM      7  C   UNL     1      21.548  35.615  50.728  0.00  0.00    +0.000 C 
ATOM      8  F   UNL     1      21.917  36.616  51.577  0.00  0.00    +0.000 F 
ATOM      9  F   UNL     1      21.537  34.481  51.480  0.00  0.00    +0.000 F 
ATOM     10  F   UNL     1      22.577  35.479  49.847  0.00  0.00    +0.000 F 
ENDBRANCH   4   7
BRANCH   6  11
ATOM     11  N   UNL     1      17.098  37.898  50.524  0.00  0.00    +0.000 N 
ATOM     12  C   UNL     1      16.056  37.604  51.382  0.00  0.00    +0.000 C 
ATOM     13  O   UNL     1      15.745  36.491  51.790  0.00  0.00    +0.000 OA
ATOM     14  H   UNL     1      17.158  38.842  50.159  0.00  0.00    +0.000 HD
BRANCH  12  15
ATOM     15  C   UNL     1      15.225  38.774  51.789  0.00  0.00    +0.000 A 
ATOM     16  C   UNL     1      14.950  39.763  50.838  0.00  0.00    +0.000 A 
ATOM     17  C   UNL     1      14.179  40.877  51.182  0.00  0.00    +0.000 A 
ATOM     18  C   UNL     1      13.659  41.017  52.477  0.00  0.00    +0.000 A 
ATOM     19  C   UNL     1      13.927  40.012  53.420  0.00  0.00    +0.000 A 
ATOM     20  C   UNL     1      14.695  38.894  53.080  0.00  0.00    +0.000 A 
BRANCH  18  21
ATOM     21  C   UNL     1      12.858  42.193  52.841  0.00  0.00    +0.000 A 
ATOM     22  C   UNL     1      11.471  42.157  52.605  0.00  0.00    +0.000 A 
ATOM     23  C   UNL     1      10.652  43.242  52.923  0.00  0.00    +0.000 A 
ATOM     24  C   UNL     1      11.205  44.389  53.485  0.00  0.00    +0.000 A 
ATOM     25  C   UNL     1      12.576  44.452  53.732  0.00  0.00    +0.000 A 
ATOM     26  C   UNL     1      13.400  43.362  53.413  0.00  0.00    +0.000 A 
BRANCH  26  27
ATOM     27  S   UNL     1      15.140  43.452  53.738  0.00  0.00    +0.000 S 
ATOM     28  O   UNL     1      15.859  43.225  52.505  0.00  0.00    +0.000 OA
ATOM     29  O   UNL     1      15.423  42.751  54.968  0.00  0.00    +0.000 OA
BRANCH  27  30
ATOM     30  N   UNL     1      15.433  45.072  54.101  0.00  0.00    +0.000 NA
ATOM     31  H   UNL     1      15.324  45.622  53.246  0.00  0.00    +0.000 HD
ATOM     32  H   UNL     1      14.800  45.360  54.849  0.00  0.00    +0.000 HD
ENDBRANCH  27  30
ENDBRANCH  26  27
ENDBRANCH  18  21
ENDBRANCH  12  15
ENDBRANCH   6  11
BRANCH   1  33
ATOM     33  O   UNL     1      16.567  36.646  48.183  0.00  0.00    +0.000 OA
BRANCH  33  41
ATOM     34  C   UNL     1      15.556  40.973  46.232  0.00  0.00    +0.000 A 
ATOM     35  N   UNL     1      15.512  41.823  45.190  0.00  0.00    +0.000 NA
ATOM     36  C   UNL     1      15.989  41.379  44.010  0.00  0.00    +0.000 A 
ATOM     37  C   UNL     1      16.515  40.114  43.814  0.00  0.00    +0.000 A 
ATOM     38  C   UNL     1      16.553  39.231  44.896  0.00  0.00    +0.000 A 
ATOM     39  C   UNL     1      17.064  37.931  44.753  0.00  0.00    +0.000 A 
ATOM     40  C   UNL     1      17.090  37.049  45.837  0.00  0.00    +0.000 A 
ATOM     41  C   UNL     1      16.614  37.466  47.078  0.00  0.00    +0.000 A 
ATOM     42  C   UNL     1      16.085  38.748  47.229  0.00  0.00    +0.000 A 
ATOM     43  C   UNL     1      16.057  39.657  46.148  0.00  0.00    +0.000 A 
BRANCH  34  44
ATOM     44  N   UNL     1      15.051  41.496  47.428  0.00  0.00    +0.000 N 
ATOM     45  H   UNL     1      14.048  41.597  47.288  0.00  0.00    +0.000 HD
ATOM     46  H   UNL     1      15.484  42.389  47.641  0.00  0.00    +0.000 HD
ENDBRANCH  34  44
ENDBRANCH  33  41
ENDBRANCH   1  33
TORSDOF 9
ENDMDL
