MODEL 1
REMARK VINA RESULT:    -7.251      0.000      0.000
REMARK INTER + INTRA:         -11.424
REMARK INTER:                 -10.127
REMARK INTRA:                  -1.297
REMARK UNBOUND:                -1.629
REMARK  Name = 
REMARK  10 active torsions:
REMARK  status: ('A' for Active; 'I' for Inactive)
REMARK    1  A    between atoms: C_1  and  C_2
REMARK    2  A    between atoms: C_2  and  C_3
REMARK    3  A    between atoms: C_2  and  C_4
REMARK    4  A    between atoms: C_8  and  C_9
REMARK    5  A    between atoms: C_9  and  C_10
REMARK    6  A    between atoms: C_9  and  C_11
REMARK    7  A    between atoms: C_12  and  N_13
REMARK    8  A    between atoms: N_16  and  S_17
REMARK    9  A    between atoms: S_17  and  N_20
REMARK   10  A    between atoms: N_20  and  C_21
REMARK                            x       y       z     vdW  Elec       q    Type
REMARK                         _______ _______ _______ _____ _____    ______ ____
ROOT
ATOM      1  N   UNL     1      15.436  42.496  45.282  0.00  0.00    +0.000 N 
ATOM      2  C   UNL     1      14.736  41.511  45.942  0.00  0.00    +0.000 C 
ATOM      3  O   UNL     1      13.588  41.169  45.722  0.00  0.00    +0.000 OA
ATOM      4  N   UNL     1      15.536  40.914  46.906  0.00  0.00    +0.000 N 
ATOM      5  H   UNL     1      16.423  42.303  45.276  0.00  0.00    +0.000 HD
ATOM      6  H   UNL     1      16.371  41.374  47.236  0.00  0.00    +0.000 HD
ENDROOT
BRANCH   1  12
ATOM      7  C   UNL     1      15.028  42.600  42.855  0.00  0.00    +0.000 A 
ATOM      8  C   UNL     1      14.500  43.314  41.759  0.00  0.00    +0.000 A 
ATOM      9  C   UNL     1      13.861  44.534  41.931  0.00  0.00    +0.000 A 
ATOM     10  C   UNL     1      13.717  45.062  43.206  0.00  0.00    +0.000 A 
ATOM     11  C   UNL     1      14.240  44.405  44.339  0.00  0.00    +0.000 A 
ATOM     12  C   UNL     1      14.929  43.176  44.151  0.00  0.00    +0.000 A 
BRANCH   7  14
ATOM     13  C   UNL     1      14.895  40.576  41.356  0.00  0.00    +0.000 C 
ATOM     14  C   UNL     1      15.566  41.193  42.594  0.00  0.00    +0.000 C 
ATOM     15  C   UNL     1      17.095  41.154  42.463  0.00  0.00    +0.000 C 
ENDBRANCH   7  14
BRANCH  11  16
ATOM     16  C   UNL     1      14.041  45.132  45.672  0.00  0.00    +0.000 C 
ATOM     17  C   UNL     1      14.237  46.645  45.536  0.00  0.00    +0.000 C 
ATOM     18  C   UNL     1      12.743  44.779  46.404  0.00  0.00    +0.000 C 
ENDBRANCH  11  16
ENDBRANCH   1  12
BRANCH   4  19
ATOM     19  S   UNL     1      15.213  39.543  47.747  0.00  0.00    +0.000 S 
ATOM     20  O   UNL     1      14.068  39.719  48.598  0.00  0.00    +0.000 OA
ATOM     21  O   UNL     1      15.264  38.491  46.757  0.00  0.00    +0.000 OA
BRANCH  19  22
ATOM     22  N   UNL     1      16.594  39.357  48.637  0.00  0.00    +0.000 NA
ATOM     23  H   UNL     1      17.369  39.067  48.043  0.00  0.00    +0.000 HD
BRANCH  22  24
ATOM     24  C   UNL     1      16.513  38.545  49.859  0.00  0.00    +0.000 C 
ATOM     25  C   UNL     1      17.704  37.596  50.008  0.00  0.00    +0.000 A 
ATOM     26  C   UNL     1      18.084  36.545  49.184  0.00  0.00    +0.000 A 
ATOM     27  C   UNL     1      19.230  35.820  49.519  0.00  0.00    +0.000 A 
ATOM     28  C   UNL     1      19.971  36.137  50.668  0.00  0.00    +0.000 A 
ATOM     29  C   UNL     1      19.575  37.184  51.508  0.00  0.00    +0.000 A 
ATOM     30  C   UNL     1      18.444  37.911  51.170  0.00  0.00    +0.000 A 
ATOM     31  C   UNL     1      17.822  39.037  51.833  0.00  0.00    +0.000 A 
ATOM     32  C   UNL     1      18.175  39.713  52.990  0.00  0.00    +0.000 A 
ATOM     33  C   UNL     1      17.388  40.795  53.400  0.00  0.00    +0.000 A 
ATOM     34  C   UNL     1      16.267  41.193  52.653  0.00  0.00    +0.000 A 
ATOM     35  C   UNL     1      15.914  40.514  51.485  0.00  0.00    +0.000 A 
ATOM     36  C   UNL     1      16.694  39.436  51.087  0.00  0.00    +0.000 A 
ENDBRANCH  22  24
ENDBRANCH  19  22
ENDBRANCH   4  19
TORSDOF 6
ENDMDL
MODEL 2
REMARK VINA RESULT:    -7.121      0.285      2.944
REMARK INTER + INTRA:         -11.248
REMARK INTER:                  -9.915
REMARK INTRA:                  -1.333
REMARK UNBOUND:                -1.629
REMARK  Name = 
REMARK  10 active torsions:
REMARK  status: ('A' for Active; 'I' for Inactive)
REMARK    1  A    between atoms: C_1  and  C_2
REMARK    2  A    between atoms: C_2  and  C_3
REMARK    3  A    between atoms: C_2  and  C_4
REMARK    4  A    between atoms: C_8  and  C_9
REMARK    5  A    between atoms: C_9  and  C_10
REMARK    6  A    between atoms: C_9  and  C_11
REMARK    7  A    between atoms: C_12  and  N_13
REMARK    8  A    between atoms: N_16  and  S_17
REMARK    9  A    between atoms: S_17  and  N_20
REMARK   10  A    between atoms: N_20  and  C_21
REMARK                            x       y       z     vdW  Elec       q    Type
REMARK                         _______ _______ _______ _____ _____    ______ ____
ROOT
ATOM      1  N   UNL     1      15.160  42.685  45.380  0.00  0.00    +0.000 N 
ATOM      2  C   UNL     1      14.476  41.684  46.032  0.00  0.00    +0.000 C 
ATOM      3  O   UNL     1      13.327  41.338  45.822  0.00  0.00    +0.000 OA
ATOM      4  N   UNL     1      15.293  41.075  46.973  0.00  0.00    +0.000 N 
ATOM      5  H   UNL     1      16.148  42.498  45.357  0.00  0.00    +0.000 HD
ATOM      6  H   UNL     1      16.130  41.534  47.299  0.00  0.00    +0.000 HD
ENDROOT
BRANCH   1  12
ATOM      7  C   UNL     1      14.008  44.647  44.435  0.00  0.00    +0.000 A 
ATOM      8  C   UNL     1      13.505  45.305  43.294  0.00  0.00    +0.000 A 
ATOM      9  C   UNL     1      13.642  44.760  42.025  0.00  0.00    +0.000 A 
ATOM     10  C   UNL     1      14.304  43.550  41.863  0.00  0.00    +0.000 A 
ATOM     11  C   UNL     1      14.812  42.836  42.968  0.00  0.00    +0.000 A 
ATOM     12  C   UNL     1      14.632  43.381  44.268  0.00  0.00    +0.000 A 
BRANCH   7  14
ATOM     13  C   UNL     1      14.256  46.890  45.562  0.00  0.00    +0.000 C 
ATOM     14  C   UNL     1      13.958  45.397  45.767  0.00  0.00    +0.000 C 
ATOM     15  C   UNL     1      12.630  45.202  46.512  0.00  0.00    +0.000 C 
ENDBRANCH   7  14
BRANCH  11  16
ATOM     16  C   UNL     1      15.478  41.497  42.636  0.00  0.00    +0.000 C 
ATOM     17  C   UNL     1      14.843  40.827  41.414  0.00  0.00    +0.000 C 
ATOM     18  C   UNL     1      17.005  41.550  42.538  0.00  0.00    +0.000 C 
ENDBRANCH  11  16
ENDBRANCH   1  12
BRANCH   4  19
ATOM     19  S   UNL     1      14.991  39.686  47.794  0.00  0.00    +0.000 S 
ATOM     20  O   UNL     1      13.863  39.844  48.673  0.00  0.00    +0.000 OA
ATOM     21  O   UNL     1      15.023  38.654  46.783  0.00  0.00    +0.000 OA
BRANCH  19  22
ATOM     22  N   UNL     1      16.391  39.487  48.651  0.00  0.00    +0.000 NA
ATOM     23  H   UNL     1      17.146  39.179  48.039  0.00  0.00    +0.000 HD
BRANCH  22  24
ATOM     24  C   UNL     1      16.328  38.686  49.882  0.00  0.00    +0.000 C 
ATOM     25  C   UNL     1      17.508  37.720  50.009  0.00  0.00    +0.000 A 
ATOM     26  C   UNL     1      17.853  36.657  49.185  0.00  0.00    +0.000 A 
ATOM     27  C   UNL     1      18.996  35.918  49.498  0.00  0.00    +0.000 A 
ATOM     28  C   UNL     1      19.770  36.233  50.626  0.00  0.00    +0.000 A 
ATOM     29  C   UNL     1      19.410  37.293  51.466  0.00  0.00    +0.000 A 
ATOM     30  C   UNL     1      18.281  38.034  51.149  0.00  0.00    +0.000 A 
ATOM     31  C   UNL     1      17.693  39.174  51.818  0.00  0.00    +0.000 A 
ATOM     32  C   UNL     1      18.084  39.856  52.960  0.00  0.00    +0.000 A 
ATOM     33  C   UNL     1      17.324  40.952  53.380  0.00  0.00    +0.000 A 
ATOM     34  C   UNL     1      16.191  41.361  52.658  0.00  0.00    +0.000 A 
ATOM     35  C   UNL     1      15.799  40.677  51.504  0.00  0.00    +0.000 A 
ATOM     36  C   UNL     1      16.553  39.585  51.096  0.00  0.00    +0.000 A 
ENDBRANCH  22  24
ENDBRANCH  19  22
ENDBRANCH   4  19
TORSDOF 6
ENDMDL
MODEL 3
REMARK VINA RESULT:    -7.074      1.586      8.602
REMARK INTER + INTRA:         -11.184
REMARK INTER:                  -9.555
REMARK INTRA:                  -1.629
REMARK UNBOUND:                -1.629
REMARK  Name = 
REMARK  10 active torsions:
REMARK  status: ('A' for Active; 'I' for Inactive)
REMARK    1  A    between atoms: C_1  and  C_2
REMARK    2  A    between atoms: C_2  and  C_3
REMARK    3  A    between atoms: C_2  and  C_4
REMARK    4  A    between atoms: C_8  and  C_9
REMARK    5  A    between atoms: C_9  and  C_10
REMARK    6  A    between atoms: C_9  and  C_11
REMARK    7  A    between atoms: C_12  and  N_13
REMARK    8  A    between atoms: N_16  and  S_17
REMARK    9  A    between atoms: S_17  and  N_20
REMARK   10  A    between atoms: N_20  and  C_21
REMARK                            x       y       z     vdW  Elec       q    Type
REMARK                         _______ _______ _______ _____ _____    ______ ____
ROOT
ATOM      1  N   UNL     1      16.263  40.037  50.155  0.00  0.00    +0.000 N 
ATOM      2  C   UNL     1      15.013  39.608  49.771  0.00  0.00    +0.000 C 
ATOM      3  O   UNL     1      14.220  38.987  50.457  0.00  0.00    +0.000 OA
ATOM      4  N   UNL     1      14.744  40.005  48.469  0.00  0.00    +0.000 N 
ATOM      5  H   UNL     1      16.529  40.875  49.665  0.00  0.00    +0.000 HD
ATOM      6  H   UNL     1      15.493  40.283  47.853  0.00  0.00    +0.000 HD
ENDROOT
BRANCH   1  12
ATOM      7  C   UNL     1      16.476  40.905  52.450  0.00  0.00    +0.000 A 
ATOM      8  C   UNL     1      16.979  40.728  53.756  0.00  0.00    +0.000 A 
ATOM      9  C   UNL     1      17.694  39.591  54.107  0.00  0.00    +0.000 A 
ATOM     10  C   UNL     1      17.910  38.595  53.164  0.00  0.00    +0.000 A 
ATOM     11  C   UNL     1      17.449  38.724  51.838  0.00  0.00    +0.000 A 
ATOM     12  C   UNL     1      16.751  39.908  51.476  0.00  0.00    +0.000 A 
BRANCH   7  14
ATOM     13  C   UNL     1      14.128  41.803  52.662  0.00  0.00    +0.000 C 
ATOM     14  C   UNL     1      15.562  42.105  52.198  0.00  0.00    +0.000 C 
ATOM     15  C   UNL     1      16.083  43.398  52.841  0.00  0.00    +0.000 C 
ENDBRANCH   7  14
BRANCH  11  16
ATOM     16  C   UNL     1      17.800  37.563  50.903  0.00  0.00    +0.000 C 
ATOM     17  C   UNL     1      19.195  36.998  51.188  0.00  0.00    +0.000 C 
ATOM     18  C   UNL     1      16.736  36.464  50.821  0.00  0.00    +0.000 C 
ENDBRANCH  11  16
ENDBRANCH   1  12
BRANCH   4  19
ATOM     19  S   UNL     1      13.299  39.940  47.695  0.00  0.00    +0.000 S 
ATOM     20  O   UNL     1      12.764  38.605  47.716  0.00  0.00    +0.000 OA
ATOM     21  O   UNL     1      12.555  41.061  48.223  0.00  0.00    +0.000 OA
BRANCH  19  22
ATOM     22  N   UNL     1      13.716  40.391  46.159  0.00  0.00    +0.000 NA
ATOM     23  H   UNL     1      13.612  39.609  45.515  0.00  0.00    +0.000 HD
BRANCH  22  24
ATOM     24  C   UNL     1      15.002  41.079  45.977  0.00  0.00    +0.000 C 
ATOM     25  C   UNL     1      15.793  40.530  44.788  0.00  0.00    +0.000 A 
ATOM     26  C   UNL     1      16.306  39.253  44.603  0.00  0.00    +0.000 A 
ATOM     27  C   UNL     1      16.989  38.978  43.416  0.00  0.00    +0.000 A 
ATOM     28  C   UNL     1      17.164  39.972  42.440  0.00  0.00    +0.000 A 
ATOM     29  C   UNL     1      16.662  41.263  42.637  0.00  0.00    +0.000 A 
ATOM     30  C   UNL     1      15.975  41.534  43.811  0.00  0.00    +0.000 A 
ATOM     31  C   UNL     1      15.345  42.754  44.266  0.00  0.00    +0.000 A 
ATOM     32  C   UNL     1      15.243  43.999  43.665  0.00  0.00    +0.000 A 
ATOM     33  C   UNL     1      14.552  45.013  44.337  0.00  0.00    +0.000 A 
ATOM     34  C   UNL     1      13.966  44.775  45.591  0.00  0.00    +0.000 A 
ATOM     35  C   UNL     1      14.066  43.519  46.195  0.00  0.00    +0.000 A 
ATOM     36  C   UNL     1      14.759  42.519  45.527  0.00  0.00    +0.000 A 
ENDBRANCH  22  24
ENDBRANCH  19  22
ENDBRANCH   4  19
TORSDOF 6
ENDMDL
