MODEL 1
REMARK VINA RESULT:    -5.296      0.000      0.000
REMARK INTER + INTRA:          -9.755
REMARK INTER:                  -8.679
REMARK INTRA:                  -1.077
REMARK UNBOUND:                -2.602
REMARK  Name = 
REMARK  8 active torsions:
REMARK  status: ('A' for Active; 'I' for Inactive)
REMARK    1  A    between atoms: C_1  and  O_2
REMARK    2  A    between atoms: O_2  and  C_3
REMARK    3  A    between atoms: C_12  and  C_13
REMARK    4  A    between atoms: C_13  and  N_14
REMARK    5  A    between atoms: N_14  and  C_15
REMARK    6  A    between atoms: N_14  and  C_16
REMARK    7  A    between atoms: C_16  and  C_17
REMARK    8  A    between atoms: C_17  and  C_18
REMARK                            x       y       z     vdW  Elec       q    Type
REMARK                         _______ _______ _______ _____ _____    ______ ____
ROOT
ATOM      1  C   UNL     1      13.829  43.898  43.797  0.00  0.00    +0.000 C 
ENDROOT
BRANCH   1  11
ATOM      2  C   UNL     1      12.104  47.271  46.627  0.00  0.00    +0.000 A 
ATOM      3  C   UNL     1      12.811  48.351  46.093  0.00  0.00    +0.000 A 
ATOM      4  C   UNL     1      13.941  48.130  45.309  0.00  0.00    +0.000 A 
ATOM      5  C   UNL     1      14.373  46.832  45.054  0.00  0.00    +0.000 A 
ATOM      6  C   UNL     1      13.681  45.727  45.574  0.00  0.00    +0.000 A 
ATOM      7  C   UNL     1      12.529  45.949  46.362  0.00  0.00    +0.000 A 
ATOM      8  C   UNL     1      11.775  44.796  46.991  0.00  0.00    +0.000 C 
ATOM      9  C   UNL     1      12.135  43.425  46.427  0.00  0.00    +0.000 C 
ATOM     10  C   UNL     1      13.641  43.297  46.264  0.00  0.00    +0.000 C 
ATOM     11  C   UNL     1      14.187  44.325  45.253  0.00  0.00    +0.000 C 
BRANCH   2  13
ATOM     12  C   UNL     1      10.337  48.652  47.449  0.00  0.00    +0.000 C 
ATOM     13  O   UNL     1      10.994  47.391  47.426  0.00  0.00    +0.000 OA
ENDBRANCH   2  13
ENDBRANCH   1  11
BRANCH   1  14
ATOM     14  N   UNL     1      14.870  44.140  42.777  0.00  0.00    +0.000 NA
ATOM     15  C   UNL     1      14.291  44.099  41.434  0.00  0.00    +0.000 C 
BRANCH  14  16
ATOM     16  C   UNL     1      16.056  43.269  42.885  0.00  0.00    +0.000 C 
BRANCH  16  17
ATOM     17  C   UNL     1      15.960  41.873  42.241  0.00  0.00    +0.000 C 
BRANCH  17  18
ATOM     18  C   UNL     1      16.235  40.780  43.249  0.00  0.00    +0.000 A 
ATOM     19  C   UNL     1      16.824  39.567  42.835  0.00  0.00    +0.000 A 
ATOM     20  C   UNL     1      17.099  38.549  43.754  0.00  0.00    +0.000 A 
ATOM     21  C   UNL     1      16.793  38.766  45.086  0.00  0.00    +0.000 A 
ATOM     22  C   UNL     1      16.216  39.968  45.506  0.00  0.00    +0.000 A 
ATOM     23  C   UNL     1      15.927  40.978  44.604  0.00  0.00    +0.000 A 
ATOM     24  C   UNL     1      15.944  39.941  46.978  0.00  0.00    +0.000 C 
ATOM     25  C   UNL     1      16.851  38.787  47.428  0.00  0.00    +0.000 C 
ATOM     26  C   UNL     1      16.961  37.824  46.236  0.00  0.00    +0.000 C 
ENDBRANCH  17  18
ENDBRANCH  16  17
ENDBRANCH  14  16
ENDBRANCH   1  14
TORSDOF 6
ENDMDL
MODEL 2
REMARK VINA RESULT:    -5.177      9.089     12.391
REMARK INTER + INTRA:          -9.595
REMARK INTER:                  -8.333
REMARK INTRA:                  -1.262
REMARK UNBOUND:                -2.602
REMARK  Name = 
REMARK  8 active torsions:
REMARK  status: ('A' for Active; 'I' for Inactive)
REMARK    1  A    between atoms: C_1  and  O_2
REMARK    2  A    between atoms: O_2  and  C_3
REMARK    3  A    between atoms: C_12  and  C_13
REMARK    4  A    between atoms: C_13  and  N_14
REMARK    5  A    between atoms: N_14  and  C_15
REMARK    6  A    between atoms: N_14  and  C_16
REMARK    7  A    between atoms: C_16  and  C_17
REMARK    8  A    between atoms: C_17  and  C_18
REMARK                            x       y       z     vdW  Elec       q    Type
REMARK                         _______ _______ _______ _____ _____    ______ ____
ROOT
ATOM      1  C   UNL     1      19.130  37.385  51.556  0.00  0.00    +0.000 C 
ENDROOT
BRANCH   1  11
ATOM      2  C   UNL     1      17.233  39.121  55.524  0.00  0.00    +0.000 A 
ATOM      3  C   UNL     1      17.170  37.926  56.246  0.00  0.00    +0.000 A 
ATOM      4  C   UNL     1      17.258  36.703  55.586  0.00  0.00    +0.000 A 
ATOM      5  C   UNL     1      17.410  36.664  54.203  0.00  0.00    +0.000 A 
ATOM      6  C   UNL     1      17.482  37.847  53.452  0.00  0.00    +0.000 A 
ATOM      7  C   UNL     1      17.401  39.089  54.121  0.00  0.00    +0.000 A 
ATOM      8  C   UNL     1      17.420  40.396  53.354  0.00  0.00    +0.000 C 
ATOM      9  C   UNL     1      17.879  40.270  51.905  0.00  0.00    +0.000 C 
ATOM     10  C   UNL     1      17.235  39.058  51.249  0.00  0.00    +0.000 C 
ATOM     11  C   UNL     1      17.664  37.749  51.941  0.00  0.00    +0.000 C 
BRANCH   2  13
ATOM     12  C   UNL     1      17.125  40.453  57.504  0.00  0.00    +0.000 C 
ATOM     13  O   UNL     1      17.135  40.370  56.085  0.00  0.00    +0.000 OA
ENDBRANCH   2  13
ENDBRANCH   1  11
BRANCH   1  14
ATOM     14  N   UNL     1      19.288  36.277  50.590  0.00  0.00    +0.000 NA
ATOM     15  C   UNL     1      18.169  35.340  50.698  0.00  0.00    +0.000 C 
BRANCH  14  16
ATOM     16  C   UNL     1      20.587  35.581  50.655  0.00  0.00    +0.000 C 
BRANCH  16  17
ATOM     17  C   UNL     1      20.606  34.192  51.321  0.00  0.00    +0.000 C 
BRANCH  17  18
ATOM     18  C   UNL     1      21.113  34.270  52.744  0.00  0.00    +0.000 A 
ATOM     19  C   UNL     1      20.253  34.690  53.780  0.00  0.00    +0.000 A 
ATOM     20  C   UNL     1      20.698  34.757  55.103  0.00  0.00    +0.000 A 
ATOM     21  C   UNL     1      22.002  34.383  55.377  0.00  0.00    +0.000 A 
ATOM     22  C   UNL     1      22.859  33.958  54.358  0.00  0.00    +0.000 A 
ATOM     23  C   UNL     1      22.434  33.901  53.042  0.00  0.00    +0.000 A 
ATOM     24  C   UNL     1      24.220  33.653  54.901  0.00  0.00    +0.000 C 
ATOM     25  C   UNL     1      23.917  33.500  56.398  0.00  0.00    +0.000 C 
ATOM     26  C   UNL     1      22.709  34.402  56.696  0.00  0.00    +0.000 C 
ENDBRANCH  17  18
ENDBRANCH  16  17
ENDBRANCH  14  16
ENDBRANCH   1  14
TORSDOF 6
ENDMDL
MODEL 3
REMARK VINA RESULT:    -4.933      2.186      5.934
REMARK INTER + INTRA:          -9.266
REMARK INTER:                  -6.664
REMARK INTRA:                  -2.602
REMARK UNBOUND:                -2.602
REMARK  Name = 
REMARK  8 active torsions:
REMARK  status: ('A' for Active; 'I' for Inactive)
REMARK    1  A    between atoms: C_1  and  O_2
REMARK    2  A    between atoms: O_2  and  C_3
REMARK    3  A    between atoms: C_12  and  C_13
REMARK    4  A    between atoms: C_13  and  N_14
REMARK    5  A    between atoms: N_14  and  C_15
REMARK    6  A    between atoms: N_14  and  C_16
REMARK    7  A    between atoms: C_16  and  C_17
REMARK    8  A    between atoms: C_17  and  C_18
REMARK                            x       y       z     vdW  Elec       q    Type
REMARK                         _______ _______ _______ _____ _____    ______ ____
ROOT
ATOM      1  C   UNL     1      14.203  40.877  43.318  0.00  0.00    +0.000 C 
ENDROOT
BRANCH   1  11
ATOM      2  C   UNL     1      11.750  44.892  42.846  0.00  0.00    +0.000 A 
ATOM      3  C   UNL     1      10.558  44.460  43.433  0.00  0.00    +0.000 A 
ATOM      4  C   UNL     1      10.304  43.099  43.583  0.00  0.00    +0.000 A 
ATOM      5  C   UNL     1      11.235  42.161  43.147  0.00  0.00    +0.000 A 
ATOM      6  C   UNL     1      12.444  42.565  42.557  0.00  0.00    +0.000 A 
ATOM      7  C   UNL     1      12.707  43.946  42.412  0.00  0.00    +0.000 A 
ATOM      8  C   UNL     1      13.970  44.437  41.736  0.00  0.00    +0.000 C 
ATOM      9  C   UNL     1      15.047  43.371  41.562  0.00  0.00    +0.000 C 
ATOM     10  C   UNL     1      14.430  42.068  41.078  0.00  0.00    +0.000 C 
ATOM     11  C   UNL     1      13.437  41.498  42.111  0.00  0.00    +0.000 C 
BRANCH   2  13
ATOM     12  C   UNL     1      11.127  47.023  41.964  0.00  0.00    +0.000 C 
ATOM     13  O   UNL     1      12.078  46.209  42.638  0.00  0.00    +0.000 OA
ENDBRANCH   2  13
ENDBRANCH   1  11
BRANCH   1  14
ATOM     14  N   UNL     1      15.613  41.292  43.471  0.00  0.00    +0.000 NA
ATOM     15  C   UNL     1      16.492  40.122  43.478  0.00  0.00    +0.000 C 
BRANCH  14  16
ATOM     16  C   UNL     1      15.876  42.177  44.621  0.00  0.00    +0.000 C 
BRANCH  16  17
ATOM     17  C   UNL     1      14.913  42.074  45.819  0.00  0.00    +0.000 C 
BRANCH  17  18
ATOM     18  C   UNL     1      14.090  43.332  45.975  0.00  0.00    +0.000 A 
ATOM     19  C   UNL     1      12.844  43.286  46.635  0.00  0.00    +0.000 A 
ATOM     20  C   UNL     1      12.073  44.440  46.801  0.00  0.00    +0.000 A 
ATOM     21  C   UNL     1      12.570  45.637  46.315  0.00  0.00    +0.000 A 
ATOM     22  C   UNL     1      13.807  45.694  45.666  0.00  0.00    +0.000 A 
ATOM     23  C   UNL     1      14.573  44.555  45.485  0.00  0.00    +0.000 A 
ATOM     24  C   UNL     1      14.098  47.086  45.199  0.00  0.00    +0.000 C 
ATOM     25  C   UNL     1      13.120  47.900  46.058  0.00  0.00    +0.000 C 
ATOM     26  C   UNL     1      11.920  46.984  46.343  0.00  0.00    +0.000 C 
ENDBRANCH  17  18
ENDBRANCH  16  17
ENDBRANCH  14  16
ENDBRANCH   1  14
TORSDOF 6
ENDMDL
