MODEL 1
REMARK VINA RESULT:    -8.564      0.000      0.000
REMARK INTER + INTRA:         -11.595
REMARK INTER:                 -10.850
REMARK INTRA:                  -0.745
REMARK UNBOUND:                -0.778
REMARK  Name = 
REMARK  5 active torsions:
REMARK  status: ('A' for Active; 'I' for Inactive)
REMARK    1  A    between atoms: C_2  and  O_3
REMARK    2  A    between atoms: C_2  and  C_4
REMARK    3  A    between atoms: C_11  and  C_12
REMARK    4  A    between atoms: C_16  and  C_17
REMARK    5  A    between atoms: C_18  and  C_19
REMARK                            x       y       z     vdW  Elec       q    Type
REMARK                         _______ _______ _______ _____ _____    ______ ____
ROOT
ATOM      1  C   UNL     1      13.309  47.539  45.841  0.00  0.00    +0.000 A 
ATOM      2  C   UNL     1      12.142  47.412  46.608  0.00  0.00    +0.000 A 
ATOM      3  C   UNL     1      11.638  46.153  46.933  0.00  0.00    +0.000 A 
ATOM      4  C   UNL     1      12.292  45.003  46.492  0.00  0.00    +0.000 A 
ATOM      5  C   UNL     1      13.461  45.098  45.729  0.00  0.00    +0.000 A 
ATOM      6  C   UNL     1      13.951  46.371  45.396  0.00  0.00    +0.000 A 
ENDROOT
BRANCH   1  14
ATOM      7  C   UNL     1      17.714  51.282  44.078  0.00  0.00    +0.000 A 
ATOM      8  C   UNL     1      16.991  52.484  44.071  0.00  0.00    +0.000 A 
ATOM      9  C   UNL     1      15.639  52.493  44.423  0.00  0.00    +0.000 A 
ATOM     10  C   UNL     1      15.012  51.296  44.782  0.00  0.00    +0.000 A 
ATOM     11  C   UNL     1      13.591  51.271  45.157  0.00  0.00    +0.000 A 
ATOM     12  O   UNL     1      12.902  52.282  45.175  0.00  0.00    +0.000 OA
ATOM     13  C   UNL     1      13.028  49.961  45.517  0.00  0.00    +0.000 A 
ATOM     14  C   UNL     1      13.820  48.878  45.495  0.00  0.00    +0.000 A 
ATOM     15  O   UNL     1      15.159  48.898  45.133  0.00  0.00    +0.000 OA
ATOM     16  C   UNL     1      15.725  50.100  44.790  0.00  0.00    +0.000 A 
ATOM     17  C   UNL     1      17.077  50.087  44.439  0.00  0.00    +0.000 A 
BRANCH   7  19
ATOM     18  O   UNL     1      19.706  52.244  43.132  0.00  0.00    +0.000 OA
ATOM     19  C   UNL     1      19.146  51.324  43.697  0.00  0.00    +0.000 C 
BRANCH  19  20
ATOM     20  O   UNL     1      19.810  50.208  44.044  0.00  0.00    +0.000 OA
ATOM     21  H   UNL     1      19.301  49.856  44.804  0.00  0.00    +0.000 HD
ENDBRANCH  19  20
ENDBRANCH   7  19
ENDBRANCH   1  14
BRANCH   5  22
ATOM     22  C   UNL     1      14.157  43.911  45.213  0.00  0.00    +0.000 C 
ATOM     23  C   UNL     1      14.614  42.921  45.998  0.00  0.00    +0.000 C 
BRANCH  23  24
ATOM     24  C   UNL     1      15.303  41.709  45.538  0.00  0.00    +0.000 A 
ATOM     25  C   UNL     1      15.514  40.599  46.345  0.00  0.00    +0.000 A 
ATOM     26  C   UNL     1      16.155  39.489  45.799  0.00  0.00    +0.000 A 
ATOM     27  C   UNL     1      16.559  39.510  44.461  0.00  0.00    +0.000 A 
ATOM     28  C   UNL     1      17.209  38.414  43.865  0.00  0.00    +0.000 A 
ATOM     29  C   UNL     1      17.595  38.468  42.528  0.00  0.00    +0.000 A 
ATOM     30  C   UNL     1      17.333  39.611  41.783  0.00  0.00    +0.000 A 
ATOM     31  C   UNL     1      16.686  40.697  42.379  0.00  0.00    +0.000 A 
ATOM     32  C   UNL     1      16.291  40.672  43.710  0.00  0.00    +0.000 A 
ATOM     33  N   UNL     1      15.671  41.744  44.236  0.00  0.00    +0.000 NA
ENDBRANCH  23  24
ENDBRANCH   5  22
TORSDOF 5
ENDMDL
MODEL 2
REMARK VINA RESULT:    -8.459      1.092      1.835
REMARK INTER + INTRA:         -11.462
REMARK INTER:                 -10.684
REMARK INTRA:                  -0.778
REMARK UNBOUND:                -0.778
REMARK  Name = 
REMARK  5 active torsions:
REMARK  status: ('A' for Active; 'I' for Inactive)
REMARK    1  A    between atoms: C_2  and  O_3
REMARK    2  A    between atoms: C_2  and  C_4
REMARK    3  A    between atoms: C_11  and  C_12
REMARK    4  A    between atoms: C_16  and  C_17
REMARK    5  A    between atoms: C_18  and  C_19
REMARK                            x       y       z     vdW  Elec       q    Type
REMARK                         _______ _______ _______ _____ _____    ______ ____
ROOT
ATOM      1  C   UNL     1      13.524  48.208  45.376  0.00  0.00    +0.000 A 
ATOM      2  C   UNL     1      12.368  48.371  46.153  0.00  0.00    +0.000 A 
ATOM      3  C   UNL     1      11.762  47.274  46.765  0.00  0.00    +0.000 A 
ATOM      4  C   UNL     1      12.303  45.998  46.607  0.00  0.00    +0.000 A 
ATOM      5  C   UNL     1      13.458  45.806  45.842  0.00  0.00    +0.000 A 
ATOM      6  C   UNL     1      14.051  46.915  45.218  0.00  0.00    +0.000 A 
ENDROOT
BRANCH   1  14
ATOM      7  C   UNL     1      18.335  51.423  43.630  0.00  0.00    +0.000 A 
ATOM      8  C   UNL     1      17.671  52.489  43.003  0.00  0.00    +0.000 A 
ATOM      9  C   UNL     1      16.275  52.517  42.957  0.00  0.00    +0.000 A 
ATOM     10  C   UNL     1      15.545  51.476  43.539  0.00  0.00    +0.000 A 
ATOM     11  C   UNL     1      14.075  51.476  43.507  0.00  0.00    +0.000 A 
ATOM     12  O   UNL     1      13.432  52.375  42.980  0.00  0.00    +0.000 OA
ATOM     13  C   UNL     1      13.403  50.335  44.147  0.00  0.00    +0.000 A 
ATOM     14  C   UNL     1      14.144  49.377  44.724  0.00  0.00    +0.000 A 
ATOM     15  O   UNL     1      15.530  49.371  44.748  0.00  0.00    +0.000 OA
ATOM     16  C   UNL     1      16.199  50.416  44.162  0.00  0.00    +0.000 A 
ATOM     17  C   UNL     1      17.594  50.384  44.210  0.00  0.00    +0.000 A 
BRANCH   7  19
ATOM     18  O   UNL     1      20.523  52.398  43.411  0.00  0.00    +0.000 OA
ATOM     19  C   UNL     1      19.817  51.437  43.653  0.00  0.00    +0.000 C 
BRANCH  19  20
ATOM     20  O   UNL     1      20.344  50.245  43.981  0.00  0.00    +0.000 OA
ATOM     21  H   UNL     1      20.208  49.698  43.179  0.00  0.00    +0.000 HD
ENDBRANCH  19  20
ENDBRANCH   7  19
ENDBRANCH   1  14
BRANCH   5  22
ATOM     22  C   UNL     1      14.035  44.473  45.619  0.00  0.00    +0.000 C 
ATOM     23  C   UNL     1      14.608  44.097  44.463  0.00  0.00    +0.000 C 
BRANCH  23  24
ATOM     24  C   UNL     1      15.211  42.787  44.190  0.00  0.00    +0.000 A 
ATOM     25  C   UNL     1      15.697  42.416  42.943  0.00  0.00    +0.000 A 
ATOM     26  C   UNL     1      16.275  41.158  42.799  0.00  0.00    +0.000 A 
ATOM     27  C   UNL     1      16.366  40.305  43.904  0.00  0.00    +0.000 A 
ATOM     28  C   UNL     1      16.941  39.025  43.809  0.00  0.00    +0.000 A 
ATOM     29  C   UNL     1      17.017  38.203  44.930  0.00  0.00    +0.000 A 
ATOM     30  C   UNL     1      16.522  38.655  46.148  0.00  0.00    +0.000 A 
ATOM     31  C   UNL     1      15.952  39.927  46.238  0.00  0.00    +0.000 A 
ATOM     32  C   UNL     1      15.861  40.768  45.136  0.00  0.00    +0.000 A 
ATOM     33  N   UNL     1      15.303  41.985  45.275  0.00  0.00    +0.000 NA
ENDBRANCH  23  24
ENDBRANCH   5  22
TORSDOF 5
ENDMDL
MODEL 3
REMARK VINA RESULT:    -8.391      1.002      1.841
REMARK INTER + INTRA:         -11.377
REMARK INTER:                 -10.640
REMARK INTRA:                  -0.736
REMARK UNBOUND:                -0.778
REMARK  Name = 
REMARK  5 active torsions:
REMARK  status: ('A' for Active; 'I' for Inactive)
REMARK    1  A    between atoms: C_2  and  O_3
REMARK    2  A    between atoms: C_2  and  C_4
REMARK    3  A    between atoms: C_11  and  C_12
REMARK    4  A    between atoms: C_16  and  C_17
REMARK    5  A    between atoms: C_18  and  C_19
REMARK                            x       y       z     vdW  Elec       q    Type
REMARK                         _______ _______ _______ _____ _____    ______ ____
ROOT
ATOM      1  C   UNL     1      13.312  47.387  45.883  0.00  0.00    +0.000 A 
ATOM      2  C   UNL     1      12.083  47.212  46.533  0.00  0.00    +0.000 A 
ATOM      3  C   UNL     1      11.624  45.933  46.852  0.00  0.00    +0.000 A 
ATOM      4  C   UNL     1      12.387  44.814  46.522  0.00  0.00    +0.000 A 
ATOM      5  C   UNL     1      13.619  44.959  45.877  0.00  0.00    +0.000 A 
ATOM      6  C   UNL     1      14.065  46.249  45.547  0.00  0.00    +0.000 A 
ENDROOT
BRANCH   1  14
ATOM      7  C   UNL     1      17.569  51.280  44.077  0.00  0.00    +0.000 A 
ATOM      8  C   UNL     1      16.809  52.459  44.094  0.00  0.00    +0.000 A 
ATOM      9  C   UNL     1      15.463  52.423  44.469  0.00  0.00    +0.000 A 
ATOM     10  C   UNL     1      14.880  51.204  44.827  0.00  0.00    +0.000 A 
ATOM     11  C   UNL     1      13.468  51.132  45.227  0.00  0.00    +0.000 A 
ATOM     12  O   UNL     1      12.748  52.121  45.266  0.00  0.00    +0.000 OA
ATOM     13  C   UNL     1      12.952  49.802  45.584  0.00  0.00    +0.000 A 
ATOM     14  C   UNL     1      13.776  48.745  45.540  0.00  0.00    +0.000 A 
ATOM     15  O   UNL     1      15.107  48.809  45.155  0.00  0.00    +0.000 OA
ATOM     16  C   UNL     1      15.630  50.031  44.813  0.00  0.00    +0.000 A 
ATOM     17  C   UNL     1      16.975  50.063  44.438  0.00  0.00    +0.000 A 
BRANCH   7  19
ATOM     18  O   UNL     1      19.507  52.301  43.084  0.00  0.00    +0.000 OA
ATOM     19  C   UNL     1      18.992  51.369  43.672  0.00  0.00    +0.000 C 
BRANCH  19  20
ATOM     20  O   UNL     1      19.702  50.284  44.025  0.00  0.00    +0.000 OA
ATOM     21  H   UNL     1      20.373  50.199  43.315  0.00  0.00    +0.000 HD
ENDBRANCH  19  20
ENDBRANCH   7  19
ENDBRANCH   1  14
BRANCH   5  22
ATOM     22  C   UNL     1      14.433  43.802  45.478  0.00  0.00    +0.000 C 
ATOM     23  C   UNL     1      14.349  42.598  46.067  0.00  0.00    +0.000 C 
BRANCH  23  24
ATOM     24  C   UNL     1      15.125  41.407  45.702  0.00  0.00    +0.000 A 
ATOM     25  C   UNL     1      15.439  41.072  44.391  0.00  0.00    +0.000 A 
ATOM     26  C   UNL     1      16.205  39.934  44.158  0.00  0.00    +0.000 A 
ATOM     27  C   UNL     1      16.649  39.162  45.237  0.00  0.00    +0.000 A 
ATOM     28  C   UNL     1      17.424  38.004  45.052  0.00  0.00    +0.000 A 
ATOM     29  C   UNL     1      17.852  37.260  46.149  0.00  0.00    +0.000 A 
ATOM     30  C   UNL     1      17.508  37.670  47.432  0.00  0.00    +0.000 A 
ATOM     31  C   UNL     1      16.738  38.823  47.611  0.00  0.00    +0.000 A 
ATOM     32  C   UNL     1      16.297  39.582  46.536  0.00  0.00    +0.000 A 
ATOM     33  N   UNL     1      15.557  40.684  46.761  0.00  0.00    +0.000 NA
ENDBRANCH  23  24
ENDBRANCH   5  22
TORSDOF 5
ENDMDL
