MODEL 1
REMARK VINA RESULT:    -7.331      0.000      0.000
REMARK INTER + INTRA:          -9.069
REMARK INTER:                  -8.509
REMARK INTRA:                  -0.560
REMARK UNBOUND:                -0.667
REMARK  Name = 
REMARK  3 active torsions:
REMARK  status: ('A' for Active; 'I' for Inactive)
REMARK    1  A    between atoms: C_2  and  C_3
REMARK    2  A    between atoms: C_2  and  C_13
REMARK    3  A    between atoms: C_19  and  O_20
REMARK                            x       y       z     vdW  Elec       q    Type
REMARK                         _______ _______ _______ _____ _____    ______ ____
ROOT
ATOM      1  C   UNL     1      12.933  46.955  45.162  0.00  0.00    +0.000 A 
ATOM      2  C   UNL     1      11.843  47.442  44.464  0.00  0.00    +0.000 A 
ATOM      3  O   UNL     1      12.110  48.654  43.917  0.00  0.00    +0.000 OA
ATOM      4  C   UNL     1      13.401  48.964  44.235  0.00  0.00    +0.000 A 
ATOM      5  C   UNL     1      13.957  47.942  44.995  0.00  0.00    +0.000 A 
ATOM      6  C   UNL     1      15.297  48.073  45.416  0.00  0.00    +0.000 A 
ATOM      7  C   UNL     1      16.009  49.226  45.057  0.00  0.00    +0.000 A 
ATOM      8  C   UNL     1      15.434  50.261  44.289  0.00  0.00    +0.000 A 
ATOM      9  C   UNL     1      16.127  51.430  43.916  0.00  0.00    +0.000 A 
ATOM     10  C   UNL     1      15.508  52.426  43.152  0.00  0.00    +0.000 A 
ATOM     11  C   UNL     1      14.184  52.280  42.741  0.00  0.00    +0.000 A 
ATOM     12  C   UNL     1      13.469  51.136  43.091  0.00  0.00    +0.000 A 
ATOM     13  C   UNL     1      14.091  50.135  43.861  0.00  0.00    +0.000 A 
ENDROOT
BRANCH   1  15
ATOM     14  O   UNL     1      12.455  45.495  46.940  0.00  0.00    +0.000 OA
ATOM     15  C   UNL     1      13.030  45.689  45.872  0.00  0.00    +0.000 C 
BRANCH  15  16
ATOM     16  C   UNL     1      13.854  44.589  45.311  0.00  0.00    +0.000 A 
ATOM     17  C   UNL     1      14.458  44.777  44.065  0.00  0.00    +0.000 A 
ATOM     18  C   UNL     1      15.241  43.764  43.512  0.00  0.00    +0.000 A 
ATOM     19  C   UNL     1      15.437  42.556  44.200  0.00  0.00    +0.000 A 
ATOM     20  C   UNL     1      14.868  42.383  45.475  0.00  0.00    +0.000 A 
ATOM     21  C   UNL     1      14.072  43.402  46.021  0.00  0.00    +0.000 A 
ATOM     22  C   UNL     1      15.049  41.099  46.252  0.00  0.00    +0.000 C 
ATOM     23  C   UNL     1      16.211  40.247  45.748  0.00  0.00    +0.000 C 
ATOM     24  C   UNL     1      16.163  40.126  44.230  0.00  0.00    +0.000 C 
ATOM     25  C   UNL     1      16.320  41.499  43.581  0.00  0.00    +0.000 C 
ENDBRANCH  15  16
ENDBRANCH   1  15
BRANCH   7  26
ATOM     26  O   UNL     1      17.315  49.353  45.465  0.00  0.00    +0.000 OA
ATOM     27  H   UNL     1      17.634  50.238  45.220  0.00  0.00    +0.000 HD
ENDBRANCH   7  26
TORSDOF 3
ENDMDL
MODEL 2
REMARK VINA RESULT:    -7.291      1.915      7.869
REMARK INTER + INTRA:          -9.023
REMARK INTER:                  -8.666
REMARK INTRA:                  -0.357
REMARK UNBOUND:                -0.667
REMARK  Name = 
REMARK  3 active torsions:
REMARK  status: ('A' for Active; 'I' for Inactive)
REMARK    1  A    between atoms: C_2  and  C_3
REMARK    2  A    between atoms: C_2  and  C_13
REMARK    3  A    between atoms: C_19  and  O_20
REMARK                            x       y       z     vdW  Elec       q    Type
REMARK                         _______ _______ _______ _____ _____    ______ ____
ROOT
ATOM      1  C   UNL     1      13.841  44.965  44.773  0.00  0.00    +0.000 A 
ATOM      2  C   UNL     1      13.833  45.177  43.407  0.00  0.00    +0.000 A 
ATOM      3  O   UNL     1      14.428  44.153  42.746  0.00  0.00    +0.000 OA
ATOM      4  C   UNL     1      14.814  43.238  43.684  0.00  0.00    +0.000 A 
ATOM      5  C   UNL     1      14.465  43.688  44.952  0.00  0.00    +0.000 A 
ATOM      6  C   UNL     1      14.773  42.872  46.060  0.00  0.00    +0.000 A 
ATOM      7  C   UNL     1      15.420  41.648  45.840  0.00  0.00    +0.000 A 
ATOM      8  C   UNL     1      15.775  41.202  44.549  0.00  0.00    +0.000 A 
ATOM      9  C   UNL     1      16.427  39.978  44.301  0.00  0.00    +0.000 A 
ATOM     10  C   UNL     1      16.756  39.583  42.999  0.00  0.00    +0.000 A 
ATOM     11  C   UNL     1      16.441  40.399  41.913  0.00  0.00    +0.000 A 
ATOM     12  C   UNL     1      15.796  41.617  42.122  0.00  0.00    +0.000 A 
ATOM     13  C   UNL     1      15.467  42.014  43.432  0.00  0.00    +0.000 A 
ENDROOT
BRANCH   1  15
ATOM     14  O   UNL     1      12.642  45.390  46.749  0.00  0.00    +0.000 OA
ATOM     15  C   UNL     1      13.289  45.833  45.803  0.00  0.00    +0.000 C 
BRANCH  15  16
ATOM     16  C   UNL     1      13.493  47.300  45.719  0.00  0.00    +0.000 A 
ATOM     17  C   UNL     1      12.451  48.141  46.117  0.00  0.00    +0.000 A 
ATOM     18  C   UNL     1      12.613  49.525  46.053  0.00  0.00    +0.000 A 
ATOM     19  C   UNL     1      13.818  50.085  45.602  0.00  0.00    +0.000 A 
ATOM     20  C   UNL     1      14.885  49.240  45.245  0.00  0.00    +0.000 A 
ATOM     21  C   UNL     1      14.712  47.847  45.300  0.00  0.00    +0.000 A 
ATOM     22  C   UNL     1      16.200  49.795  44.750  0.00  0.00    +0.000 C 
ATOM     23  C   UNL     1      16.399  51.270  45.089  0.00  0.00    +0.000 C 
ATOM     24  C   UNL     1      15.148  52.068  44.746  0.00  0.00    +0.000 C 
ATOM     25  C   UNL     1      13.963  51.587  45.581  0.00  0.00    +0.000 C 
ENDBRANCH  15  16
ENDBRANCH   1  15
BRANCH   7  26
ATOM     26  O   UNL     1      15.719  40.852  46.920  0.00  0.00    +0.000 OA
ATOM     27  H   UNL     1      16.592  41.106  47.262  0.00  0.00    +0.000 HD
ENDBRANCH   7  26
TORSDOF 3
ENDMDL
MODEL 3
REMARK VINA RESULT:    -6.673      5.349      9.209
REMARK INTER + INTRA:          -8.316
REMARK INTER:                  -7.648
REMARK INTRA:                  -0.667
REMARK UNBOUND:                -0.667
REMARK  Name = 
REMARK  3 active torsions:
REMARK  status: ('A' for Active; 'I' for Inactive)
REMARK    1  A    between atoms: C_2  and  C_3
REMARK    2  A    between atoms: C_2  and  C_13
REMARK    3  A    between atoms: C_19  and  O_20
REMARK                            x       y       z     vdW  Elec       q    Type
REMARK                         _______ _______ _______ _____ _____    ______ ____
ROOT
ATOM      1  C   UNL     1      15.474  38.915  47.770  0.00  0.00    +0.000 A 
ATOM      2  C   UNL     1      14.872  40.015  48.353  0.00  0.00    +0.000 A 
ATOM      3  O   UNL     1      14.865  41.077  47.510  0.00  0.00    +0.000 OA
ATOM      4  C   UNL     1      15.448  40.670  46.343  0.00  0.00    +0.000 A 
ATOM      5  C   UNL     1      15.832  39.338  46.449  0.00  0.00    +0.000 A 
ATOM      6  C   UNL     1      16.448  38.728  45.337  0.00  0.00    +0.000 A 
ATOM      7  C   UNL     1      16.651  39.486  44.175  0.00  0.00    +0.000 A 
ATOM      8  C   UNL     1      16.261  40.839  44.079  0.00  0.00    +0.000 A 
ATOM      9  C   UNL     1      16.455  41.624  42.925  0.00  0.00    +0.000 A 
ATOM     10  C   UNL     1      16.048  42.963  42.882  0.00  0.00    +0.000 A 
ATOM     11  C   UNL     1      15.438  43.550  43.990  0.00  0.00    +0.000 A 
ATOM     12  C   UNL     1      15.230  42.803  45.148  0.00  0.00    +0.000 A 
ATOM     13  C   UNL     1      15.640  41.457  45.191  0.00  0.00    +0.000 A 
ENDROOT
BRANCH   1  15
ATOM     14  O   UNL     1      14.813  36.712  48.252  0.00  0.00    +0.000 OA
ATOM     15  C   UNL     1      15.658  37.597  48.358  0.00  0.00    +0.000 C 
BRANCH  15  16
ATOM     16  C   UNL     1      16.894  37.296  49.124  0.00  0.00    +0.000 A 
ATOM     17  C   UNL     1      17.049  37.865  50.390  0.00  0.00    +0.000 A 
ATOM     18  C   UNL     1      18.197  37.599  51.136  0.00  0.00    +0.000 A 
ATOM     19  C   UNL     1      19.198  36.755  50.631  0.00  0.00    +0.000 A 
ATOM     20  C   UNL     1      19.022  36.143  49.376  0.00  0.00    +0.000 A 
ATOM     21  C   UNL     1      17.869  36.424  48.625  0.00  0.00    +0.000 A 
ATOM     22  C   UNL     1      20.073  35.229  48.790  0.00  0.00    +0.000 C 
ATOM     23  C   UNL     1      21.068  34.710  49.825  0.00  0.00    +0.000 C 
ATOM     24  C   UNL     1      21.566  35.850  50.703  0.00  0.00    +0.000 C 
ATOM     25  C   UNL     1      20.409  36.466  51.486  0.00  0.00    +0.000 C 
ENDBRANCH  15  16
ENDBRANCH   1  15
BRANCH   7  26
ATOM     26  O   UNL     1      17.249  38.892  43.091  0.00  0.00    +0.000 OA
ATOM     27  H   UNL     1      16.628  38.254  42.702  0.00  0.00    +0.000 HD
ENDBRANCH   7  26
TORSDOF 3
ENDMDL
