MODEL 1
REMARK VINA RESULT:    -7.662      0.000      0.000
REMARK INTER + INTRA:         -11.406
REMARK INTER:                 -10.193
REMARK INTRA:                  -1.213
REMARK UNBOUND:                -1.056
REMARK  Name = 
REMARK  7 active torsions:
REMARK  status: ('A' for Active; 'I' for Inactive)
REMARK    1  A    between atoms: C_1  and  C_2
REMARK    2  A    between atoms: C_2  and  O_3
REMARK    3  A    between atoms: O_3  and  C_4
REMARK    4  A    between atoms: C_4  and  C_6
REMARK    5  A    between atoms: C_10  and  N_11
REMARK    6  A    between atoms: N_14  and  N_15
REMARK    7  A    between atoms: N_26  and  C_27
REMARK                            x       y       z     vdW  Elec       q    Type
REMARK                         _______ _______ _______ _____ _____    ______ ____
ROOT
ATOM      1  N   UNL     1      14.731  40.483  49.188  0.00  0.00    +0.000 N 
ATOM      2  C   UNL     1      15.506  39.637  49.977  0.00  0.00    +0.000 A 
ATOM      3  N   UNL     1      16.346  38.835  49.370  0.00  0.00    +0.000 NA
ATOM      4  C   UNL     1      17.200  38.038  50.134  0.00  0.00    +0.000 A 
ATOM      5  C   UNL     1      18.059  37.154  49.473  0.00  0.00    +0.000 A 
ATOM      6  C   UNL     1      18.961  36.367  50.191  0.00  0.00    +0.000 A 
ATOM      7  C   UNL     1      19.018  36.460  51.580  0.00  0.00    +0.000 A 
ATOM      8  C   UNL     1      18.161  37.330  52.249  0.00  0.00    +0.000 A 
ATOM      9  C   UNL     1      17.254  38.111  51.520  0.00  0.00    +0.000 A 
ATOM     10  C   UNL     1      16.310  39.016  52.199  0.00  0.00    +0.000 A 
ATOM     11  O   UNL     1      16.364  39.098  53.425  0.00  0.00    +0.000 OA
ATOM     12  N   UNL     1      15.404  39.690  51.374  0.00  0.00    +0.000 N 
ATOM     13  H   UNL     1      14.439  41.343  49.664  0.00  0.00    +0.000 HD
ENDROOT
BRANCH  12  14
ATOM     14  C   UNL     1      14.396  40.496  52.003  0.00  0.00    +0.000 A 
ATOM     15  C   UNL     1      13.103  39.960  52.125  0.00  0.00    +0.000 A 
ATOM     16  C   UNL     1      12.107  40.667  52.790  0.00  0.00    +0.000 A 
ATOM     17  C   UNL     1      12.389  41.919  53.337  0.00  0.00    +0.000 A 
ATOM     18  C   UNL     1      13.663  42.492  53.210  0.00  0.00    +0.000 A 
ATOM     19  C   UNL     1      13.917  43.765  53.750  0.00  0.00    +0.000 A 
ATOM     20  C   UNL     1      15.162  44.376  53.606  0.00  0.00    +0.000 A 
ATOM     21  C   UNL     1      16.169  43.725  52.909  0.00  0.00    +0.000 A 
ATOM     22  C   UNL     1      15.935  42.456  52.371  0.00  0.00    +0.000 A 
ATOM     23  C   UNL     1      14.690  41.794  52.524  0.00  0.00    +0.000 A 
ENDBRANCH  12  14
BRANCH   1  27
ATOM     24  N   UNL     1      15.241  42.037  46.015  0.00  0.00    +0.000 N 
ATOM     25  C   UNL     1      14.528  41.555  47.090  0.00  0.00    +0.000 C 
ATOM     26  O   UNL     1      13.334  41.722  47.322  0.00  0.00    +0.000 OA
ATOM     27  N   UNL     1      15.341  40.794  47.930  0.00  0.00    +0.000 N 
ATOM     28  H   UNL     1      16.104  41.550  45.822  0.00  0.00    +0.000 HD
ATOM     29  H   UNL     1      16.267  41.194  48.086  0.00  0.00    +0.000 HD
BRANCH  24  34
ATOM     30  C   UNL     1      13.932  45.150  44.403  0.00  0.00    +0.000 A 
ATOM     31  C   UNL     1      14.015  44.776  43.056  0.00  0.00    +0.000 A 
ATOM     32  C   UNL     1      14.503  43.517  42.713  0.00  0.00    +0.000 A 
ATOM     33  C   UNL     1      14.904  42.628  43.713  0.00  0.00    +0.000 A 
ATOM     34  C   UNL     1      14.805  42.980  45.065  0.00  0.00    +0.000 A 
ATOM     35  C   UNL     1      14.324  44.247  45.405  0.00  0.00    +0.000 A 
BRANCH  30  36
ATOM     36  C   UNL     1      13.486  46.509  44.814  0.00  0.00    +0.000 C 
ATOM     37  O   UNL     1      13.298  47.426  44.031  0.00  0.00    +0.000 OA
BRANCH  36  38
ATOM     38  O   UNL     1      13.314  46.558  46.158  0.00  0.00    +0.000 OA
BRANCH  38  40
ATOM     39  C   UNL     1      11.181  45.794  47.014  0.00  0.00    +0.000 C 
ATOM     40  C   UNL     1      12.022  46.992  46.605  0.00  0.00    +0.000 C 
ENDBRANCH  38  40
ENDBRANCH  36  38
ENDBRANCH  30  36
ENDBRANCH  24  34
ENDBRANCH   1  27
TORSDOF 6
ENDMDL
MODEL 2
REMARK VINA RESULT:    -7.558      1.551      2.610
REMARK INTER + INTRA:         -11.265
REMARK INTER:                 -10.280
REMARK INTRA:                  -0.985
REMARK UNBOUND:                -1.056
REMARK  Name = 
REMARK  7 active torsions:
REMARK  status: ('A' for Active; 'I' for Inactive)
REMARK    1  A    between atoms: C_1  and  C_2
REMARK    2  A    between atoms: C_2  and  O_3
REMARK    3  A    between atoms: O_3  and  C_4
REMARK    4  A    between atoms: C_4  and  C_6
REMARK    5  A    between atoms: C_10  and  N_11
REMARK    6  A    between atoms: N_14  and  N_15
REMARK    7  A    between atoms: N_26  and  C_27
REMARK                            x       y       z     vdW  Elec       q    Type
REMARK                         _______ _______ _______ _____ _____    ______ ____
ROOT
ATOM      1  N   UNL     1      14.930  40.164  49.186  0.00  0.00    +0.000 N 
ATOM      2  C   UNL     1      15.736  39.358  49.987  0.00  0.00    +0.000 A 
ATOM      3  N   UNL     1      16.593  38.567  49.392  0.00  0.00    +0.000 NA
ATOM      4  C   UNL     1      17.476  37.811  50.165  0.00  0.00    +0.000 A 
ATOM      5  C   UNL     1      18.354  36.937  49.517  0.00  0.00    +0.000 A 
ATOM      6  C   UNL     1      19.285  36.193  50.245  0.00  0.00    +0.000 A 
ATOM      7  C   UNL     1      19.350  36.320  51.631  0.00  0.00    +0.000 A 
ATOM      8  C   UNL     1      18.474  37.180  52.287  0.00  0.00    +0.000 A 
ATOM      9  C   UNL     1      17.540  37.918  51.549  0.00  0.00    +0.000 A 
ATOM     10  C   UNL     1      16.576  38.812  52.215  0.00  0.00    +0.000 A 
ATOM     11  O   UNL     1      16.638  38.924  53.439  0.00  0.00    +0.000 OA
ATOM     12  N   UNL     1      15.644  39.441  51.384  0.00  0.00    +0.000 N 
ATOM     13  H   UNL     1      14.618  41.025  49.645  0.00  0.00    +0.000 HD
ENDROOT
BRANCH  12  14
ATOM     14  C   UNL     1      14.619  40.232  52.003  0.00  0.00    +0.000 A 
ATOM     15  C   UNL     1      13.350  39.654  52.174  0.00  0.00    +0.000 A 
ATOM     16  C   UNL     1      12.341  40.348  52.833  0.00  0.00    +0.000 A 
ATOM     17  C   UNL     1      12.586  41.630  53.325  0.00  0.00    +0.000 A 
ATOM     18  C   UNL     1      13.835  42.246  53.148  0.00  0.00    +0.000 A 
ATOM     19  C   UNL     1      14.050  43.547  53.634  0.00  0.00    +0.000 A 
ATOM     20  C   UNL     1      15.268  44.198  53.440  0.00  0.00    +0.000 A 
ATOM     21  C   UNL     1      16.285  43.559  52.746  0.00  0.00    +0.000 A 
ATOM     22  C   UNL     1      16.089  42.262  52.262  0.00  0.00    +0.000 A 
ATOM     23  C   UNL     1      14.874  41.560  52.467  0.00  0.00    +0.000 A 
ENDBRANCH  12  14
BRANCH   1  27
ATOM     24  N   UNL     1      15.455  41.763  46.038  0.00  0.00    +0.000 N 
ATOM     25  C   UNL     1      14.742  41.307  47.125  0.00  0.00    +0.000 C 
ATOM     26  O   UNL     1      13.573  41.559  47.403  0.00  0.00    +0.000 OA
ATOM     27  N   UNL     1      15.520  40.462  47.916  0.00  0.00    +0.000 N 
ATOM     28  H   UNL     1      16.270  41.217  45.802  0.00  0.00    +0.000 HD
ATOM     29  H   UNL     1      16.479  40.785  48.049  0.00  0.00    +0.000 HD
BRANCH  24  34
ATOM     30  C   UNL     1      14.811  43.695  42.898  0.00  0.00    +0.000 A 
ATOM     31  C   UNL     1      14.181  44.824  43.436  0.00  0.00    +0.000 A 
ATOM     32  C   UNL     1      13.979  44.917  44.811  0.00  0.00    +0.000 A 
ATOM     33  C   UNL     1      14.409  43.888  45.652  0.00  0.00    +0.000 A 
ATOM     34  C   UNL     1      15.062  42.764  45.130  0.00  0.00    +0.000 A 
ATOM     35  C   UNL     1      15.254  42.670  43.749  0.00  0.00    +0.000 A 
BRANCH  30  36
ATOM     36  C   UNL     1      14.985  43.517  41.431  0.00  0.00    +0.000 C 
ATOM     37  O   UNL     1      15.110  44.444  40.646  0.00  0.00    +0.000 OA
BRANCH  36  38
ATOM     38  O   UNL     1      14.993  42.198  41.117  0.00  0.00    +0.000 OA
BRANCH  38  40
ATOM     39  C   UNL     1      12.756  41.283  40.953  0.00  0.00    +0.000 C 
ATOM     40  C   UNL     1      13.979  41.771  40.195  0.00  0.00    +0.000 C 
ENDBRANCH  38  40
ENDBRANCH  36  38
ENDBRANCH  30  36
ENDBRANCH  24  34
ENDBRANCH   1  27
TORSDOF 6
ENDMDL
MODEL 3
REMARK VINA RESULT:    -6.987      2.320      9.745
REMARK INTER + INTRA:         -10.494
REMARK INTER:                  -9.438
REMARK INTRA:                  -1.056
REMARK UNBOUND:                -1.056
REMARK  Name = 
REMARK  7 active torsions:
REMARK  status: ('A' for Active; 'I' for Inactive)
REMARK    1  A    between atoms: C_1  and  C_2
REMARK    2  A    between atoms: C_2  and  O_3
REMARK    3  A    between atoms: O_3  and  C_4
REMARK    4  A    between atoms: C_4  and  C_6
REMARK    5  A    between atoms: C_10  and  N_11
REMARK    6  A    between atoms: N_14  and  N_15
REMARK    7  A    between atoms: N_26  and  C_27
REMARK                            x       y       z     vdW  Elec       q    Type
REMARK                         _______ _______ _______ _____ _____    ______ ____
ROOT
ATOM      1  N   UNL     1      13.726  40.730  45.493  0.00  0.00    +0.000 N 
ATOM      2  C   UNL     1      13.757  42.091  45.200  0.00  0.00    +0.000 A 
ATOM      3  N   UNL     1      13.119  42.904  46.005  0.00  0.00    +0.000 NA
ATOM      4  C   UNL     1      13.202  44.281  45.791  0.00  0.00    +0.000 A 
ATOM      5  C   UNL     1      12.479  45.133  46.631  0.00  0.00    +0.000 A 
ATOM      6  C   UNL     1      12.564  46.519  46.483  0.00  0.00    +0.000 A 
ATOM      7  C   UNL     1      13.381  47.067  45.496  0.00  0.00    +0.000 A 
ATOM      8  C   UNL     1      14.098  46.228  44.648  0.00  0.00    +0.000 A 
ATOM      9  C   UNL     1      14.001  44.838  44.800  0.00  0.00    +0.000 A 
ATOM     10  C   UNL     1      14.720  43.920  43.899  0.00  0.00    +0.000 A 
ATOM     11  O   UNL     1      15.442  44.408  43.030  0.00  0.00    +0.000 OA
ATOM     12  N   UNL     1      14.490  42.556  44.099  0.00  0.00    +0.000 N 
ATOM     13  H   UNL     1      14.537  40.211  45.141  0.00  0.00    +0.000 HD
ENDROOT
BRANCH  12  14
ATOM     14  C   UNL     1      15.084  41.633  43.174  0.00  0.00    +0.000 A 
ATOM     15  C   UNL     1      16.361  41.129  43.472  0.00  0.00    +0.000 A 
ATOM     16  C   UNL     1      16.952  40.176  42.649  0.00  0.00    +0.000 A 
ATOM     17  C   UNL     1      16.278  39.720  41.516  0.00  0.00    +0.000 A 
ATOM     18  C   UNL     1      15.013  40.224  41.177  0.00  0.00    +0.000 A 
ATOM     19  C   UNL     1      14.363  39.764  40.019  0.00  0.00    +0.000 A 
ATOM     20  C   UNL     1      13.122  40.273  39.636  0.00  0.00    +0.000 A 
ATOM     21  C   UNL     1      12.519  41.258  40.404  0.00  0.00    +0.000 A 
ATOM     22  C   UNL     1      13.149  41.721  41.563  0.00  0.00    +0.000 A 
ATOM     23  C   UNL     1      14.397  41.205  41.996  0.00  0.00    +0.000 A 
ENDBRANCH  12  14
BRANCH   1  27
ATOM     24  N   UNL     1      14.509  40.072  48.913  0.00  0.00    +0.000 N 
ATOM     25  C   UNL     1      14.694  40.074  47.548  0.00  0.00    +0.000 C 
ATOM     26  O   UNL     1      15.715  39.771  46.939  0.00  0.00    +0.000 OA
ATOM     27  N   UNL     1      13.529  40.459  46.886  0.00  0.00    +0.000 N 
ATOM     28  H   UNL     1      13.546  40.038  49.214  0.00  0.00    +0.000 HD
ATOM     29  H   UNL     1      13.041  41.241  47.323  0.00  0.00    +0.000 HD
BRANCH  24  34
ATOM     30  C   UNL     1      16.624  40.529  51.967  0.00  0.00    +0.000 A 
ATOM     31  C   UNL     1      17.501  39.448  51.815  0.00  0.00    +0.000 A 
ATOM     32  C   UNL     1      17.371  38.596  50.720  0.00  0.00    +0.000 A 
ATOM     33  C   UNL     1      16.370  38.824  49.773  0.00  0.00    +0.000 A 
ATOM     34  C   UNL     1      15.501  39.916  49.900  0.00  0.00    +0.000 A 
ATOM     35  C   UNL     1      15.628  40.762  51.004  0.00  0.00    +0.000 A 
BRANCH  30  36
ATOM     36  C   UNL     1      16.679  41.423  53.155  0.00  0.00    +0.000 C 
ATOM     37  O   UNL     1      17.063  41.063  54.256  0.00  0.00    +0.000 OA
BRANCH  36  38
ATOM     38  O   UNL     1      16.256  42.668  52.823  0.00  0.00    +0.000 OA
BRANCH  38  40
ATOM     39  C   UNL     1      15.129  44.715  53.461  0.00  0.00    +0.000 C 
ATOM     40  C   UNL     1      15.209  43.208  53.643  0.00  0.00    +0.000 C 
ENDBRANCH  38  40
ENDBRANCH  36  38
ENDBRANCH  30  36
ENDBRANCH  24  34
ENDBRANCH   1  27
TORSDOF 6
ENDMDL
