MODEL 1
REMARK VINA RESULT:    -7.608      0.000      0.000
REMARK INTER + INTRA:         -13.210
REMARK INTER:                 -10.495
REMARK INTRA:                  -2.715
REMARK UNBOUND:                -2.043
REMARK  Name = 
REMARK  9 active torsions:
REMARK  status: ('A' for Active; 'I' for Inactive)
REMARK    1  A    between atoms: C_1  and  C_2
REMARK    2  A    between atoms: C_2  and  C_3
REMARK    3  A    between atoms: C_3  and  C_4
REMARK    4  A    between atoms: C_4  and  C_5
REMARK    5  A    between atoms: C_10  and  C_11
REMARK    6  A    between atoms: N_22  and  C_23
REMARK    7  A    between atoms: C_23  and  C_24
REMARK    8  A    between atoms: C_27  and  C_28
REMARK    9  A    between atoms: C_33  and  C_34
REMARK                            x       y       z     vdW  Elec       q    Type
REMARK                         _______ _______ _______ _____ _____    ______ ____
ROOT
ATOM      1  C   UNL     1      15.132  39.761  44.772  0.00  0.00    +0.000 A 
ATOM      2  N   UNL     1      15.431  40.791  44.044  0.00  0.00    +0.000 NA
ATOM      3  C   UNL     1      14.994  42.056  44.440  0.00  0.00    +0.000 A 
ATOM      4  C   UNL     1      15.298  43.157  43.641  0.00  0.00    +0.000 A 
ATOM      5  C   UNL     1      14.859  44.438  43.995  0.00  0.00    +0.000 A 
ATOM      6  C   UNL     1      14.103  44.650  45.160  0.00  0.00    +0.000 A 
ATOM      7  C   UNL     1      13.813  43.537  45.963  0.00  0.00    +0.000 A 
ATOM      8  C   UNL     1      14.258  42.258  45.598  0.00  0.00    +0.000 A 
ATOM      9  C   UNL     1      13.954  41.080  46.424  0.00  0.00    +0.000 A 
ATOM     10  O   UNL     1      13.330  41.235  47.472  0.00  0.00    +0.000 OA
ATOM     11  N   UNL     1      14.402  39.846  45.949  0.00  0.00    +0.000 N 
ENDROOT
BRANCH   6  12
ATOM     12  C   UNL     1      13.623  45.995  45.523  0.00  0.00    +0.000 A 
ATOM     13  C   UNL     1      14.318  47.145  45.107  0.00  0.00    +0.000 A 
ATOM     14  C   UNL     1      13.864  48.425  45.442  0.00  0.00    +0.000 A 
ATOM     15  C   UNL     1      12.705  48.571  46.199  0.00  0.00    +0.000 A 
ATOM     16 CL   UNL     1      12.143  50.143  46.611  0.00  0.00    +0.000 Cl
ATOM     17  C   UNL     1      11.998  47.449  46.622  0.00  0.00    +0.000 A 
ATOM     18  C   UNL     1      12.455  46.171  46.285  0.00  0.00    +0.000 A 
ENDBRANCH   6  12
BRANCH   1  19
ATOM     19  C   UNL     1      15.612  38.387  44.305  0.00  0.00    +0.000 C 
BRANCH  19  20
ATOM     20  C   UNL     1      17.132  38.204  44.338  0.00  0.00    +0.000 C 
BRANCH  20  22
ATOM     21  C   UNL     1      19.002  36.951  45.547  0.00  0.00    +0.000 C 
ATOM     22  C   UNL     1      17.567  36.917  45.045  0.00  0.00    +0.000 C 
ENDBRANCH  20  22
ENDBRANCH  19  20
ENDBRANCH   1  19
BRANCH  11  23
ATOM     23  C   UNL     1      14.060  38.676  46.767  0.00  0.00    +0.000 C 
BRANCH  23  24
ATOM     24  C   UNL     1      15.230  38.152  47.573  0.00  0.00    +0.000 A 
ATOM     25  C   UNL     1      16.289  39.001  47.930  0.00  0.00    +0.000 A 
ATOM     26  C   UNL     1      17.390  38.509  48.637  0.00  0.00    +0.000 A 
ATOM     27  C   UNL     1      17.457  37.162  49.015  0.00  0.00    +0.000 A 
ATOM     28  C   UNL     1      16.376  36.327  48.700  0.00  0.00    +0.000 A 
ATOM     29  C   UNL     1      15.275  36.816  47.990  0.00  0.00    +0.000 A 
BRANCH  27  30
ATOM     30  C   UNL     1      18.635  36.633  49.722  0.00  0.00    +0.000 A 
ATOM     31  C   UNL     1      19.524  35.794  49.019  0.00  0.00    +0.000 A 
ATOM     32  C   UNL     1      20.685  35.302  49.618  0.00  0.00    +0.000 A 
ATOM     33  C   UNL     1      20.986  35.643  50.933  0.00  0.00    +0.000 A 
ATOM     34  C   UNL     1      20.119  36.466  51.650  0.00  0.00    +0.000 A 
ATOM     35  C   UNL     1      18.938  36.958  51.065  0.00  0.00    +0.000 A 
BRANCH  35  36
ATOM     36  C   UNL     1      18.069  37.795  51.882  0.00  0.00    +0.000 A 
ATOM     37  N   UNL     1      18.329  39.127  52.106  0.00  0.00    +0.000 NA
ATOM     38  N   UNL     1      17.354  39.581  52.881  0.00  0.00    +0.000 NA
ATOM     39  N   UNL     1      16.575  38.516  53.097  0.00  0.00    +0.000 N 
ATOM     40  N   UNL     1      16.976  37.367  52.536  0.00  0.00    +0.000 NA
ATOM     41  H   UNL     1      15.729  38.579  53.657  0.00  0.00    +0.000 HD
ENDBRANCH  35  36
ENDBRANCH  27  30
ENDBRANCH  23  24
ENDBRANCH  11  23
TORSDOF 8
ENDMDL
MODEL 2
REMARK VINA RESULT:    -7.043      4.411     10.975
REMARK INTER + INTRA:         -12.380
REMARK INTER:                  -9.621
REMARK INTRA:                  -2.759
REMARK UNBOUND:                -2.043
REMARK  Name = 
REMARK  9 active torsions:
REMARK  status: ('A' for Active; 'I' for Inactive)
REMARK    1  A    between atoms: C_1  and  C_2
REMARK    2  A    between atoms: C_2  and  C_3
REMARK    3  A    between atoms: C_3  and  C_4
REMARK    4  A    between atoms: C_4  and  C_5
REMARK    5  A    between atoms: C_10  and  C_11
REMARK    6  A    between atoms: N_22  and  C_23
REMARK    7  A    between atoms: C_23  and  C_24
REMARK    8  A    between atoms: C_27  and  C_28
REMARK    9  A    between atoms: C_33  and  C_34
REMARK                            x       y       z     vdW  Elec       q    Type
REMARK                         _______ _______ _______ _____ _____    ______ ____
ROOT
ATOM      1  C   UNL     1      16.532  36.881  49.524  0.00  0.00    +0.000 A 
ATOM      2  N   UNL     1      17.298  36.937  50.568  0.00  0.00    +0.000 NA
ATOM      3  C   UNL     1      18.609  36.468  50.480  0.00  0.00    +0.000 A 
ATOM      4  C   UNL     1      19.420  36.511  51.614  0.00  0.00    +0.000 A 
ATOM      5  C   UNL     1      20.733  36.030  51.569  0.00  0.00    +0.000 A 
ATOM      6  C   UNL     1      21.270  35.495  50.386  0.00  0.00    +0.000 A 
ATOM      7  C   UNL     1      20.449  35.468  49.248  0.00  0.00    +0.000 A 
ATOM      8  C   UNL     1      19.135  35.952  49.306  0.00  0.00    +0.000 A 
ATOM      9  C   UNL     1      18.259  35.923  48.125  0.00  0.00    +0.000 A 
ATOM     10  O   UNL     1      18.710  35.499  47.062  0.00  0.00    +0.000 OA
ATOM     11  N   UNL     1      16.953  36.384  48.298  0.00  0.00    +0.000 N 
ENDROOT
BRANCH   6  12
ATOM     12  C   UNL     1      22.647  34.970  50.343  0.00  0.00    +0.000 A 
ATOM     13  C   UNL     1      23.566  35.432  49.385  0.00  0.00    +0.000 A 
ATOM     14  C   UNL     1      24.876  34.943  49.344  0.00  0.00    +0.000 A 
ATOM     15  C   UNL     1      25.283  33.982  50.265  0.00  0.00    +0.000 A 
ATOM     16 CL   UNL     1      26.894  33.379  50.218  0.00  0.00    +0.000 Cl
ATOM     17  C   UNL     1      24.393  33.508  51.224  0.00  0.00    +0.000 A 
ATOM     18  C   UNL     1      23.084  34.000  51.262  0.00  0.00    +0.000 A 
ENDBRANCH   6  12
BRANCH   1  19
ATOM     19  C   UNL     1      15.096  37.387  49.655  0.00  0.00    +0.000 C 
BRANCH  19  20
ATOM     20  C   UNL     1      14.970  38.758  50.326  0.00  0.00    +0.000 C 
BRANCH  20  22
ATOM     21  C   UNL     1      13.856  40.476  48.798  0.00  0.00    +0.000 C 
ATOM     22  C   UNL     1      15.160  39.924  49.351  0.00  0.00    +0.000 C 
ENDBRANCH  20  22
ENDBRANCH  19  20
ENDBRANCH   1  19
BRANCH  11  23
ATOM     23  C   UNL     1      16.081  36.315  47.119  0.00  0.00    +0.000 C 
BRANCH  23  24
ATOM     24  C   UNL     1      15.858  37.663  46.465  0.00  0.00    +0.000 A 
ATOM     25  C   UNL     1      16.889  38.613  46.418  0.00  0.00    +0.000 A 
ATOM     26  C   UNL     1      16.672  39.873  45.853  0.00  0.00    +0.000 A 
ATOM     27  C   UNL     1      15.425  40.213  45.313  0.00  0.00    +0.000 A 
ATOM     28  C   UNL     1      14.410  39.244  45.318  0.00  0.00    +0.000 A 
ATOM     29  C   UNL     1      14.625  37.984  45.884  0.00  0.00    +0.000 A 
BRANCH  27  30
ATOM     30  C   UNL     1      15.181  41.554  44.757  0.00  0.00    +0.000 A 
ATOM     31  C   UNL     1      14.653  42.550  45.603  0.00  0.00    +0.000 A 
ATOM     32  C   UNL     1      14.448  43.854  45.149  0.00  0.00    +0.000 A 
ATOM     33  C   UNL     1      14.771  44.193  43.839  0.00  0.00    +0.000 A 
ATOM     34  C   UNL     1      15.290  43.223  42.982  0.00  0.00    +0.000 A 
ATOM     35  C   UNL     1      15.489  41.901  43.421  0.00  0.00    +0.000 A 
BRANCH  35  36
ATOM     36  C   UNL     1      16.013  40.937  42.463  0.00  0.00    +0.000 A 
ATOM     37  N   UNL     1      17.357  40.664  42.353  0.00  0.00    +0.000 NA
ATOM     38  N   UNL     1      17.485  39.754  41.399  0.00  0.00    +0.000 NA
ATOM     39  N   UNL     1      16.237  39.537  40.973  0.00  0.00    +0.000 N 
ATOM     40  N   UNL     1      15.277  40.261  41.565  0.00  0.00    +0.000 NA
ATOM     41  H   UNL     1      16.032  38.862  40.241  0.00  0.00    +0.000 HD
ENDBRANCH  35  36
ENDBRANCH  27  30
ENDBRANCH  23  24
ENDBRANCH  11  23
TORSDOF 8
ENDMDL
MODEL 3
REMARK VINA RESULT:    -7.023      2.237      3.154
REMARK INTER + INTRA:         -12.351
REMARK INTER:                 -10.307
REMARK INTRA:                  -2.043
REMARK UNBOUND:                -2.043
REMARK  Name = 
REMARK  9 active torsions:
REMARK  status: ('A' for Active; 'I' for Inactive)
REMARK    1  A    between atoms: C_1  and  C_2
REMARK    2  A    between atoms: C_2  and  C_3
REMARK    3  A    between atoms: C_3  and  C_4
REMARK    4  A    between atoms: C_4  and  C_5
REMARK    5  A    between atoms: C_10  and  C_11
REMARK    6  A    between atoms: N_22  and  C_23
REMARK    7  A    between atoms: C_23  and  C_24
REMARK    8  A    between atoms: C_27  and  C_28
REMARK    9  A    between atoms: C_33  and  C_34
REMARK                            x       y       z     vdW  Elec       q    Type
REMARK                         _______ _______ _______ _____ _____    ______ ____
ROOT
ATOM      1  C   UNL     1      15.997  38.975  46.011  0.00  0.00    +0.000 A 
ATOM      2  N   UNL     1      16.278  39.983  45.246  0.00  0.00    +0.000 NA
ATOM      3  C   UNL     1      15.626  41.199  45.453  0.00  0.00    +0.000 A 
ATOM      4  C   UNL     1      15.914  42.273  44.612  0.00  0.00    +0.000 A 
ATOM      5  C   UNL     1      15.265  43.502  44.776  0.00  0.00    +0.000 A 
ATOM      6  C   UNL     1      14.309  43.688  45.789  0.00  0.00    +0.000 A 
ATOM      7  C   UNL     1      14.035  42.604  46.637  0.00  0.00    +0.000 A 
ATOM      8  C   UNL     1      14.691  41.378  46.462  0.00  0.00    +0.000 A 
ATOM      9  C   UNL     1      14.408  40.229  47.337  0.00  0.00    +0.000 A 
ATOM     10  O   UNL     1      13.607  40.370  48.259  0.00  0.00    +0.000 OA
ATOM     11  N   UNL     1      15.080  39.040  47.050  0.00  0.00    +0.000 N 
ENDROOT
BRANCH   6  12
ATOM     12  C   UNL     1      13.610  44.975  45.949  0.00  0.00    +0.000 A 
ATOM     13  C   UNL     1      14.162  46.164  45.440  0.00  0.00    +0.000 A 
ATOM     14  C   UNL     1      13.500  47.388  45.582  0.00  0.00    +0.000 A 
ATOM     15  C   UNL     1      12.274  47.438  46.239  0.00  0.00    +0.000 A 
ATOM     16 CL   UNL     1      11.457  48.941  46.415  0.00  0.00    +0.000 Cl
ATOM     17  C   UNL     1      11.705  46.275  46.752  0.00  0.00    +0.000 A 
ATOM     18  C   UNL     1      12.369  45.053  46.607  0.00  0.00    +0.000 A 
ENDBRANCH   6  12
BRANCH   1  19
ATOM     19  C   UNL     1      16.716  37.651  45.750  0.00  0.00    +0.000 C 
BRANCH  19  20
ATOM     20  C   UNL     1      18.183  37.632  46.190  0.00  0.00    +0.000 C 
BRANCH  20  22
ATOM     21  C   UNL     1      18.409  35.955  48.103  0.00  0.00    +0.000 C 
ATOM     22  C   UNL     1      18.660  36.246  46.632  0.00  0.00    +0.000 C 
ENDBRANCH  20  22
ENDBRANCH  19  20
ENDBRANCH   1  19
BRANCH  11  23
ATOM     23  C   UNL     1      14.760  37.894  47.910  0.00  0.00    +0.000 C 
BRANCH  23  24
ATOM     24  C   UNL     1      15.184  38.094  49.350  0.00  0.00    +0.000 A 
ATOM     25  C   UNL     1      16.463  38.583  49.657  0.00  0.00    +0.000 A 
ATOM     26  C   UNL     1      16.871  38.728  50.986  0.00  0.00    +0.000 A 
ATOM     27  C   UNL     1      16.011  38.399  52.041  0.00  0.00    +0.000 A 
ATOM     28  C   UNL     1      14.716  37.957  51.733  0.00  0.00    +0.000 A 
ATOM     29  C   UNL     1      14.307  37.809  50.404  0.00  0.00    +0.000 A 
BRANCH  27  30
ATOM     30  C   UNL     1      16.454  38.510  53.441  0.00  0.00    +0.000 A 
ATOM     31  C   UNL     1      16.954  37.359  54.084  0.00  0.00    +0.000 A 
ATOM     32  C   UNL     1      17.436  37.412  55.393  0.00  0.00    +0.000 A 
ATOM     33  C   UNL     1      17.435  38.617  56.086  0.00  0.00    +0.000 A 
ATOM     34  C   UNL     1      16.941  39.768  55.473  0.00  0.00    +0.000 A 
ATOM     35  C   UNL     1      16.438  39.728  54.160  0.00  0.00    +0.000 A 
BRANCH  35  36
ATOM     36  C   UNL     1      15.917  40.964  53.592  0.00  0.00    +0.000 A 
ATOM     37  N   UNL     1      16.735  41.921  53.035  0.00  0.00    +0.000 NA
ATOM     38  N   UNL     1      15.947  42.903  52.620  0.00  0.00    +0.000 NA
ATOM     39  N   UNL     1      14.715  42.508  52.956  0.00  0.00    +0.000 N 
ATOM     40  N   UNL     1      14.624  41.331  53.592  0.00  0.00    +0.000 NA
ATOM     41  H   UNL     1      13.897  43.071  52.742  0.00  0.00    +0.000 HD
ENDBRANCH  35  36
ENDBRANCH  27  30
ENDBRANCH  23  24
ENDBRANCH  11  23
TORSDOF 8
ENDMDL
