MODEL 1
REMARK VINA RESULT:    -7.947      0.000      0.000
REMARK INTER + INTRA:          -9.472
REMARK INTER:                  -9.156
REMARK INTRA:                  -0.315
REMARK UNBOUND:                -0.132
REMARK  Name = 
REMARK  4 active torsions:
REMARK  status: ('A' for Active; 'I' for Inactive)
REMARK    1  A    between atoms: C_1  and  C_2
REMARK    2  A    between atoms: C_12  and  C_14
REMARK    3  A    between atoms: C_18  and  N_19
REMARK    4  A    between atoms: C_20  and  C_22
REMARK                            x       y       z     vdW  Elec       q    Type
REMARK                         _______ _______ _______ _____ _____    ______ ____
ROOT
ATOM      1  C   UNL     1      13.784  45.068  45.474  0.00  0.00    +0.000 A 
ATOM      2  C   UNL     1      14.354  44.746  44.254  0.00  0.00    +0.000 A 
ATOM      3  C   UNL     1      14.952  43.460  44.358  0.00  0.00    +0.000 A 
ATOM      4  C   UNL     1      15.686  42.647  43.469  0.00  0.00    +0.000 A 
ATOM      5  C   UNL     1      16.148  41.395  43.892  0.00  0.00    +0.000 A 
ATOM      6  C   UNL     1      15.862  40.959  45.191  0.00  0.00    +0.000 A 
ATOM      7  C   UNL     1      15.123  41.742  46.088  0.00  0.00    +0.000 A 
ATOM      8  C   UNL     1      14.686  42.990  45.640  0.00  0.00    +0.000 A 
ATOM      9  N   UNL     1      13.942  43.955  46.274  0.00  0.00    +0.000 N 
ATOM     10  H   UNL     1      13.564  43.881  47.210  0.00  0.00    +0.000 HD
ENDROOT
BRANCH   1  22
ATOM     11  C   UNL     1      15.742  52.537  46.305  0.00  0.00    +0.000 C 
ATOM     12  C   UNL     1      14.352  52.243  46.730  0.00  0.00    +0.000 A 
ATOM     13  C   UNL     1      13.539  53.054  47.509  0.00  0.00    +0.000 A 
ATOM     14  N   UNL     1      12.319  52.441  47.681  0.00  0.00    +0.000 N 
ATOM     15  C   UNL     1      12.339  51.227  47.053  0.00  0.00    +0.000 A 
ATOM     16  C   UNL     1      13.565  51.109  46.439  0.00  0.00    +0.000 A 
ATOM     17  C   UNL     1      13.785  49.853  45.586  0.00  0.00    +0.000 C 
ATOM     18  C   UNL     1      14.227  50.053  44.154  0.00  0.00    +0.000 C 
ATOM     19  C   UNL     1      15.059  49.251  45.120  0.00  0.00    +0.000 C 
ATOM     20  C   UNL     1      14.903  47.756  45.143  0.00  0.00    +0.000 C 
ATOM     21  N   UNL     1      13.512  47.502  45.596  0.00  0.00    +0.000 N 
ATOM     22  C   UNL     1      13.049  46.228  45.949  0.00  0.00    +0.000 C 
ATOM     23  O   UNL     1      12.081  46.049  46.686  0.00  0.00    +0.000 OA
ATOM     24  C   UNL     1      12.884  48.715  45.929  0.00  0.00    +0.000 C 
ATOM     25  C   UNL     1      11.685  48.873  46.523  0.00  0.00    +0.000 C 
ATOM     26  C   UNL     1      11.296  50.227  47.043  0.00  0.00    +0.000 C 
ATOM     27  O   UNL     1      10.168  50.419  47.484  0.00  0.00    +0.000 OA
ATOM     28  H   UNL     1      11.538  52.802  48.215  0.00  0.00    +0.000 HD
ENDBRANCH   1  22
BRANCH   5  29
ATOM     29  N   UNL     1      16.903  40.526  43.082  0.00  0.00    +0.000 N 
ATOM     30  C   UNL     1      16.472  39.427  42.360  0.00  0.00    +0.000 C 
ATOM     31  O   UNL     1      15.320  39.007  42.316  0.00  0.00    +0.000 OA
ATOM     32  H   UNL     1      17.896  40.720  42.999  0.00  0.00    +0.000 HD
BRANCH  30  33
ATOM     33  C   UNL     1      17.548  38.790  41.622  0.00  0.00    +0.000 A 
ATOM     34  C   UNL     1      18.024  37.492  41.651  0.00  0.00    +0.000 A 
ATOM     35  C   UNL     1      19.085  37.418  40.714  0.00  0.00    +0.000 A 
ATOM     36  C   UNL     1      19.963  36.416  40.266  0.00  0.00    +0.000 A 
ATOM     37  C   UNL     1      20.912  36.741  39.286  0.00  0.00    +0.000 A 
ATOM     38  C   UNL     1      20.991  38.035  38.762  0.00  0.00    +0.000 A 
ATOM     39  C   UNL     1      20.127  39.046  39.196  0.00  0.00    +0.000 A 
ATOM     40  C   UNL     1      19.195  38.691  40.167  0.00  0.00    +0.000 A 
ATOM     41  O   UNL     1      18.268  39.525  40.713  0.00  0.00    +0.000 OA
ENDBRANCH  30  33
ENDBRANCH   5  29
TORSDOF 3
ENDMDL
MODEL 2
REMARK VINA RESULT:    -7.705      7.050     11.807
REMARK INTER + INTRA:          -9.188
REMARK INTER:                  -9.056
REMARK INTRA:                  -0.132
REMARK UNBOUND:                -0.132
REMARK  Name = 
REMARK  4 active torsions:
REMARK  status: ('A' for Active; 'I' for Inactive)
REMARK    1  A    between atoms: C_1  and  C_2
REMARK    2  A    between atoms: C_12  and  C_14
REMARK    3  A    between atoms: C_18  and  N_19
REMARK    4  A    between atoms: C_20  and  C_22
REMARK                            x       y       z     vdW  Elec       q    Type
REMARK                         _______ _______ _______ _____ _____    ______ ____
ROOT
ATOM      1  C   UNL     1      15.594  39.315  47.126  0.00  0.00    +0.000 A 
ATOM      2  C   UNL     1      16.358  38.666  48.080  0.00  0.00    +0.000 A 
ATOM      3  C   UNL     1      15.946  39.107  49.368  0.00  0.00    +0.000 A 
ATOM      4  C   UNL     1      16.373  38.824  50.683  0.00  0.00    +0.000 A 
ATOM      5  C   UNL     1      15.741  39.444  51.768  0.00  0.00    +0.000 A 
ATOM      6  C   UNL     1      14.681  40.328  51.533  0.00  0.00    +0.000 A 
ATOM      7  C   UNL     1      14.230  40.615  50.238  0.00  0.00    +0.000 A 
ATOM      8  C   UNL     1      14.888  39.989  49.177  0.00  0.00    +0.000 A 
ATOM      9  N   UNL     1      14.665  40.061  47.824  0.00  0.00    +0.000 N 
ATOM     10  H   UNL     1      13.930  40.595  47.379  0.00  0.00    +0.000 HD
ENDROOT
BRANCH   1  22
ATOM     11  C   UNL     1      13.949  44.635  41.713  0.00  0.00    +0.000 C 
ATOM     12  C   UNL     1      14.285  43.304  41.147  0.00  0.00    +0.000 A 
ATOM     13  C   UNL     1      14.032  42.871  39.853  0.00  0.00    +0.000 A 
ATOM     14  N   UNL     1      14.496  41.585  39.708  0.00  0.00    +0.000 N 
ATOM     15  C   UNL     1      15.017  41.163  40.899  0.00  0.00    +0.000 A 
ATOM     16  C   UNL     1      14.924  42.218  41.779  0.00  0.00    +0.000 A 
ATOM     17  C   UNL     1      15.537  42.007  43.169  0.00  0.00    +0.000 C 
ATOM     18  C   UNL     1      16.550  43.023  43.645  0.00  0.00    +0.000 C 
ATOM     19  C   UNL     1      15.289  42.758  44.424  0.00  0.00    +0.000 C 
ATOM     20  C   UNL     1      15.336  41.783  45.567  0.00  0.00    +0.000 C 
ATOM     21  N   UNL     1      15.648  40.464  44.960  0.00  0.00    +0.000 N 
ATOM     22  C   UNL     1      15.567  39.262  45.674  0.00  0.00    +0.000 C 
ATOM     23  O   UNL     1      15.421  38.169  45.129  0.00  0.00    +0.000 OA
ATOM     24  C   UNL     1      15.689  40.575  43.560  0.00  0.00    +0.000 C 
ATOM     25  C   UNL     1      15.786  39.570  42.667  0.00  0.00    +0.000 C 
ATOM     26  C   UNL     1      15.546  39.854  41.212  0.00  0.00    +0.000 C 
ATOM     27  O   UNL     1      15.739  38.982  40.372  0.00  0.00    +0.000 OA
ATOM     28  H   UNL     1      14.435  41.017  38.872  0.00  0.00    +0.000 HD
ENDBRANCH   1  22
BRANCH   5  29
ATOM     29  N   UNL     1      16.110  39.237  53.110  0.00  0.00    +0.000 N 
ATOM     30  C   UNL     1      17.130  39.836  53.827  0.00  0.00    +0.000 C 
ATOM     31  O   UNL     1      17.917  40.669  53.391  0.00  0.00    +0.000 OA
ATOM     32  H   UNL     1      15.561  38.567  53.640  0.00  0.00    +0.000 HD
BRANCH  30  33
ATOM     33  C   UNL     1      17.186  39.377  55.204  0.00  0.00    +0.000 A 
ATOM     34  C   UNL     1      17.370  38.113  55.732  0.00  0.00    +0.000 A 
ATOM     35  C   UNL     1      17.348  38.246  57.144  0.00  0.00    +0.000 A 
ATOM     36  C   UNL     1      17.479  37.373  58.238  0.00  0.00    +0.000 A 
ATOM     37  C   UNL     1      17.401  37.903  59.534  0.00  0.00    +0.000 A 
ATOM     38  C   UNL     1      17.195  39.270  59.742  0.00  0.00    +0.000 A 
ATOM     39  C   UNL     1      17.061  40.154  58.666  0.00  0.00    +0.000 A 
ATOM     40  C   UNL     1      17.146  39.598  57.392  0.00  0.00    +0.000 A 
ATOM     41  O   UNL     1      17.046  40.288  56.223  0.00  0.00    +0.000 OA
ENDBRANCH  30  33
ENDBRANCH   5  29
TORSDOF 3
ENDMDL
MODEL 3
REMARK VINA RESULT:    -7.698     10.223     17.249
REMARK INTER + INTRA:          -9.179
REMARK INTER:                  -8.738
REMARK INTRA:                  -0.441
REMARK UNBOUND:                -0.132
REMARK  Name = 
REMARK  4 active torsions:
REMARK  status: ('A' for Active; 'I' for Inactive)
REMARK    1  A    between atoms: C_1  and  C_2
REMARK    2  A    between atoms: C_12  and  C_14
REMARK    3  A    between atoms: C_18  and  N_19
REMARK    4  A    between atoms: C_20  and  C_22
REMARK                            x       y       z     vdW  Elec       q    Type
REMARK                         _______ _______ _______ _____ _____    ______ ____
ROOT
ATOM      1  C   UNL     1      20.617  34.468  50.847  0.00  0.00    +0.000 A 
ATOM      2  C   UNL     1      20.228  35.290  51.891  0.00  0.00    +0.000 A 
ATOM      3  C   UNL     1      19.287  36.236  51.399  0.00  0.00    +0.000 A 
ATOM      4  C   UNL     1      18.587  37.314  51.980  0.00  0.00    +0.000 A 
ATOM      5  C   UNL     1      17.707  38.073  51.199  0.00  0.00    +0.000 A 
ATOM      6  C   UNL     1      17.522  37.741  49.852  0.00  0.00    +0.000 A 
ATOM      7  C   UNL     1      18.195  36.667  49.255  0.00  0.00    +0.000 A 
ATOM      8  C   UNL     1      19.074  35.937  50.057  0.00  0.00    +0.000 A 
ATOM      9  N   UNL     1      19.848  34.841  49.763  0.00  0.00    +0.000 N 
ATOM     10  H   UNL     1      19.874  34.367  48.870  0.00  0.00    +0.000 HD
ENDROOT
BRANCH   1  22
ATOM     11  C   UNL     1      27.993  33.893  48.488  0.00  0.00    +0.000 C 
ATOM     12  C   UNL     1      27.409  32.598  48.915  0.00  0.00    +0.000 A 
ATOM     13  C   UNL     1      27.918  31.336  48.643  0.00  0.00    +0.000 A 
ATOM     14  N   UNL     1      27.101  30.387  49.213  0.00  0.00    +0.000 N 
ATOM     15  C   UNL     1      26.051  31.012  49.824  0.00  0.00    +0.000 A 
ATOM     16  C   UNL     1      26.245  32.367  49.677  0.00  0.00    +0.000 A 
ATOM     17  C   UNL     1      25.229  33.284  50.369  0.00  0.00    +0.000 C 
ATOM     18  C   UNL     1      25.770  34.339  51.308  0.00  0.00    +0.000 C 
ATOM     19  C   UNL     1      24.935  34.715  50.112  0.00  0.00    +0.000 C 
ATOM     20  C   UNL     1      23.458  34.927  50.298  0.00  0.00    +0.000 C 
ATOM     21  N   UNL     1      22.908  33.608  50.699  0.00  0.00    +0.000 N 
ATOM     22  C   UNL     1      21.534  33.345  50.759  0.00  0.00    +0.000 C 
ATOM     23  O   UNL     1      21.067  32.210  50.686  0.00  0.00    +0.000 OA
ATOM     24  C   UNL     1      23.921  32.633  50.666  0.00  0.00    +0.000 C 
ATOM     25  C   UNL     1      23.772  31.302  50.812  0.00  0.00    +0.000 C 
ATOM     26  C   UNL     1      24.921  30.394  50.481  0.00  0.00    +0.000 C 
ATOM     27  O   UNL     1      24.847  29.192  50.713  0.00  0.00    +0.000 OA
ATOM     28  H   UNL     1      27.226  29.382  49.165  0.00  0.00    +0.000 HD
ENDBRANCH   1  22
BRANCH   5  29
ATOM     29  N   UNL     1      16.981  39.176  51.688  0.00  0.00    +0.000 N 
ATOM     30  C   UNL     1      17.418  40.204  52.504  0.00  0.00    +0.000 C 
ATOM     31  O   UNL     1      18.550  40.322  52.962  0.00  0.00    +0.000 OA
ATOM     32  H   UNL     1      16.007  39.245  51.409  0.00  0.00    +0.000 HD
BRANCH  30  33
ATOM     33  C   UNL     1      16.377  41.178  52.777  0.00  0.00    +0.000 A 
ATOM     34  C   UNL     1      15.014  41.024  52.951  0.00  0.00    +0.000 A 
ATOM     35  C   UNL     1      14.480  42.314  53.204  0.00  0.00    +0.000 A 
ATOM     36  C   UNL     1      13.202  42.839  53.464  0.00  0.00    +0.000 A 
ATOM     37  C   UNL     1      13.073  44.220  53.673  0.00  0.00    +0.000 A 
ATOM     38  C   UNL     1      14.186  45.064  53.623  0.00  0.00    +0.000 A 
ATOM     39  C   UNL     1      15.466  44.559  53.364  0.00  0.00    +0.000 A 
ATOM     40  C   UNL     1      15.562  43.185  53.164  0.00  0.00    +0.000 A 
ATOM     41  O   UNL     1      16.712  42.504  52.905  0.00  0.00    +0.000 OA
ENDBRANCH  30  33
ENDBRANCH   5  29
TORSDOF 3
ENDMDL
