MODEL 1
REMARK VINA RESULT:    -6.764      0.000      0.000
REMARK INTER + INTRA:          -8.556
REMARK INTER:                  -8.018
REMARK INTRA:                  -0.539
REMARK UNBOUND:                -0.211
REMARK  Name = 
REMARK  5 active torsions:
REMARK  status: ('A' for Active; 'I' for Inactive)
REMARK    1  A    between atoms: C_1  and  O_2
REMARK    2  A    between atoms: O_2  and  C_3
REMARK    3  A    between atoms: C_8  and  C_9
REMARK    4  A    between atoms: N_16  and  C_17
REMARK    5  A    between atoms: C_21  and  C_22
REMARK                            x       y       z     vdW  Elec       q    Type
REMARK                         _______ _______ _______ _____ _____    ______ ____
ROOT
ATOM      1  C   UNL     1      22.242  33.957  53.405  0.00  0.00    +0.000 A 
ATOM      2  C   UNL     1      22.002  34.176  52.044  0.00  0.00    +0.000 A 
ATOM      3  C   UNL     1      20.863  34.878  51.668  0.00  0.00    +0.000 A 
ATOM      4  C   UNL     1      19.964  35.369  52.612  0.00  0.00    +0.000 A 
ATOM      5  C   UNL     1      20.189  35.162  53.962  0.00  0.00    +0.000 A 
ATOM      6  C   UNL     1      21.336  34.450  54.371  0.00  0.00    +0.000 A 
ATOM      7  N   UNL     1      18.898  36.034  51.972  0.00  0.00    +0.000 N 
ATOM      8  C   UNL     1      17.869  36.713  52.621  0.00  0.00    +0.000 C 
ATOM      9  O   UNL     1      17.822  36.861  53.839  0.00  0.00    +0.000 OA
ATOM     10  N   UNL     1      16.904  37.210  51.759  0.00  0.00    +0.000 N 
ATOM     11  C   UNL     1      19.097  35.918  50.516  0.00  0.00    +0.000 C 
ATOM     12  C   UNL     1      20.450  35.239  50.280  0.00  0.00    +0.000 C 
ATOM     13  H   UNL     1      16.869  36.790  50.845  0.00  0.00    +0.000 HD
ENDROOT
BRANCH  10  14
ATOM     14  C   UNL     1      15.821  38.056  52.089  0.00  0.00    +0.000 A 
ATOM     15  C   UNL     1      14.542  37.505  52.157  0.00  0.00    +0.000 A 
ATOM     16  N   UNL     1      13.420  38.198  52.453  0.00  0.00    +0.000 NA
ATOM     17  C   UNL     1      13.580  39.520  52.695  0.00  0.00    +0.000 A 
ATOM     18  C   UNL     1      14.801  40.198  52.644  0.00  0.00    +0.000 A 
ATOM     19  C   UNL     1      15.931  39.426  52.326  0.00  0.00    +0.000 A 
BRANCH  18  20
ATOM     20  C   UNL     1      14.899  41.644  52.907  0.00  0.00    +0.000 A 
ATOM     21  C   UNL     1      13.804  42.367  53.419  0.00  0.00    +0.000 A 
ATOM     22  C   UNL     1      13.900  43.739  53.671  0.00  0.00    +0.000 A 
ATOM     23  C   UNL     1      15.092  44.401  53.410  0.00  0.00    +0.000 A 
ATOM     24  F   UNL     1      15.184  45.715  53.651  0.00  0.00    +0.000 F 
ATOM     25  C   UNL     1      16.189  43.719  52.903  0.00  0.00    +0.000 A 
ATOM     26  C   UNL     1      16.091  42.347  52.652  0.00  0.00    +0.000 A 
ENDBRANCH  18  20
ENDBRANCH  10  14
BRANCH   6  27
ATOM     27  C   UNL     1      21.589  34.217  55.841  0.00  0.00    +0.000 C 
ATOM     28  F   UNL     1      21.616  32.895  56.181  0.00  0.00    +0.000 F 
ATOM     29  F   UNL     1      20.638  34.773  56.644  0.00  0.00    +0.000 F 
ATOM     30  F   UNL     1      22.787  34.716  56.263  0.00  0.00    +0.000 F 
ENDBRANCH   6  27
BRANCH   1  32
ATOM     31  C   UNL     1      24.498  33.226  53.098  0.00  0.00    +0.000 C 
ATOM     32  O   UNL     1      23.325  33.281  53.901  0.00  0.00    +0.000 OA
ENDBRANCH   1  32
TORSDOF 4
ENDMDL
MODEL 2
REMARK VINA RESULT:    -6.752      9.714     11.761
REMARK INTER + INTRA:          -8.542
REMARK INTER:                  -8.331
REMARK INTRA:                  -0.211
REMARK UNBOUND:                -0.211
REMARK  Name = 
REMARK  5 active torsions:
REMARK  status: ('A' for Active; 'I' for Inactive)
REMARK    1  A    between atoms: C_1  and  O_2
REMARK    2  A    between atoms: O_2  and  C_3
REMARK    3  A    between atoms: C_8  and  C_9
REMARK    4  A    between atoms: N_16  and  C_17
REMARK    5  A    between atoms: C_21  and  C_22
REMARK                            x       y       z     vdW  Elec       q    Type
REMARK                         _______ _______ _______ _____ _____    ______ ____
ROOT
ATOM      1  C   UNL     1      16.848  38.485  44.344  0.00  0.00    +0.000 A 
ATOM      2  C   UNL     1      16.311  38.742  45.611  0.00  0.00    +0.000 A 
ATOM      3  C   UNL     1      15.783  40.001  45.872  0.00  0.00    +0.000 A 
ATOM      4  C   UNL     1      15.772  41.003  44.905  0.00  0.00    +0.000 A 
ATOM      5  C   UNL     1      16.298  40.763  43.647  0.00  0.00    +0.000 A 
ATOM      6  C   UNL     1      16.844  39.495  43.356  0.00  0.00    +0.000 A 
ATOM      7  N   UNL     1      15.190  42.178  45.424  0.00  0.00    +0.000 N 
ATOM      8  C   UNL     1      14.948  43.342  44.700  0.00  0.00    +0.000 C 
ATOM      9  O   UNL     1      15.160  43.444  43.495  0.00  0.00    +0.000 OA
ATOM     10  N   UNL     1      14.440  44.377  45.469  0.00  0.00    +0.000 N 
ATOM     11  C   UNL     1      14.850  41.931  46.837  0.00  0.00    +0.000 C 
ATOM     12  C   UNL     1      15.141  40.458  47.140  0.00  0.00    +0.000 C 
ATOM     13  H   UNL     1      14.584  44.302  46.462  0.00  0.00    +0.000 HD
ENDROOT
BRANCH  10  14
ATOM     14  C   UNL     1      13.962  45.626  45.010  0.00  0.00    +0.000 A 
ATOM     15  C   UNL     1      12.846  45.646  44.176  0.00  0.00    +0.000 A 
ATOM     16  N   UNL     1      12.291  46.765  43.660  0.00  0.00    +0.000 NA
ATOM     17  C   UNL     1      12.883  47.936  43.994  0.00  0.00    +0.000 A 
ATOM     18  C   UNL     1      14.014  48.054  44.807  0.00  0.00    +0.000 A 
ATOM     19  C   UNL     1      14.549  46.856  45.310  0.00  0.00    +0.000 A 
BRANCH  18  20
ATOM     20  C   UNL     1      14.613  49.362  45.119  0.00  0.00    +0.000 A 
ATOM     21  C   UNL     1      15.971  49.624  44.853  0.00  0.00    +0.000 A 
ATOM     22  C   UNL     1      16.537  50.867  45.149  0.00  0.00    +0.000 A 
ATOM     23  C   UNL     1      15.750  51.860  45.716  0.00  0.00    +0.000 A 
ATOM     24  F   UNL     1      16.293  53.051  46.000  0.00  0.00    +0.000 F 
ATOM     25  C   UNL     1      14.410  51.634  45.994  0.00  0.00    +0.000 A 
ATOM     26  C   UNL     1      13.845  50.390  45.697  0.00  0.00    +0.000 A 
ENDBRANCH  18  20
ENDBRANCH  10  14
BRANCH   6  27
ATOM     27  C   UNL     1      17.422  39.224  41.988  0.00  0.00    +0.000 C 
ATOM     28  F   UNL     1      18.468  38.347  42.008  0.00  0.00    +0.000 F 
ATOM     29  F   UNL     1      17.906  40.343  41.378  0.00  0.00    +0.000 F 
ATOM     30  F   UNL     1      16.518  38.678  41.124  0.00  0.00    +0.000 F 
ENDBRANCH   6  27
BRANCH   1  32
ATOM     31  C   UNL     1      16.551  36.146  43.945  0.00  0.00    +0.000 C 
ATOM     32  O   UNL     1      17.398  37.290  43.965  0.00  0.00    +0.000 OA
ENDBRANCH   1  32
TORSDOF 4
ENDMDL
MODEL 3
REMARK VINA RESULT:    -6.735      8.559     10.195
REMARK INTER + INTRA:          -8.520
REMARK INTER:                  -8.158
REMARK INTRA:                  -0.362
REMARK UNBOUND:                -0.211
REMARK  Name = 
REMARK  5 active torsions:
REMARK  status: ('A' for Active; 'I' for Inactive)
REMARK    1  A    between atoms: C_1  and  O_2
REMARK    2  A    between atoms: O_2  and  C_3
REMARK    3  A    between atoms: C_8  and  C_9
REMARK    4  A    between atoms: N_16  and  C_17
REMARK    5  A    between atoms: C_21  and  C_22
REMARK                            x       y       z     vdW  Elec       q    Type
REMARK                         _______ _______ _______ _____ _____    ______ ____
ROOT
ATOM      1  C   UNL     1      17.095  37.841  45.978  0.00  0.00    +0.000 A 
ATOM      2  C   UNL     1      17.066  38.284  44.651  0.00  0.00    +0.000 A 
ATOM      3  C   UNL     1      16.507  39.524  44.370  0.00  0.00    +0.000 A 
ATOM      4  C   UNL     1      15.985  40.334  45.375  0.00  0.00    +0.000 A 
ATOM      5  C   UNL     1      16.007  39.911  46.693  0.00  0.00    +0.000 A 
ATOM      6  C   UNL     1      16.565  38.654  47.006  0.00  0.00    +0.000 A 
ATOM      7  N   UNL     1      15.477  41.530  44.826  0.00  0.00    +0.000 N 
ATOM      8  C   UNL     1      14.958  42.594  45.559  0.00  0.00    +0.000 C 
ATOM      9  O   UNL     1      14.951  42.628  46.786  0.00  0.00    +0.000 OA
ATOM     10  N   UNL     1      14.453  43.616  44.770  0.00  0.00    +0.000 N 
ATOM     11  C   UNL     1      15.638  41.462  43.362  0.00  0.00    +0.000 C 
ATOM     12  C   UNL     1      16.412  40.182  43.033  0.00  0.00    +0.000 C 
ATOM     13  H   UNL     1      14.232  43.372  43.819  0.00  0.00    +0.000 HD
ENDROOT
BRANCH  10  14
ATOM     14  C   UNL     1      13.993  44.880  45.204  0.00  0.00    +0.000 A 
ATOM     15  C   UNL     1      12.889  44.930  46.053  0.00  0.00    +0.000 A 
ATOM     16  N   UNL     1      12.341  46.068  46.536  0.00  0.00    +0.000 NA
ATOM     17  C   UNL     1      12.927  47.225  46.149  0.00  0.00    +0.000 A 
ATOM     18  C   UNL     1      14.026  47.315  45.292  0.00  0.00    +0.000 A 
ATOM     19  C   UNL     1      14.549  46.100  44.818  0.00  0.00    +0.000 A 
BRANCH  18  20
ATOM     20  C   UNL     1      14.606  48.612  44.904  0.00  0.00    +0.000 A 
ATOM     21  C   UNL     1      15.950  48.923  45.185  0.00  0.00    +0.000 A 
ATOM     22  C   UNL     1      16.499  50.153  44.814  0.00  0.00    +0.000 A 
ATOM     23  C   UNL     1      15.707  51.087  44.160  0.00  0.00    +0.000 A 
ATOM     24  F   UNL     1      16.233  52.266  43.805  0.00  0.00    +0.000 F 
ATOM     25  C   UNL     1      14.378  50.814  43.871  0.00  0.00    +0.000 A 
ATOM     26  C   UNL     1      13.830  49.583  44.242  0.00  0.00    +0.000 A 
ENDBRANCH  18  20
ENDBRANCH  10  14
BRANCH   6  27
ATOM     27  C   UNL     1      16.593  38.183  48.440  0.00  0.00    +0.000 C 
ATOM     28  F   UNL     1      17.835  37.796  48.857  0.00  0.00    +0.000 F 
ATOM     29  F   UNL     1      15.789  37.105  48.667  0.00  0.00    +0.000 F 
ATOM     30  F   UNL     1      16.205  39.144  49.327  0.00  0.00    +0.000 F 
ENDBRANCH   6  27
BRANCH   1  32
ATOM     31  C   UNL     1      16.974  35.454  45.933  0.00  0.00    +0.000 C 
ATOM     32  O   UNL     1      17.615  36.641  46.383  0.00  0.00    +0.000 OA
ENDBRANCH   1  32
TORSDOF 4
ENDMDL
