MODEL 1
REMARK VINA RESULT:    -7.045      0.000      0.000
REMARK INTER + INTRA:          -9.038
REMARK INTER:                  -8.471
REMARK INTRA:                  -0.567
REMARK UNBOUND:                -0.551
REMARK  Name = 
REMARK  9 active torsions:
REMARK  status: ('A' for Active; 'I' for Inactive)
REMARK    1  A    between atoms: C_1  and  C_2
REMARK    2  A    between atoms: C_7  and  C_8
REMARK    3  A    between atoms: C_11  and  C_12
REMARK    4  A    between atoms: C_15  and  C_16
REMARK    5  A    between atoms: C_16  and  O_18
REMARK    6  A    between atoms: C_22  and  C_23
REMARK    7  A    between atoms: C_22  and  C_24
REMARK    8  A    between atoms: C_27  and  C_28
REMARK    9  A    between atoms: C_27  and  C_29
REMARK                            x       y       z     vdW  Elec       q    Type
REMARK                         _______ _______ _______ _____ _____    ______ ____
ROOT
ATOM      1  C   UNL     1      17.123  36.785  56.023  0.00  0.00    +0.000 C 
ATOM      2  C   UNL     1      17.920  36.365  54.818  0.00  0.00    +0.000 A 
ATOM      3  C   UNL     1      18.929  35.402  54.978  0.00  0.00    +0.000 A 
ATOM      4  C   UNL     1      19.737  34.955  53.907  0.00  0.00    +0.000 A 
ATOM      5  C   UNL     1      19.479  35.459  52.613  0.00  0.00    +0.000 A 
ATOM      6  C   UNL     1      18.469  36.436  52.462  0.00  0.00    +0.000 A 
ATOM      7  C   UNL     1      17.696  36.886  53.540  0.00  0.00    +0.000 A 
ATOM      8  C   UNL     1      20.277  35.007  51.381  0.00  0.00    +0.000 C 
ATOM      9  C   UNL     1      21.231  36.149  50.965  0.00  0.00    +0.000 C 
ATOM     10  C   UNL     1      19.353  34.684  50.181  0.00  0.00    +0.000 C 
ATOM     11  C   UNL     1      21.087  33.723  51.664  0.00  0.00    +0.000 C 
ATOM     12  C   UNL     1      21.812  33.789  52.996  0.00  0.00    +0.000 C 
ATOM     13  C   UNL     1      20.830  33.910  54.182  0.00  0.00    +0.000 C 
ATOM     14  C   UNL     1      21.683  34.282  55.419  0.00  0.00    +0.000 C 
ATOM     15  C   UNL     1      20.155  32.546  54.450  0.00  0.00    +0.000 C 
ENDROOT
BRANCH   7  16
ATOM     16  C   UNL     1      16.650  37.904  53.287  0.00  0.00    +0.000 C 
ATOM     17  N   UNL     1      15.380  37.649  53.282  0.00  0.00    +0.000 NA
ATOM     18  O   UNL     1      14.715  38.875  53.035  0.00  0.00    +0.000 OA
ATOM     19  C   UNL     1      15.679  39.785  52.483  0.00  0.00    +0.000 C 
ATOM     20  C   UNL     1      16.997  39.340  53.079  0.00  0.00    +0.000 C 
BRANCH  19  21
ATOM     21  C   UNL     1      15.356  41.229  52.798  0.00  0.00    +0.000 A 
ATOM     22  C   UNL     1      14.047  41.585  53.160  0.00  0.00    +0.000 A 
ATOM     23  C   UNL     1      13.720  42.917  53.433  0.00  0.00    +0.000 A 
ATOM     24  C   UNL     1      14.699  43.913  53.343  0.00  0.00    +0.000 A 
ATOM     25  C   UNL     1      16.003  43.567  52.978  0.00  0.00    +0.000 A 
ATOM     26  C   UNL     1      16.328  42.236  52.705  0.00  0.00    +0.000 A 
BRANCH  24  27
ATOM     27  C   UNL     1      14.400  45.339  53.622  0.00  0.00    +0.000 C 
ATOM     28  O   UNL     1      13.291  45.823  53.752  0.00  0.00    +0.000 OA
BRANCH  27  29
ATOM     29  O   UNL     1      15.506  46.095  53.728  0.00  0.00    +0.000 OA
ATOM     30  H   UNL     1      15.521  46.603  52.890  0.00  0.00    +0.000 HD
ENDBRANCH  27  29
ENDBRANCH  24  27
ENDBRANCH  19  21
ENDBRANCH   7  16
TORSDOF 4
ENDMDL
MODEL 2
REMARK VINA RESULT:    -6.634      8.978     14.892
REMARK INTER + INTRA:          -8.543
REMARK INTER:                  -8.101
REMARK INTRA:                  -0.441
REMARK UNBOUND:                -0.551
REMARK  Name = 
REMARK  9 active torsions:
REMARK  status: ('A' for Active; 'I' for Inactive)
REMARK    1  A    between atoms: C_1  and  C_2
REMARK    2  A    between atoms: C_7  and  C_8
REMARK    3  A    between atoms: C_11  and  C_12
REMARK    4  A    between atoms: C_15  and  C_16
REMARK    5  A    between atoms: C_16  and  O_18
REMARK    6  A    between atoms: C_22  and  C_23
REMARK    7  A    between atoms: C_22  and  C_24
REMARK    8  A    between atoms: C_27  and  C_28
REMARK    9  A    between atoms: C_27  and  C_29
REMARK                            x       y       z     vdW  Elec       q    Type
REMARK                         _______ _______ _______ _____ _____    ______ ____
ROOT
ATOM      1  C   UNL     1      11.269  47.120  46.783  0.00  0.00    +0.000 C 
ATOM      2  C   UNL     1      12.274  48.098  46.237  0.00  0.00    +0.000 A 
ATOM      3  C   UNL     1      12.172  49.449  46.604  0.00  0.00    +0.000 A 
ATOM      4  C   UNL     1      13.062  50.440  46.132  0.00  0.00    +0.000 A 
ATOM      5  C   UNL     1      14.131  50.044  45.299  0.00  0.00    +0.000 A 
ATOM      6  C   UNL     1      14.222  48.685  44.924  0.00  0.00    +0.000 A 
ATOM      7  C   UNL     1      13.314  47.720  45.381  0.00  0.00    +0.000 A 
ATOM      8  C   UNL     1      15.171  51.040  44.765  0.00  0.00    +0.000 C 
ATOM      9  C   UNL     1      14.901  51.279  43.263  0.00  0.00    +0.000 C 
ATOM     10  C   UNL     1      16.616  50.506  44.920  0.00  0.00    +0.000 C 
ATOM     11  C   UNL     1      15.120  52.383  45.527  0.00  0.00    +0.000 C 
ATOM     12  C   UNL     1      13.696  52.874  45.720  0.00  0.00    +0.000 C 
ATOM     13  C   UNL     1      12.859  51.898  46.576  0.00  0.00    +0.000 C 
ATOM     14  C   UNL     1      11.385  52.344  46.431  0.00  0.00    +0.000 C 
ATOM     15  C   UNL     1      13.261  52.023  48.063  0.00  0.00    +0.000 C 
ENDROOT
BRANCH   7  16
ATOM     16  C   UNL     1      13.492  46.315  44.947  0.00  0.00    +0.000 C 
ATOM     17  N   UNL     1      13.425  45.926  43.714  0.00  0.00    +0.000 NA
ATOM     18  O   UNL     1      13.676  44.532  43.707  0.00  0.00    +0.000 OA
ATOM     19  C   UNL     1      13.483  44.052  45.047  0.00  0.00    +0.000 C 
ATOM     20  C   UNL     1      13.831  45.237  45.922  0.00  0.00    +0.000 C 
BRANCH  19  21
ATOM     21  C   UNL     1      14.328  42.835  45.351  0.00  0.00    +0.000 A 
ATOM     22  C   UNL     1      15.132  42.278  44.345  0.00  0.00    +0.000 A 
ATOM     23  C   UNL     1      15.903  41.139  44.598  0.00  0.00    +0.000 A 
ATOM     24  C   UNL     1      15.876  40.539  45.862  0.00  0.00    +0.000 A 
ATOM     25  C   UNL     1      15.074  41.084  46.867  0.00  0.00    +0.000 A 
ATOM     26  C   UNL     1      14.303  42.222  46.613  0.00  0.00    +0.000 A 
BRANCH  24  27
ATOM     27  C   UNL     1      16.676  39.329  46.176  0.00  0.00    +0.000 C 
ATOM     28  O   UNL     1      17.046  38.490  45.376  0.00  0.00    +0.000 OA
BRANCH  27  29
ATOM     29  O   UNL     1      16.979  39.228  47.482  0.00  0.00    +0.000 OA
ATOM     30  H   UNL     1      16.271  38.654  47.841  0.00  0.00    +0.000 HD
ENDBRANCH  27  29
ENDBRANCH  24  27
ENDBRANCH  19  21
ENDBRANCH   7  16
TORSDOF 4
ENDMDL
MODEL 3
REMARK VINA RESULT:    -6.436      2.345      3.525
REMARK INTER + INTRA:          -8.305
REMARK INTER:                  -7.753
REMARK INTRA:                  -0.551
REMARK UNBOUND:                -0.551
REMARK  Name = 
REMARK  9 active torsions:
REMARK  status: ('A' for Active; 'I' for Inactive)
REMARK    1  A    between atoms: C_1  and  C_2
REMARK    2  A    between atoms: C_7  and  C_8
REMARK    3  A    between atoms: C_11  and  C_12
REMARK    4  A    between atoms: C_15  and  C_16
REMARK    5  A    between atoms: C_16  and  O_18
REMARK    6  A    between atoms: C_22  and  C_23
REMARK    7  A    between atoms: C_22  and  C_24
REMARK    8  A    between atoms: C_27  and  C_28
REMARK    9  A    between atoms: C_27  and  C_29
REMARK                            x       y       z     vdW  Elec       q    Type
REMARK                         _______ _______ _______ _____ _____    ______ ____
ROOT
ATOM      1  C   UNL     1      19.579  34.722  53.939  0.00  0.00    +0.000 C 
ATOM      2  C   UNL     1      20.522  34.691  52.767  0.00  0.00    +0.000 A 
ATOM      3  C   UNL     1      21.679  33.900  52.851  0.00  0.00    +0.000 A 
ATOM      4  C   UNL     1      22.628  33.818  51.806  0.00  0.00    +0.000 A 
ATOM      5  C   UNL     1      22.372  34.519  50.607  0.00  0.00    +0.000 A 
ATOM      6  C   UNL     1      21.211  35.322  50.534  0.00  0.00    +0.000 A 
ATOM      7  C   UNL     1      20.295  35.411  51.590  0.00  0.00    +0.000 A 
ATOM      8  C   UNL     1      23.323  34.464  49.403  0.00  0.00    +0.000 C 
ATOM      9  C   UNL     1      24.076  35.810  49.305  0.00  0.00    +0.000 C 
ATOM     10  C   UNL     1      22.562  34.236  48.075  0.00  0.00    +0.000 C 
ATOM     11  C   UNL     1      24.336  33.304  49.527  0.00  0.00    +0.000 C 
ATOM     12  C   UNL     1      24.941  33.224  50.918  0.00  0.00    +0.000 C 
ATOM     13  C   UNL     1      23.874  32.939  51.997  0.00  0.00    +0.000 C 
ATOM     14  C   UNL     1      24.555  33.195  53.362  0.00  0.00    +0.000 C 
ATOM     15  C   UNL     1      23.447  31.455  51.937  0.00  0.00    +0.000 C 
ENDROOT
BRANCH   7  16
ATOM     16  C   UNL     1      19.098  36.268  51.422  0.00  0.00    +0.000 C 
ATOM     17  N   UNL     1      17.898  35.809  51.261  0.00  0.00    +0.000 NA
ATOM     18  O   UNL     1      17.037  36.930  51.166  0.00  0.00    +0.000 OA
ATOM     19  C   UNL     1      17.851  38.074  50.864  0.00  0.00    +0.000 C 
ATOM     20  C   UNL     1      19.191  37.756  51.490  0.00  0.00    +0.000 C 
BRANCH  19  21
ATOM     21  C   UNL     1      17.254  39.361  51.389  0.00  0.00    +0.000 A 
ATOM     22  C   UNL     1      17.873  40.029  52.458  0.00  0.00    +0.000 A 
ATOM     23  C   UNL     1      17.326  41.208  52.975  0.00  0.00    +0.000 A 
ATOM     24  C   UNL     1      16.147  41.732  52.432  0.00  0.00    +0.000 A 
ATOM     25  C   UNL     1      15.522  41.070  51.371  0.00  0.00    +0.000 A 
ATOM     26  C   UNL     1      16.070  39.892  50.856  0.00  0.00    +0.000 A 
BRANCH  24  27
ATOM     27  C   UNL     1      15.529  42.978  52.947  0.00  0.00    +0.000 C 
ATOM     28  O   UNL     1      14.380  43.099  53.331  0.00  0.00    +0.000 OA
BRANCH  27  29
ATOM     29  O   UNL     1      16.381  44.018  52.962  0.00  0.00    +0.000 OA
ATOM     30  H   UNL     1      17.256  43.599  53.095  0.00  0.00    +0.000 HD
ENDBRANCH  27  29
ENDBRANCH  24  27
ENDBRANCH  19  21
ENDBRANCH   7  16
TORSDOF 4
ENDMDL
