MODEL 1
REMARK VINA RESULT:    -6.852      0.000      0.000
REMARK INTER + INTRA:          -8.926
REMARK INTER:                  -8.533
REMARK INTRA:                  -0.393
REMARK UNBOUND:                -0.471
REMARK  Name = 
REMARK  5 active torsions:
REMARK  status: ('A' for Active; 'I' for Inactive)
REMARK    1  A    between atoms: C_1  and  O_2
REMARK    2  A    between atoms: O_2  and  C_3
REMARK    3  A    between atoms: C_8  and  C_9
REMARK    4  A    between atoms: N_16  and  C_17
REMARK    5  A    between atoms: C_21  and  C_22
REMARK                            x       y       z     vdW  Elec       q    Type
REMARK                         _______ _______ _______ _____ _____    ______ ____
ROOT
ATOM      1  C   UNL     1      17.039  38.155  45.003  0.00  0.00    +0.000 A 
ATOM      2  C   UNL     1      16.984  38.779  43.752  0.00  0.00    +0.000 A 
ATOM      3  C   UNL     1      16.472  40.067  43.666  0.00  0.00    +0.000 A 
ATOM      4  C   UNL     1      16.011  40.745  44.791  0.00  0.00    +0.000 A 
ATOM      5  C   UNL     1      16.057  40.142  46.035  0.00  0.00    +0.000 A 
ATOM      6  C   UNL     1      16.575  38.835  46.151  0.00  0.00    +0.000 A 
ATOM      7  N   UNL     1      15.551  42.031  44.434  0.00  0.00    +0.000 N 
ATOM      8  C   UNL     1      14.959  42.945  45.304  0.00  0.00    +0.000 C 
ATOM      9  O   UNL     1      14.721  42.691  46.482  0.00  0.00    +0.000 OA
ATOM     10  N   UNL     1      14.663  44.161  44.710  0.00  0.00    +0.000 N 
ATOM     11  C   UNL     1      15.774  42.208  42.988  0.00  0.00    +0.000 C 
ATOM     12  C   UNL     1      16.306  40.885  42.427  0.00  0.00    +0.000 C 
ATOM     13  H   UNL     1      15.093  44.342  43.819  0.00  0.00    +0.000 HD
ENDROOT
BRANCH  10  14
ATOM     14  C   UNL     1      13.962  45.253  45.267  0.00  0.00    +0.000 A 
ATOM     15  C   UNL     1      12.793  45.132  46.015  0.00  0.00    +0.000 A 
ATOM     16  C   UNL     1      12.156  46.270  46.510  0.00  0.00    +0.000 A 
ATOM     17  C   UNL     1      12.683  47.540  46.261  0.00  0.00    +0.000 A 
ATOM     18  C   UNL     1      13.861  47.702  45.515  0.00  0.00    +0.000 A 
ATOM     19  C   UNL     1      14.477  46.534  45.020  0.00  0.00    +0.000 A 
BRANCH  18  20
ATOM     20  C   UNL     1      14.446  49.034  45.237  0.00  0.00    +0.000 A 
ATOM     21  C   UNL     1      13.686  50.204  45.189  0.00  0.00    +0.000 A 
ATOM     22  C   UNL     1      14.313  51.419  44.919  0.00  0.00    +0.000 A 
ATOM     23  C   UNL     1      15.684  51.445  44.705  0.00  0.00    +0.000 A 
ATOM     24  C   UNL     1      16.373  50.248  44.778  0.00  0.00    +0.000 A 
ATOM     25  N   UNL     1      15.791  49.057  45.042  0.00  0.00    +0.000 NA
ENDBRANCH  18  20
ENDBRANCH  10  14
BRANCH   6  26
ATOM     26  C   UNL     1      16.632  38.168  47.504  0.00  0.00    +0.000 C 
ATOM     27  F   UNL     1      16.198  38.972  48.516  0.00  0.00    +0.000 F 
ATOM     28  F   UNL     1      17.887  37.762  47.851  0.00  0.00    +0.000 F 
ATOM     29  F   UNL     1      15.860  37.045  47.588  0.00  0.00    +0.000 F 
ENDBRANCH   6  26
BRANCH   1  31
ATOM     30  C   UNL     1      18.868  36.624  44.844  0.00  0.00    +0.000 C 
ATOM     31  O   UNL     1      17.522  36.892  45.218  0.00  0.00    +0.000 OA
ENDBRANCH   1  31
TORSDOF 4
ENDMDL
MODEL 2
REMARK VINA RESULT:    -6.647      4.343     10.114
REMARK INTER + INTRA:          -8.672
REMARK INTER:                  -8.328
REMARK INTRA:                  -0.345
REMARK UNBOUND:                -0.471
REMARK  Name = 
REMARK  5 active torsions:
REMARK  status: ('A' for Active; 'I' for Inactive)
REMARK    1  A    between atoms: C_1  and  O_2
REMARK    2  A    between atoms: O_2  and  C_3
REMARK    3  A    between atoms: C_8  and  C_9
REMARK    4  A    between atoms: N_16  and  C_17
REMARK    5  A    between atoms: C_21  and  C_22
REMARK                            x       y       z     vdW  Elec       q    Type
REMARK                         _______ _______ _______ _____ _____    ______ ____
ROOT
ATOM      1  C   UNL     1      12.642  49.187  46.041  0.00  0.00    +0.000 A 
ATOM      2  C   UNL     1      11.791  48.228  46.602  0.00  0.00    +0.000 A 
ATOM      3  C   UNL     1      12.115  46.884  46.470  0.00  0.00    +0.000 A 
ATOM      4  C   UNL     1      13.259  46.473  45.790  0.00  0.00    +0.000 A 
ATOM      5  C   UNL     1      14.109  47.408  45.227  0.00  0.00    +0.000 A 
ATOM      6  C   UNL     1      13.805  48.781  45.350  0.00  0.00    +0.000 A 
ATOM      7  N   UNL     1      13.358  45.065  45.804  0.00  0.00    +0.000 N 
ATOM      8  C   UNL     1      14.341  44.320  45.157  0.00  0.00    +0.000 C 
ATOM      9  O   UNL     1      15.204  44.826  44.444  0.00  0.00    +0.000 OA
ATOM     10  N   UNL     1      14.247  42.958  45.392  0.00  0.00    +0.000 N 
ATOM     11  C   UNL     1      12.225  44.538  46.587  0.00  0.00    +0.000 C 
ATOM     12  C   UNL     1      11.328  45.719  46.971  0.00  0.00    +0.000 C 
ATOM     13  H   UNL     1      13.655  42.673  46.153  0.00  0.00    +0.000 HD
ENDROOT
BRANCH  10  14
ATOM     14  C   UNL     1      15.002  41.920  44.803  0.00  0.00    +0.000 A 
ATOM     15  C   UNL     1      15.227  41.796  43.434  0.00  0.00    +0.000 A 
ATOM     16  C   UNL     1      15.970  40.724  42.940  0.00  0.00    +0.000 A 
ATOM     17  C   UNL     1      16.496  39.766  43.811  0.00  0.00    +0.000 A 
ATOM     18  C   UNL     1      16.295  39.859  45.197  0.00  0.00    +0.000 A 
ATOM     19  C   UNL     1      15.531  40.949  45.666  0.00  0.00    +0.000 A 
BRANCH  18  20
ATOM     20  C   UNL     1      16.841  38.863  46.146  0.00  0.00    +0.000 A 
ATOM     21  C   UNL     1      17.644  37.793  45.747  0.00  0.00    +0.000 A 
ATOM     22  C   UNL     1      18.117  36.896  46.704  0.00  0.00    +0.000 A 
ATOM     23  C   UNL     1      17.784  37.085  48.037  0.00  0.00    +0.000 A 
ATOM     24  C   UNL     1      16.993  38.172  48.359  0.00  0.00    +0.000 A 
ATOM     25  N   UNL     1      16.524  39.059  47.453  0.00  0.00    +0.000 NA
ENDBRANCH  18  20
ENDBRANCH  10  14
BRANCH   6  26
ATOM     26  C   UNL     1      14.727  49.810  44.741  0.00  0.00    +0.000 C 
ATOM     27  F   UNL     1      14.958  50.874  45.561  0.00  0.00    +0.000 F 
ATOM     28  F   UNL     1      14.257  50.326  43.570  0.00  0.00    +0.000 F 
ATOM     29  F   UNL     1      15.965  49.317  44.441  0.00  0.00    +0.000 F 
ENDBRANCH   6  26
BRANCH   1  31
ATOM     30  C   UNL     1      12.109  51.101  47.370  0.00  0.00    +0.000 C 
ATOM     31  O   UNL     1      12.434  50.539  46.104  0.00  0.00    +0.000 OA
ENDBRANCH   1  31
TORSDOF 4
ENDMDL
MODEL 3
REMARK VINA RESULT:    -6.252      4.276      9.781
REMARK INTER + INTRA:          -8.186
REMARK INTER:                  -7.715
REMARK INTRA:                  -0.471
REMARK UNBOUND:                -0.471
REMARK  Name = 
REMARK  5 active torsions:
REMARK  status: ('A' for Active; 'I' for Inactive)
REMARK    1  A    between atoms: C_1  and  O_2
REMARK    2  A    between atoms: O_2  and  C_3
REMARK    3  A    between atoms: C_8  and  C_9
REMARK    4  A    between atoms: N_16  and  C_17
REMARK    5  A    between atoms: C_21  and  C_22
REMARK                            x       y       z     vdW  Elec       q    Type
REMARK                         _______ _______ _______ _____ _____    ______ ____
ROOT
ATOM      1  C   UNL     1      15.085  43.365  42.805  0.00  0.00    +0.000 A 
ATOM      2  C   UNL     1      15.730  42.249  42.262  0.00  0.00    +0.000 A 
ATOM      3  C   UNL     1      16.012  41.169  43.089  0.00  0.00    +0.000 A 
ATOM      4  C   UNL     1      15.671  41.176  44.440  0.00  0.00    +0.000 A 
ATOM      5  C   UNL     1      15.035  42.273  44.992  0.00  0.00    +0.000 A 
ATOM      6  C   UNL     1      14.734  43.383  44.173  0.00  0.00    +0.000 A 
ATOM      7  N   UNL     1      16.060  39.964  45.049  0.00  0.00    +0.000 N 
ATOM      8  C   UNL     1      15.934  39.667  46.405  0.00  0.00    +0.000 C 
ATOM      9  O   UNL     1      15.517  40.475  47.231  0.00  0.00    +0.000 OA
ATOM     10  N   UNL     1      16.329  38.380  46.728  0.00  0.00    +0.000 N 
ATOM     11  C   UNL     1      16.649  39.101  44.010  0.00  0.00    +0.000 C 
ATOM     12  C   UNL     1      16.713  39.907  42.708  0.00  0.00    +0.000 C 
ATOM     13  H   UNL     1      16.441  37.739  45.962  0.00  0.00    +0.000 HD
ENDROOT
BRANCH  10  14
ATOM     14  C   UNL     1      16.440  37.801  48.011  0.00  0.00    +0.000 A 
ATOM     15  C   UNL     1      15.375  37.649  48.896  0.00  0.00    +0.000 A 
ATOM     16  C   UNL     1      15.583  37.083  50.154  0.00  0.00    +0.000 A 
ATOM     17  C   UNL     1      16.859  36.662  50.538  0.00  0.00    +0.000 A 
ATOM     18  C   UNL     1      17.956  36.794  49.673  0.00  0.00    +0.000 A 
ATOM     19  C   UNL     1      17.716  37.379  48.412  0.00  0.00    +0.000 A 
BRANCH  18  20
ATOM     20  C   UNL     1      19.319  36.355  50.050  0.00  0.00    +0.000 A 
ATOM     21  C   UNL     1      19.936  36.729  51.245  0.00  0.00    +0.000 A 
ATOM     22  C   UNL     1      21.224  36.275  51.524  0.00  0.00    +0.000 A 
ATOM     23  C   UNL     1      21.869  35.455  50.610  0.00  0.00    +0.000 A 
ATOM     24  C   UNL     1      21.192  35.118  49.452  0.00  0.00    +0.000 A 
ATOM     25  N   UNL     1      19.943  35.541  49.158  0.00  0.00    +0.000 NA
ENDBRANCH  18  20
ENDBRANCH  10  14
BRANCH   6  26
ATOM     26  C   UNL     1      14.037  44.584  44.765  0.00  0.00    +0.000 C 
ATOM     27  F   UNL     1      12.811  44.817  44.217  0.00  0.00    +0.000 F 
ATOM     28  F   UNL     1      14.746  45.740  44.621  0.00  0.00    +0.000 F 
ATOM     29  F   UNL     1      13.810  44.472  46.107  0.00  0.00    +0.000 F 
ENDBRANCH   6  26
BRANCH   1  31
ATOM     30  C   UNL     1      14.268  44.316  40.769  0.00  0.00    +0.000 C 
ATOM     31  O   UNL     1      14.752  44.489  42.095  0.00  0.00    +0.000 OA
ENDBRANCH   1  31
TORSDOF 4
ENDMDL
