MODEL 1
REMARK VINA RESULT:    -5.941      0.000      0.000
REMARK INTER + INTRA:          -7.774
REMARK INTER:                  -7.529
REMARK INTRA:                  -0.244
REMARK UNBOUND:                -0.443
REMARK  Name = 
REMARK  4 active torsions:
REMARK  status: ('A' for Active; 'I' for Inactive)
REMARK    1  A    between atoms: C_2  and  C_3
REMARK    2  A    between atoms: C_7  and  C_8
REMARK    3  A    between atoms: N_13  and  S_14
REMARK    4  A    between atoms: S_14  and  C_17
REMARK                            x       y       z     vdW  Elec       q    Type
REMARK                         _______ _______ _______ _____ _____    ______ ____
ROOT
ATOM      1  C   UNL     1      13.419  49.476  44.253  0.00  0.00    +0.000 C 
ATOM      2  O   UNL     1      12.438  49.988  43.720  0.00  0.00    +0.000 OA
ATOM      3  N   UNL     1      13.595  48.102  44.372  0.00  0.00    +0.000 N 
ATOM      4  C   UNL     1      12.598  47.222  43.760  0.00  0.00    +0.000 C 
ATOM      5  C   UNL     1      13.159  45.825  43.482  0.00  0.00    +0.000 C 
ATOM      6  N   UNL     1      13.693  45.156  44.721  0.00  0.00    +0.000 NA
ATOM      7  C   UNL     1      14.052  46.120  45.814  0.00  0.00    +0.000 C 
ATOM      8  C   UNL     1      14.574  47.450  45.252  0.00  0.00    +0.000 C 
ENDROOT
BRANCH   1  13
ATOM      9  C   UNL     1      16.694  51.304  44.728  0.00  0.00    +0.000 A 
ATOM     10  C   UNL     1      16.363  52.152  45.794  0.00  0.00    +0.000 A 
ATOM     11  C   UNL     1      15.077  52.129  46.339  0.00  0.00    +0.000 A 
ATOM     12  C   UNL     1      14.121  51.250  45.831  0.00  0.00    +0.000 A 
ATOM     13  C   UNL     1      14.460  50.382  44.787  0.00  0.00    +0.000 A 
ATOM     14  C   UNL     1      15.737  50.421  44.219  0.00  0.00    +0.000 A 
BRANCH   9  16
ATOM     15  N   UNL     1      19.074  51.360  43.700  0.00  0.00    +0.000 NA
ATOM     16  C   UNL     1      18.010  51.342  44.161  0.00  0.00    +0.000 C 
ENDBRANCH   9  16
ENDBRANCH   1  13
BRANCH   6  17
ATOM     17  S   UNL     1      12.755  43.815  45.223  0.00  0.00    +0.000 S 
ATOM     18  O   UNL     1      11.859  43.456  44.144  0.00  0.00    +0.000 OA
ATOM     19  O   UNL     1      12.240  44.144  46.536  0.00  0.00    +0.000 OA
BRANCH  17  20
ATOM     20  C   UNL     1      13.957  42.510  45.389  0.00  0.00    +0.000 A 
ATOM     21  C   UNL     1      14.152  41.979  46.674  0.00  0.00    +0.000 A 
ATOM     22  C   UNL     1      15.094  40.977  46.879  0.00  0.00    +0.000 A 
ATOM     23  C   UNL     1      15.845  40.508  45.805  0.00  0.00    +0.000 A 
ATOM     24  C   UNL     1      15.657  41.027  44.512  0.00  0.00    +0.000 A 
ATOM     25  C   UNL     1      16.413  40.559  43.433  0.00  0.00    +0.000 A 
ATOM     26  N   UNL     1      16.298  41.001  42.161  0.00  0.00    +0.000 NA
ATOM     27  C   UNL     1      15.372  41.949  41.940  0.00  0.00    +0.000 A 
ATOM     28  C   UNL     1      14.569  42.487  42.935  0.00  0.00    +0.000 A 
ATOM     29  C   UNL     1      14.699  42.037  44.271  0.00  0.00    +0.000 A 
ENDBRANCH  17  20
ENDBRANCH   6  17
TORSDOF 4
ENDMDL
MODEL 2
REMARK VINA RESULT:    -5.722      6.145      8.885
REMARK INTER + INTRA:          -7.504
REMARK INTER:                  -7.793
REMARK INTRA:                   0.290
REMARK UNBOUND:                -0.443
REMARK  Name = 
REMARK  4 active torsions:
REMARK  status: ('A' for Active; 'I' for Inactive)
REMARK    1  A    between atoms: C_2  and  C_3
REMARK    2  A    between atoms: C_7  and  C_8
REMARK    3  A    between atoms: N_13  and  S_14
REMARK    4  A    between atoms: S_14  and  C_17
REMARK                            x       y       z     vdW  Elec       q    Type
REMARK                         _______ _______ _______ _____ _____    ______ ____
ROOT
ATOM      1  C   UNL     1      16.452  40.052  43.520  0.00  0.00    +0.000 C 
ATOM      2  O   UNL     1      16.862  39.168  42.772  0.00  0.00    +0.000 OA
ATOM      3  N   UNL     1      16.387  39.917  44.902  0.00  0.00    +0.000 N 
ATOM      4  C   UNL     1      16.912  38.687  45.501  0.00  0.00    +0.000 C 
ATOM      5  C   UNL     1      17.285  38.879  46.973  0.00  0.00    +0.000 C 
ATOM      6  N   UNL     1      16.128  39.363  47.807  0.00  0.00    +0.000 NA
ATOM      7  C   UNL     1      15.056  40.042  47.007  0.00  0.00    +0.000 C 
ATOM      8  C   UNL     1      15.636  40.799  45.803  0.00  0.00    +0.000 C 
ENDROOT
BRANCH   1  13
ATOM      9  C   UNL     1      14.786  42.537  41.208  0.00  0.00    +0.000 A 
ATOM     10  C   UNL     1      15.152  43.743  41.819  0.00  0.00    +0.000 A 
ATOM     11  C   UNL     1      15.927  43.736  42.982  0.00  0.00    +0.000 A 
ATOM     12  C   UNL     1      16.349  42.525  43.530  0.00  0.00    +0.000 A 
ATOM     13  C   UNL     1      16.009  41.323  42.903  0.00  0.00    +0.000 A 
ATOM     14  C   UNL     1      15.210  41.322  41.755  0.00  0.00    +0.000 A 
BRANCH   9  16
ATOM     15  N   UNL     1      13.334  42.553  39.059  0.00  0.00    +0.000 NA
ATOM     16  C   UNL     1      13.978  42.547  40.024  0.00  0.00    +0.000 C 
ENDBRANCH   9  16
ENDBRANCH   1  13
BRANCH   6  17
ATOM     17  S   UNL     1      15.564  38.194  48.923  0.00  0.00    +0.000 S 
ATOM     18  O   UNL     1      15.542  36.906  48.263  0.00  0.00    +0.000 OA
ATOM     19  O   UNL     1      14.362  38.743  49.517  0.00  0.00    +0.000 OA
BRANCH  17  20
ATOM     20  C   UNL     1      16.846  38.151  50.160  0.00  0.00    +0.000 A 
ATOM     21  C   UNL     1      17.729  37.060  50.130  0.00  0.00    +0.000 A 
ATOM     22  C   UNL     1      18.735  36.951  51.082  0.00  0.00    +0.000 A 
ATOM     23  C   UNL     1      18.860  37.925  52.068  0.00  0.00    +0.000 A 
ATOM     24  C   UNL     1      17.986  39.027  52.107  0.00  0.00    +0.000 A 
ATOM     25  C   UNL     1      18.108  40.006  53.098  0.00  0.00    +0.000 A 
ATOM     26  N   UNL     1      17.314  41.092  53.211  0.00  0.00    +0.000 NA
ATOM     27  C   UNL     1      16.353  41.229  52.280  0.00  0.00    +0.000 A 
ATOM     28  C   UNL     1      16.141  40.319  51.256  0.00  0.00    +0.000 A 
ATOM     29  C   UNL     1      16.961  39.171  51.145  0.00  0.00    +0.000 A 
ENDBRANCH  17  20
ENDBRANCH   6  17
TORSDOF 4
ENDMDL
MODEL 3
REMARK VINA RESULT:    -5.673      6.093     10.060
REMARK INTER + INTRA:          -7.443
REMARK INTER:                  -7.000
REMARK INTRA:                  -0.443
REMARK UNBOUND:                -0.443
REMARK  Name = 
REMARK  4 active torsions:
REMARK  status: ('A' for Active; 'I' for Inactive)
REMARK    1  A    between atoms: C_2  and  C_3
REMARK    2  A    between atoms: C_7  and  C_8
REMARK    3  A    between atoms: N_13  and  S_14
REMARK    4  A    between atoms: S_14  and  C_17
REMARK                            x       y       z     vdW  Elec       q    Type
REMARK                         _______ _______ _______ _____ _____    ______ ____
ROOT
ATOM      1  C   UNL     1      15.970  37.244  49.032  0.00  0.00    +0.000 C 
ATOM      2  O   UNL     1      15.121  36.396  49.292  0.00  0.00    +0.000 OA
ATOM      3  N   UNL     1      15.911  38.068  47.914  0.00  0.00    +0.000 N 
ATOM      4  C   UNL     1      14.734  37.972  47.047  0.00  0.00    +0.000 C 
ATOM      5  C   UNL     1      14.527  39.243  46.219  0.00  0.00    +0.000 C 
ATOM      6  N   UNL     1      15.722  39.585  45.369  0.00  0.00    +0.000 NA
ATOM      7  C   UNL     1      17.001  38.977  45.864  0.00  0.00    +0.000 C 
ATOM      8  C   UNL     1      17.027  38.869  47.395  0.00  0.00    +0.000 C 
ENDROOT
BRANCH   1  13
ATOM      9  C   UNL     1      18.200  38.503  51.813  0.00  0.00    +0.000 A 
ATOM     10  C   UNL     1      19.244  37.572  51.748  0.00  0.00    +0.000 A 
ATOM     11  C   UNL     1      19.208  36.538  50.809  0.00  0.00    +0.000 A 
ATOM     12  C   UNL     1      18.135  36.439  49.923  0.00  0.00    +0.000 A 
ATOM     13  C   UNL     1      17.107  37.387  49.969  0.00  0.00    +0.000 A 
ATOM     14  C   UNL     1      17.124  38.407  50.925  0.00  0.00    +0.000 A 
BRANCH   9  16
ATOM     15  N   UNL     1      18.248  40.402  53.580  0.00  0.00    +0.000 NA
ATOM     16  C   UNL     1      18.233  39.554  52.789  0.00  0.00    +0.000 C 
ENDBRANCH   9  16
ENDBRANCH   1  13
BRANCH   6  17
ATOM     17  S   UNL     1      15.435  39.397  43.692  0.00  0.00    +0.000 S 
ATOM     18  O   UNL     1      14.088  38.900  43.513  0.00  0.00    +0.000 OA
ATOM     19  O   UNL     1      16.570  38.669  43.163  0.00  0.00    +0.000 OA
BRANCH  17  20
ATOM     20  C   UNL     1      15.487  41.068  43.074  0.00  0.00    +0.000 A 
ATOM     21  C   UNL     1      16.061  42.041  43.907  0.00  0.00    +0.000 A 
ATOM     22  C   UNL     1      16.109  43.368  43.497  0.00  0.00    +0.000 A 
ATOM     23  C   UNL     1      15.581  43.727  42.261  0.00  0.00    +0.000 A 
ATOM     24  C   UNL     1      15.007  42.762  41.414  0.00  0.00    +0.000 A 
ATOM     25  C   UNL     1      14.473  43.121  40.173  0.00  0.00    +0.000 A 
ATOM     26  N   UNL     1      13.903  42.262  39.300  0.00  0.00    +0.000 NA
ATOM     27  C   UNL     1      13.875  40.969  39.668  0.00  0.00    +0.000 A 
ATOM     28  C   UNL     1      14.372  40.502  40.875  0.00  0.00    +0.000 A 
ATOM     29  C   UNL     1      14.954  41.403  41.798  0.00  0.00    +0.000 A 
ENDBRANCH  17  20
ENDBRANCH   6  17
TORSDOF 4
ENDMDL
