MODEL 1
REMARK VINA RESULT:    -6.987      0.000      0.000
REMARK INTER + INTRA:          -9.187
REMARK INTER:                  -8.204
REMARK INTRA:                  -0.983
REMARK UNBOUND:                -0.975
REMARK  Name = 
REMARK  4 active torsions:
REMARK  status: ('A' for Active; 'I' for Inactive)
REMARK    1  A    between atoms: C_1  and  N_2
REMARK    2  A    between atoms: C_5  and  N_6
REMARK    3  A    between atoms: C_7  and  C_9
REMARK    4  A    between atoms: C_19  and  C_20
REMARK                            x       y       z     vdW  Elec       q    Type
REMARK                         _______ _______ _______ _____ _____    ______ ____
ROOT
ATOM      1  C   UNL     1      10.623  48.746  46.528  0.00  0.00    +0.000 C 
ATOM      2  N   UNL     1      11.788  48.659  45.659  0.00  0.00    +0.000 N 
ATOM      3  C   UNL     1      12.631  47.552  45.842  0.00  0.00    +0.000 C 
ATOM      4  O   UNL     1      12.496  46.778  46.797  0.00  0.00    +0.000 OA
ATOM      5  C   UNL     1      13.732  47.331  44.764  0.00  0.00    +0.000 C 
ATOM      6  N   UNL     1      14.764  48.333  44.985  0.00  0.00    +0.000 NA
ATOM      7  C   UNL     1      14.474  49.554  44.676  0.00  0.00    +0.000 C 
ATOM      8  C   UNL     1      13.181  49.981  44.062  0.00  0.00    +0.000 A 
ATOM      9  C   UNL     1      13.254  50.848  42.955  0.00  0.00    +0.000 A 
ATOM     10  C   UNL     1      12.096  51.376  42.392  0.00  0.00    +0.000 A 
ATOM     11  C   UNL     1      10.859  51.043  42.928  0.00  0.00    +0.000 A 
ATOM     12  C   UNL     1      10.779  50.163  44.012  0.00  0.00    +0.000 A 
ATOM     13  C   UNL     1      11.930  49.592  44.584  0.00  0.00    +0.000 A 
ENDROOT
BRANCH   7  14
ATOM     14  C   UNL     1      15.515  50.594  44.953  0.00  0.00    +0.000 A 
ATOM     15  C   UNL     1      15.272  51.644  45.848  0.00  0.00    +0.000 A 
ATOM     16  C   UNL     1      16.265  52.596  46.091  0.00  0.00    +0.000 A 
ATOM     17  C   UNL     1      17.501  52.499  45.451  0.00  0.00    +0.000 A 
ATOM     18  C   UNL     1      17.752  51.445  44.573  0.00  0.00    +0.000 A 
ATOM     19  C   UNL     1      16.764  50.490  44.327  0.00  0.00    +0.000 A 
ENDBRANCH   7  14
BRANCH   5  20
ATOM     20  N   UNL     1      14.374  46.060  44.957  0.00  0.00    +0.000 N 
ATOM     21  C   UNL     1      14.199  45.053  44.045  0.00  0.00    +0.000 C 
ATOM     22  O   UNL     1      13.663  45.233  42.955  0.00  0.00    +0.000 OA
ATOM     23  H   UNL     1      14.547  45.817  45.918  0.00  0.00    +0.000 HD
BRANCH  21  24
ATOM     24  C   UNL     1      14.685  43.755  44.456  0.00  0.00    +0.000 A 
ATOM     25  C   UNL     1      14.713  43.115  45.684  0.00  0.00    +0.000 A 
ATOM     26  C   UNL     1      15.318  41.837  45.513  0.00  0.00    +0.000 A 
ATOM     27  C   UNL     1      15.612  40.768  46.379  0.00  0.00    +0.000 A 
ATOM     28  C   UNL     1      16.230  39.622  45.867  0.00  0.00    +0.000 A 
ATOM     29  C   UNL     1      16.556  39.534  44.514  0.00  0.00    +0.000 A 
ATOM     30  C   UNL     1      16.274  40.585  43.635  0.00  0.00    +0.000 A 
ATOM     31  C   UNL     1      15.655  41.722  44.166  0.00  0.00    +0.000 A 
ATOM     32  N   UNL     1      15.265  42.889  43.555  0.00  0.00    +0.000 N 
ATOM     33  H   UNL     1      15.379  43.102  42.573  0.00  0.00    +0.000 HD
ENDBRANCH  21  24
ENDBRANCH   5  20
TORSDOF 3
ENDMDL
MODEL 2
REMARK VINA RESULT:    -6.819      2.280      9.613
REMARK INTER + INTRA:          -8.990
REMARK INTER:                  -8.015
REMARK INTRA:                  -0.975
REMARK UNBOUND:                -0.975
REMARK  Name = 
REMARK  4 active torsions:
REMARK  status: ('A' for Active; 'I' for Inactive)
REMARK    1  A    between atoms: C_1  and  N_2
REMARK    2  A    between atoms: C_5  and  N_6
REMARK    3  A    between atoms: C_7  and  C_9
REMARK    4  A    between atoms: C_19  and  C_20
REMARK                            x       y       z     vdW  Elec       q    Type
REMARK                         _______ _______ _______ _____ _____    ______ ____
ROOT
ATOM      1  C   UNL     1      16.850  40.591  42.341  0.00  0.00    +0.000 C 
ATOM      2  N   UNL     1      15.975  40.863  43.473  0.00  0.00    +0.000 N 
ATOM      3  C   UNL     1      15.973  42.177  43.968  0.00  0.00    +0.000 C 
ATOM      4  O   UNL     1      16.791  43.021  43.584  0.00  0.00    +0.000 OA
ATOM      5  C   UNL     1      14.870  42.525  45.009  0.00  0.00    +0.000 C 
ATOM      6  N   UNL     1      15.247  41.899  46.268  0.00  0.00    +0.000 NA
ATOM      7  C   UNL     1      15.141  40.613  46.340  0.00  0.00    +0.000 C 
ATOM      8  C   UNL     1      14.608  39.751  45.243  0.00  0.00    +0.000 A 
ATOM      9  C   UNL     1      13.657  38.776  45.599  0.00  0.00    +0.000 A 
ATOM     10  C   UNL     1      13.190  37.864  44.658  0.00  0.00    +0.000 A 
ATOM     11  C   UNL     1      13.669  37.918  43.355  0.00  0.00    +0.000 A 
ATOM     12  C   UNL     1      14.597  38.898  42.989  0.00  0.00    +0.000 A 
ATOM     13  C   UNL     1      15.064  39.851  43.913  0.00  0.00    +0.000 A 
ENDROOT
BRANCH   7  14
ATOM     14  C   UNL     1      15.580  39.962  47.616  0.00  0.00    +0.000 A 
ATOM     15  C   UNL     1      14.875  40.159  48.811  0.00  0.00    +0.000 A 
ATOM     16  C   UNL     1      15.304  39.535  49.984  0.00  0.00    +0.000 A 
ATOM     17  C   UNL     1      16.429  38.709  49.967  0.00  0.00    +0.000 A 
ATOM     18  C   UNL     1      17.123  38.498  48.776  0.00  0.00    +0.000 A 
ATOM     19  C   UNL     1      16.697  39.119  47.600  0.00  0.00    +0.000 A 
ENDBRANCH   7  14
BRANCH   5  20
ATOM     20  N   UNL     1      14.852  43.938  45.265  0.00  0.00    +0.000 N 
ATOM     21  C   UNL     1      13.698  44.551  45.677  0.00  0.00    +0.000 C 
ATOM     22  O   UNL     1      12.702  43.922  46.024  0.00  0.00    +0.000 OA
ATOM     23  H   UNL     1      15.519  44.471  44.732  0.00  0.00    +0.000 HD
BRANCH  21  24
ATOM     24  C   UNL     1      13.729  45.996  45.670  0.00  0.00    +0.000 A 
ATOM     25  C   UNL     1      12.797  46.952  46.038  0.00  0.00    +0.000 A 
ATOM     26  C   UNL     1      13.361  48.241  45.816  0.00  0.00    +0.000 A 
ATOM     27  C   UNL     1      12.900  49.557  45.998  0.00  0.00    +0.000 A 
ATOM     28  C   UNL     1      13.738  50.629  45.668  0.00  0.00    +0.000 A 
ATOM     29  C   UNL     1      15.016  50.401  45.161  0.00  0.00    +0.000 A 
ATOM     30  C   UNL     1      15.495  49.101  44.970  0.00  0.00    +0.000 A 
ATOM     31  C   UNL     1      14.644  48.044  45.307  0.00  0.00    +0.000 A 
ATOM     32  N   UNL     1      14.837  46.685  45.228  0.00  0.00    +0.000 N 
ATOM     33  H   UNL     1      15.677  46.233  44.893  0.00  0.00    +0.000 HD
ENDBRANCH  21  24
ENDBRANCH   5  20
TORSDOF 3
ENDMDL
MODEL 3
REMARK VINA RESULT:    -6.714      4.291      7.461
REMARK INTER + INTRA:          -8.867
REMARK INTER:                  -8.513
REMARK INTRA:                  -0.354
REMARK UNBOUND:                -0.975
REMARK  Name = 
REMARK  4 active torsions:
REMARK  status: ('A' for Active; 'I' for Inactive)
REMARK    1  A    between atoms: C_1  and  N_2
REMARK    2  A    between atoms: C_5  and  N_6
REMARK    3  A    between atoms: C_7  and  C_9
REMARK    4  A    between atoms: C_19  and  C_20
REMARK                            x       y       z     vdW  Elec       q    Type
REMARK                         _______ _______ _______ _____ _____    ______ ____
ROOT
ATOM      1  C   UNL     1      12.504  39.588  43.347  0.00  0.00    +0.000 C 
ATOM      2  N   UNL     1      13.498  40.507  43.885  0.00  0.00    +0.000 N 
ATOM      3  C   UNL     1      14.071  40.165  45.119  0.00  0.00    +0.000 C 
ATOM      4  O   UNL     1      13.642  39.227  45.803  0.00  0.00    +0.000 OA
ATOM      5  C   UNL     1      15.297  41.010  45.574  0.00  0.00    +0.000 C 
ATOM      6  N   UNL     1      14.794  42.306  46.006  0.00  0.00    +0.000 NA
ATOM      7  C   UNL     1      14.372  43.109  45.085  0.00  0.00    +0.000 C 
ATOM      8  C   UNL     1      14.423  42.811  43.623  0.00  0.00    +0.000 A 
ATOM      9  C   UNL     1      14.919  43.825  42.780  0.00  0.00    +0.000 A 
ATOM     10  C   UNL     1      14.901  43.668  41.398  0.00  0.00    +0.000 A 
ATOM     11  C   UNL     1      14.388  42.502  40.846  0.00  0.00    +0.000 A 
ATOM     12  C   UNL     1      13.915  41.482  41.678  0.00  0.00    +0.000 A 
ATOM     13  C   UNL     1      13.947  41.601  43.080  0.00  0.00    +0.000 A 
ENDROOT
BRANCH   7  14
ATOM     14  C   UNL     1      13.805  44.422  45.533  0.00  0.00    +0.000 A 
ATOM     15  C   UNL     1      14.439  45.631  45.220  0.00  0.00    +0.000 A 
ATOM     16  C   UNL     1      13.884  46.840  45.646  0.00  0.00    +0.000 A 
ATOM     17  C   UNL     1      12.693  46.846  46.374  0.00  0.00    +0.000 A 
ATOM     18  C   UNL     1      12.050  45.644  46.672  0.00  0.00    +0.000 A 
ATOM     19  C   UNL     1      12.601  44.434  46.248  0.00  0.00    +0.000 A 
ENDBRANCH   7  14
BRANCH   5  20
ATOM     20  N   UNL     1      15.908  40.422  46.733  0.00  0.00    +0.000 N 
ATOM     21  C   UNL     1      16.713  39.321  46.606  0.00  0.00    +0.000 C 
ATOM     22  O   UNL     1      17.100  38.907  45.517  0.00  0.00    +0.000 OA
ATOM     23  H   UNL     1      15.395  40.549  47.590  0.00  0.00    +0.000 HD
BRANCH  21  24
ATOM     24  C   UNL     1      17.074  38.673  47.847  0.00  0.00    +0.000 A 
ATOM     25  C   UNL     1      17.529  37.397  48.136  0.00  0.00    +0.000 A 
ATOM     26  C   UNL     1      17.724  37.296  49.543  0.00  0.00    +0.000 A 
ATOM     27  C   UNL     1      18.161  36.270  50.400  0.00  0.00    +0.000 A 
ATOM     28  C   UNL     1      18.238  36.513  51.777  0.00  0.00    +0.000 A 
ATOM     29  C   UNL     1      17.884  37.756  52.299  0.00  0.00    +0.000 A 
ATOM     30  C   UNL     1      17.446  38.790  51.466  0.00  0.00    +0.000 A 
ATOM     31  C   UNL     1      17.377  38.528  50.094  0.00  0.00    +0.000 A 
ATOM     32  N   UNL     1      16.988  39.336  49.052  0.00  0.00    +0.000 N 
ATOM     33  H   UNL     1      16.678  40.294  49.139  0.00  0.00    +0.000 HD
ENDBRANCH  21  24
ENDBRANCH   5  20
TORSDOF 3
ENDMDL
