MODEL 1
REMARK VINA RESULT:    -6.420      0.000      0.000
REMARK INTER + INTRA:          -7.021
REMARK INTER:                  -6.633
REMARK INTRA:                  -0.387
REMARK UNBOUND:                -0.225
REMARK  Name = 
REMARK  3 active torsions:
REMARK  status: ('A' for Active; 'I' for Inactive)
REMARK    1  A    between atoms: C_1  and  N_2
REMARK    2  A    between atoms: N_7  and  C_8
REMARK    3  A    between atoms: N_12  and  C_13
REMARK                            x       y       z     vdW  Elec       q    Type
REMARK                         _______ _______ _______ _____ _____    ______ ____
ROOT
ATOM      1  C   UNL     1      25.359  31.181  49.127  0.00  0.00    +0.000 C 
ATOM      2  N   UNL     1      24.540  31.859  50.114  0.00  0.00    +0.000 N 
ATOM      3  C   UNL     1      23.292  32.311  49.718  0.00  0.00    +0.000 A 
ATOM      4  O   UNL     1      22.865  32.104  48.588  0.00  0.00    +0.000 OA
ATOM      5  N   UNL     1      22.505  33.017  50.587  0.00  0.00    +0.000 NA
ATOM      6  C   UNL     1      22.836  33.281  51.814  0.00  0.00    +0.000 A 
ATOM      7  N   UNL     1      22.007  34.003  52.692  0.00  0.00    +0.000 N 
ATOM      8  C   UNL     1      22.402  34.065  54.071  0.00  0.00    +0.000 A 
ATOM      9  C   UNL     1      21.566  34.588  55.076  0.00  0.00    +0.000 A 
ATOM     10  C   UNL     1      21.977  34.624  56.412  0.00  0.00    +0.000 A 
ATOM     11  C   UNL     1      23.224  34.124  56.770  0.00  0.00    +0.000 A 
ATOM     12  C   UNL     1      24.053  33.578  55.794  0.00  0.00    +0.000 A 
ATOM     13  C   UNL     1      23.651  33.533  54.455  0.00  0.00    +0.000 A 
ATOM     14  N   UNL     1      24.535  32.940  53.544  0.00  0.00    +0.000 NA
ATOM     15  C   UNL     1      24.175  32.812  52.305  0.00  0.00    +0.000 A 
ATOM     16  C   UNL     1      25.121  32.180  51.323  0.00  0.00    +0.000 A 
ATOM     17  O   UNL     1      26.295  32.010  51.617  0.00  0.00    +0.000 OA
ENDROOT
BRANCH   7  18
ATOM     18  C   UNL     1      20.895  34.721  52.140  0.00  0.00    +0.000 A 
ATOM     19  C   UNL     1      21.048  36.022  51.647  0.00  0.00    +0.000 A 
ATOM     20  C   UNL     1      19.974  36.683  51.058  0.00  0.00    +0.000 A 
ATOM     21  C   UNL     1      18.750  36.035  50.952  0.00  0.00    +0.000 A 
ATOM     22  N   UNL     1      18.599  34.780  51.426  0.00  0.00    +0.000 N 
ATOM     23  C   UNL     1      17.311  34.080  51.276  0.00  0.00    +0.000 C 
ATOM     24  C   UNL     1      19.630  34.127  52.011  0.00  0.00    +0.000 A 
ENDBRANCH   7  18
TORSDOF 1
ENDMDL
MODEL 2
REMARK VINA RESULT:    -6.096      8.616     11.372
REMARK INTER + INTRA:          -6.677
REMARK INTER:                  -6.389
REMARK INTRA:                  -0.289
REMARK UNBOUND:                -0.225
REMARK  Name = 
REMARK  3 active torsions:
REMARK  status: ('A' for Active; 'I' for Inactive)
REMARK    1  A    between atoms: C_1  and  N_2
REMARK    2  A    between atoms: N_7  and  C_8
REMARK    3  A    between atoms: N_12  and  C_13
REMARK                            x       y       z     vdW  Elec       q    Type
REMARK                         _______ _______ _______ _____ _____    ______ ____
ROOT
ATOM      1  C   UNL     1      16.340  39.829  60.074  0.00  0.00    +0.000 C 
ATOM      2  N   UNL     1      16.280  40.131  58.655  0.00  0.00    +0.000 N 
ATOM      3  C   UNL     1      15.626  41.289  58.268  0.00  0.00    +0.000 A 
ATOM      4  O   UNL     1      15.155  42.065  59.093  0.00  0.00    +0.000 OA
ATOM      5  N   UNL     1      15.480  41.590  56.941  0.00  0.00    +0.000 NA
ATOM      6  C   UNL     1      15.952  40.860  55.977  0.00  0.00    +0.000 A 
ATOM      7  N   UNL     1      15.795  41.193  54.619  0.00  0.00    +0.000 N 
ATOM      8  C   UNL     1      16.522  40.410  53.660  0.00  0.00    +0.000 A 
ATOM      9  C   UNL     1      16.600  40.761  52.298  0.00  0.00    +0.000 A 
ATOM     10  C   UNL     1      17.327  39.982  51.392  0.00  0.00    +0.000 A 
ATOM     11  C   UNL     1      17.999  38.849  51.832  0.00  0.00    +0.000 A 
ATOM     12  C   UNL     1      17.957  38.502  53.180  0.00  0.00    +0.000 A 
ATOM     13  C   UNL     1      17.237  39.274  54.097  0.00  0.00    +0.000 A 
ATOM     14  N   UNL     1      17.270  38.869  55.437  0.00  0.00    +0.000 NA
ATOM     15  C   UNL     1      16.677  39.595  56.333  0.00  0.00    +0.000 A 
ATOM     16  C   UNL     1      16.707  39.163  57.772  0.00  0.00    +0.000 A 
ATOM     17  O   UNL     1      17.067  38.033  58.070  0.00  0.00    +0.000 OA
ENDROOT
BRANCH   7  18
ATOM     18  C   UNL     1      14.839  42.205  54.273  0.00  0.00    +0.000 A 
ATOM     19  C   UNL     1      13.464  41.945  54.316  0.00  0.00    +0.000 A 
ATOM     20  C   UNL     1      12.547  42.956  54.038  0.00  0.00    +0.000 A 
ATOM     21  C   UNL     1      13.009  44.228  53.729  0.00  0.00    +0.000 A 
ATOM     22  N   UNL     1      14.335  44.482  53.687  0.00  0.00    +0.000 N 
ATOM     23  C   UNL     1      14.821  45.844  53.400  0.00  0.00    +0.000 C 
ATOM     24  C   UNL     1      15.239  43.509  53.945  0.00  0.00    +0.000 A 
ENDBRANCH   7  18
TORSDOF 1
ENDMDL
MODEL 3
REMARK VINA RESULT:    -5.793      7.457     10.246
REMARK INTER + INTRA:          -6.356
REMARK INTER:                  -6.132
REMARK INTRA:                  -0.225
REMARK UNBOUND:                -0.225
REMARK  Name = 
REMARK  3 active torsions:
REMARK  status: ('A' for Active; 'I' for Inactive)
REMARK    1  A    between atoms: C_1  and  N_2
REMARK    2  A    between atoms: N_7  and  C_8
REMARK    3  A    between atoms: N_12  and  C_13
REMARK                            x       y       z     vdW  Elec       q    Type
REMARK                         _______ _______ _______ _____ _____    ______ ____
ROOT
ATOM      1  C   UNL     1      17.688  38.524  59.154  0.00  0.00    +0.000 C 
ATOM      2  N   UNL     1      17.437  38.963  57.794  0.00  0.00    +0.000 N 
ATOM      3  C   UNL     1      17.022  40.271  57.603  0.00  0.00    +0.000 A 
ATOM      4  O   UNL     1      16.919  41.054  58.542  0.00  0.00    +0.000 OA
ATOM      5  N   UNL     1      16.706  40.720  56.349  0.00  0.00    +0.000 NA
ATOM      6  C   UNL     1      16.795  39.995  55.277  0.00  0.00    +0.000 A 
ATOM      7  N   UNL     1      16.470  40.480  53.996  0.00  0.00    +0.000 N 
ATOM      8  C   UNL     1      16.790  39.645  52.873  0.00  0.00    +0.000 A 
ATOM      9  C   UNL     1      16.692  40.095  51.542  0.00  0.00    +0.000 A 
ATOM     10  C   UNL     1      17.023  39.258  50.472  0.00  0.00    +0.000 A 
ATOM     11  C   UNL     1      17.470  37.965  50.711  0.00  0.00    +0.000 A 
ATOM     12  C   UNL     1      17.600  37.512  52.022  0.00  0.00    +0.000 A 
ATOM     13  C   UNL     1      17.276  38.340  53.102  0.00  0.00    +0.000 A 
ATOM     14  N   UNL     1      17.463  37.815  54.386  0.00  0.00    +0.000 NA
ATOM     15  C   UNL     1      17.245  38.570  55.417  0.00  0.00    +0.000 A 
ATOM     16  C   UNL     1      17.440  38.010  56.798  0.00  0.00    +0.000 A 
ATOM     17  O   UNL     1      17.564  36.805  56.964  0.00  0.00    +0.000 OA
ENDROOT
BRANCH   7  18
ATOM     18  C   UNL     1      15.741  41.712  53.902  0.00  0.00    +0.000 A 
ATOM     19  C   UNL     1      16.338  42.867  53.380  0.00  0.00    +0.000 A 
ATOM     20  C   UNL     1      15.599  44.038  53.238  0.00  0.00    +0.000 A 
ATOM     21  C   UNL     1      14.260  44.048  53.606  0.00  0.00    +0.000 A 
ATOM     22  N   UNL     1      13.681  42.937  54.108  0.00  0.00    +0.000 N 
ATOM     23  C   UNL     1      12.250  42.939  54.459  0.00  0.00    +0.000 C 
ATOM     24  C   UNL     1      14.388  41.793  54.263  0.00  0.00    +0.000 A 
ENDBRANCH   7  18
TORSDOF 1
ENDMDL
