MODEL 1
REMARK VINA RESULT:    -6.820      0.000      0.000
REMARK INTER + INTRA:          -9.695
REMARK INTER:                  -8.952
REMARK INTRA:                  -0.743
REMARK UNBOUND:                -0.881
REMARK  Name = 
REMARK  5 active torsions:
REMARK  status: ('A' for Active; 'I' for Inactive)
REMARK    1  A    between atoms: C_2  and  C_3
REMARK    2  A    between atoms: C_2  and  C_23
REMARK    3  A    between atoms: C_3  and  N_4
REMARK    4  A    between atoms: C_6  and  C_7
REMARK    5  A    between atoms: C_7  and  N_8
REMARK                            x       y       z     vdW  Elec       q    Type
REMARK                         _______ _______ _______ _____ _____    ______ ____
ROOT
ATOM      1  N   UNL     1      13.236  40.497  49.751  0.00  0.00    +0.000 N 
ATOM      2  C   UNL     1      12.292  40.699  48.789  0.00  0.00    +0.000 A 
ATOM      3  C   UNL     1      13.022  41.055  47.674  0.00  0.00    +0.000 A 
ATOM      4  N   UNL     1      14.355  41.060  48.000  0.00  0.00    +0.000 NA
ATOM      5  N   UNL     1      14.473  40.728  49.277  0.00  0.00    +0.000 NA
ENDROOT
BRANCH   1   6
ATOM      6  C   UNL     1      13.038  40.196  51.153  0.00  0.00    +0.000 C 
BRANCH   6   8
ATOM      7  O   UNL     1      15.094  39.535  52.227  0.00  0.00    +0.000 OA
ATOM      8  C   UNL     1      14.291  40.429  51.963  0.00  0.00    +0.000 C 
BRANCH   8   9
ATOM      9  C   UNL     1      14.543  41.796  52.509  0.00  0.00    +0.000 A 
ATOM     10  C   UNL     1      15.835  42.331  52.386  0.00  0.00    +0.000 A 
ATOM     11  C   UNL     1      16.123  43.602  52.886  0.00  0.00    +0.000 A 
ATOM     12  C   UNL     1      15.122  44.334  53.511  0.00  0.00    +0.000 A 
ATOM     13  F   UNL     1      15.396  45.554  53.991  0.00  0.00    +0.000 F 
ATOM     14  C   UNL     1      13.839  43.817  53.649  0.00  0.00    +0.000 A 
ATOM     15  C   UNL     1      13.545  42.543  53.152  0.00  0.00    +0.000 A 
ENDBRANCH   8   9
ENDBRANCH   6   8
ENDBRANCH   1   6
BRANCH   3  16
ATOM     16  C   UNL     1      12.579  41.385  46.298  0.00  0.00    +0.000 C 
BRANCH  16  17
ATOM     17  N   UNL     1      13.383  42.460  45.724  0.00  0.00    +0.000 N 
ATOM     18  C   UNL     1      14.464  42.261  44.883  0.00  0.00    +0.000 A 
ATOM     19  C   UNL     1      15.071  41.079  44.422  0.00  0.00    +0.000 A 
ATOM     20  C   UNL     1      16.165  41.193  43.562  0.00  0.00    +0.000 A 
ATOM     21  C   UNL     1      16.644  42.439  43.172  0.00  0.00    +0.000 A 
ATOM     22  C   UNL     1      16.038  43.609  43.641  0.00  0.00    +0.000 A 
ATOM     23  C   UNL     1      14.930  43.522  44.514  0.00  0.00    +0.000 A 
ATOM     24  C   UNL     1      14.111  44.495  45.164  0.00  0.00    +0.000 A 
ATOM     25  C   UNL     1      14.105  45.907  45.180  0.00  0.00    +0.000 A 
ATOM     26  C   UNL     1      13.154  46.590  45.945  0.00  0.00    +0.000 A 
ATOM     27  C   UNL     1      12.217  45.887  46.693  0.00  0.00    +0.000 A 
ATOM     28  C   UNL     1      12.199  44.489  46.695  0.00  0.00    +0.000 A 
ATOM     29  C   UNL     1      13.156  43.811  45.920  0.00  0.00    +0.000 A 
ENDBRANCH  16  17
ENDBRANCH   3  16
TORSDOF 5
ENDMDL
MODEL 2
REMARK VINA RESULT:    -6.641      3.563      7.878
REMARK INTER + INTRA:          -9.464
REMARK INTER:                  -8.785
REMARK INTRA:                  -0.678
REMARK UNBOUND:                -0.881
REMARK  Name = 
REMARK  5 active torsions:
REMARK  status: ('A' for Active; 'I' for Inactive)
REMARK    1  A    between atoms: C_2  and  C_3
REMARK    2  A    between atoms: C_2  and  C_23
REMARK    3  A    between atoms: C_3  and  N_4
REMARK    4  A    between atoms: C_6  and  C_7
REMARK    5  A    between atoms: C_7  and  N_8
REMARK                            x       y       z     vdW  Elec       q    Type
REMARK                         _______ _______ _______ _____ _____    ______ ____
ROOT
ATOM      1  N   UNL     1      15.186  41.415  46.501  0.00  0.00    +0.000 N 
ATOM      2  C   UNL     1      14.615  41.108  47.700  0.00  0.00    +0.000 A 
ATOM      3  C   UNL     1      15.069  39.833  47.970  0.00  0.00    +0.000 A 
ATOM      4  N   UNL     1      15.880  39.424  46.940  0.00  0.00    +0.000 NA
ATOM      5  N   UNL     1      15.935  40.396  46.041  0.00  0.00    +0.000 NA
ENDROOT
BRANCH   1   6
ATOM      6  C   UNL     1      14.985  42.594  45.687  0.00  0.00    +0.000 C 
BRANCH   6   8
ATOM      7  O   UNL     1      12.590  42.326  45.610  0.00  0.00    +0.000 OA
ATOM      8  C   UNL     1      13.555  43.077  45.736  0.00  0.00    +0.000 C 
BRANCH   8   9
ATOM      9  C   UNL     1      13.302  44.540  45.897  0.00  0.00    +0.000 A 
ATOM     10  C   UNL     1      14.253  45.438  45.385  0.00  0.00    +0.000 A 
ATOM     11  C   UNL     1      14.065  46.815  45.516  0.00  0.00    +0.000 A 
ATOM     12  C   UNL     1      12.931  47.293  46.161  0.00  0.00    +0.000 A 
ATOM     13  F   UNL     1      12.750  48.613  46.288  0.00  0.00    +0.000 F 
ATOM     14  C   UNL     1      11.984  46.418  46.682  0.00  0.00    +0.000 A 
ATOM     15  C   UNL     1      12.168  45.037  46.555  0.00  0.00    +0.000 A 
ENDBRANCH   8   9
ENDBRANCH   6   8
ENDBRANCH   1   6
BRANCH   3  16
ATOM     16  C   UNL     1      14.822  38.949  49.134  0.00  0.00    +0.000 C 
BRANCH  16  17
ATOM     17  N   UNL     1      15.917  39.019  50.097  0.00  0.00    +0.000 N 
ATOM     18  C   UNL     1      16.026  39.982  51.085  0.00  0.00    +0.000 A 
ATOM     19  C   UNL     1      15.218  41.092  51.387  0.00  0.00    +0.000 A 
ATOM     20  C   UNL     1      15.583  41.900  52.466  0.00  0.00    +0.000 A 
ATOM     21  C   UNL     1      16.715  41.616  53.222  0.00  0.00    +0.000 A 
ATOM     22  C   UNL     1      17.518  40.513  52.910  0.00  0.00    +0.000 A 
ATOM     23  C   UNL     1      17.172  39.682  51.822  0.00  0.00    +0.000 A 
ATOM     24  C   UNL     1      17.764  38.516  51.247  0.00  0.00    +0.000 A 
ATOM     25  C   UNL     1      18.919  37.762  51.550  0.00  0.00    +0.000 A 
ATOM     26  C   UNL     1      19.244  36.647  50.772  0.00  0.00    +0.000 A 
ATOM     27  C   UNL     1      18.441  36.277  49.700  0.00  0.00    +0.000 A 
ATOM     28  C   UNL     1      17.292  37.006  49.377  0.00  0.00    +0.000 A 
ATOM     29  C   UNL     1      16.969  38.123  50.167  0.00  0.00    +0.000 A 
ENDBRANCH  16  17
ENDBRANCH   3  16
TORSDOF 5
ENDMDL
MODEL 3
REMARK VINA RESULT:    -6.551      3.531      7.277
REMARK INTER + INTRA:          -9.348
REMARK INTER:                  -8.466
REMARK INTRA:                  -0.881
REMARK UNBOUND:                -0.881
REMARK  Name = 
REMARK  5 active torsions:
REMARK  status: ('A' for Active; 'I' for Inactive)
REMARK    1  A    between atoms: C_2  and  C_3
REMARK    2  A    between atoms: C_2  and  C_23
REMARK    3  A    between atoms: C_3  and  N_4
REMARK    4  A    between atoms: C_6  and  C_7
REMARK    5  A    between atoms: C_7  and  N_8
REMARK                            x       y       z     vdW  Elec       q    Type
REMARK                         _______ _______ _______ _____ _____    ______ ____
ROOT
ATOM      1  N   UNL     1      15.262  41.412  46.523  0.00  0.00    +0.000 N 
ATOM      2  C   UNL     1      14.694  41.132  47.729  0.00  0.00    +0.000 A 
ATOM      3  C   UNL     1      15.049  39.821  47.968  0.00  0.00    +0.000 A 
ATOM      4  N   UNL     1      15.801  39.364  46.914  0.00  0.00    +0.000 NA
ATOM      5  N   UNL     1      15.915  40.345  46.030  0.00  0.00    +0.000 NA
ENDROOT
BRANCH   1   6
ATOM      6  C   UNL     1      15.140  42.618  45.732  0.00  0.00    +0.000 C 
BRANCH   6   8
ATOM      7  O   UNL     1      12.920  42.199  44.888  0.00  0.00    +0.000 OA
ATOM      8  C   UNL     1      13.698  42.967  45.452  0.00  0.00    +0.000 C 
BRANCH   8   9
ATOM      9  C   UNL     1      13.206  44.324  45.834  0.00  0.00    +0.000 A 
ATOM     10  C   UNL     1      13.956  45.440  45.431  0.00  0.00    +0.000 A 
ATOM     11  C   UNL     1      13.541  46.729  45.769  0.00  0.00    +0.000 A 
ATOM     12  C   UNL     1      12.380  46.901  46.511  0.00  0.00    +0.000 A 
ATOM     13  F   UNL     1      11.980  48.137  46.837  0.00  0.00    +0.000 F 
ATOM     14  C   UNL     1      11.629  45.807  46.927  0.00  0.00    +0.000 A 
ATOM     15  C   UNL     1      12.041  44.513  46.593  0.00  0.00    +0.000 A 
ENDBRANCH   8   9
ENDBRANCH   6   8
ENDBRANCH   1   6
BRANCH   3  16
ATOM     16  C   UNL     1      14.755  38.940  49.124  0.00  0.00    +0.000 C 
BRANCH  16  17
ATOM     17  N   UNL     1      15.811  39.012  50.130  0.00  0.00    +0.000 N 
ATOM     18  C   UNL     1      16.859  38.113  50.226  0.00  0.00    +0.000 A 
ATOM     19  C   UNL     1      17.154  36.955  49.486  0.00  0.00    +0.000 A 
ATOM     20  C   UNL     1      18.306  36.237  49.815  0.00  0.00    +0.000 A 
ATOM     21  C   UNL     1      19.139  36.655  50.848  0.00  0.00    +0.000 A 
ATOM     22  C   UNL     1      18.834  37.805  51.584  0.00  0.00    +0.000 A 
ATOM     23  C   UNL     1      17.673  38.548  51.272  0.00  0.00    +0.000 A 
ATOM     24  C   UNL     1      17.084  39.729  51.819  0.00  0.00    +0.000 A 
ATOM     25  C   UNL     1      17.442  40.594  52.876  0.00  0.00    +0.000 A 
ATOM     26  C   UNL     1      16.632  41.692  53.180  0.00  0.00    +0.000 A 
ATOM     27  C   UNL     1      15.474  41.936  52.450  0.00  0.00    +0.000 A 
ATOM     28  C   UNL     1      15.097  41.097  51.398  0.00  0.00    +0.000 A 
ATOM     29  C   UNL     1      15.920  39.997  51.096  0.00  0.00    +0.000 A 
ENDBRANCH  16  17
ENDBRANCH   3  16
TORSDOF 5
ENDMDL
