MODEL 1
REMARK VINA RESULT:    -6.566      0.000      0.000
REMARK INTER + INTRA:          -8.590
REMARK INTER:                  -7.901
REMARK INTRA:                  -0.689
REMARK UNBOUND:                -0.872
REMARK  Name = 
REMARK  4 active torsions:
REMARK  status: ('A' for Active; 'I' for Inactive)
REMARK    1  A    between atoms: C_1  and  C_2
REMARK    2  A    between atoms: C_9  and  C_10
REMARK    3  A    between atoms: C_11  and  C_12
REMARK    4  A    between atoms: C_23  and  C_24
REMARK                            x       y       z     vdW  Elec       q    Type
REMARK                         _______ _______ _______ _____ _____    ______ ____
ROOT
ATOM      1  C   UNL     1      20.313  30.828  51.888  0.00  0.00    +0.000 C 
ATOM      2  C   UNL     1      21.780  30.991  51.754  0.00  0.00    +0.000 A 
ATOM      3  N   UNL     1      22.637  29.996  51.882  0.00  0.00    +0.000 NA
ATOM      4  N   UNL     1      23.888  30.470  51.632  0.00  0.00    +0.000 NA
ATOM      5  C   UNL     1      23.786  31.750  51.358  0.00  0.00    +0.000 A 
ATOM      6  N   UNL     1      22.462  32.150  51.397  0.00  0.00    +0.000 N 
ATOM      7  C   UNL     1      22.031  33.457  51.136  0.00  0.00    +0.000 A 
ATOM      8  S   UNL     1      20.576  34.015  51.805  0.00  0.00    +0.000 S 
ATOM      9  C   UNL     1      20.783  35.566  51.142  0.00  0.00    +0.000 A 
ATOM     10  C   UNL     1      21.940  35.647  50.401  0.00  0.00    +0.000 A 
ATOM     11  C   UNL     1      22.692  34.413  50.379  0.00  0.00    +0.000 A 
ATOM     12  C   UNL     1      23.909  34.192  49.589  0.00  0.00    +0.000 C 
ATOM     13  N   UNL     1      24.866  33.394  49.901  0.00  0.00    +0.000 NA
ATOM     14  C   UNL     1      24.899  32.711  51.185  0.00  0.00    +0.000 C 
ENDROOT
BRANCH  12  15
ATOM     15  C   UNL     1      24.011  34.917  48.303  0.00  0.00    +0.000 A 
ATOM     16  C   UNL     1      25.042  35.853  48.153  0.00  0.00    +0.000 A 
ATOM     17  C   UNL     1      25.163  36.560  46.958  0.00  0.00    +0.000 A 
ATOM     18  C   UNL     1      24.256  36.338  45.920  0.00  0.00    +0.000 A 
ATOM     19  C   UNL     1      23.225  35.408  46.075  0.00  0.00    +0.000 A 
ATOM     20  C   UNL     1      23.096  34.694  47.270  0.00  0.00    +0.000 A 
ATOM     21 CL   UNL     1      21.827  33.531  47.395  0.00  0.00    +0.000 Cl
ENDBRANCH  12  15
BRANCH   9  22
ATOM     22  C   UNL     1      19.858  36.633  51.330  0.00  0.00    +0.000 C 
ATOM     23  C   UNL     1      19.079  37.534  51.491  0.00  0.00    +0.000 C 
BRANCH  23  24
ATOM     24  C   UNL     1      18.151  38.605  51.683  0.00  0.00    +0.000 A 
ATOM     25  C   UNL     1      18.414  39.589  52.656  0.00  0.00    +0.000 A 
ATOM     26  C   UNL     1      17.521  40.647  52.854  0.00  0.00    +0.000 A 
ATOM     27  C   UNL     1      16.382  40.684  52.077  0.00  0.00    +0.000 A 
ATOM     28  C   UNL     1      16.116  39.721  51.116  0.00  0.00    +0.000 A 
ATOM     29  C   UNL     1      16.994  38.673  50.898  0.00  0.00    +0.000 A 
ATOM     30  C   UNL     1      14.867  40.074  50.406  0.00  0.00    +0.000 C 
ATOM     31  C   UNL     1      14.328  41.126  51.377  0.00  0.00    +0.000 C 
ATOM     32  O   UNL     1      15.424  41.661  52.156  0.00  0.00    +0.000 OA
ENDBRANCH  23  24
ENDBRANCH   9  22
TORSDOF 3
ENDMDL
MODEL 2
REMARK VINA RESULT:    -6.465     11.063     14.096
REMARK INTER + INTRA:          -8.471
REMARK INTER:                  -7.599
REMARK INTRA:                  -0.872
REMARK UNBOUND:                -0.872
REMARK  Name = 
REMARK  4 active torsions:
REMARK  status: ('A' for Active; 'I' for Inactive)
REMARK    1  A    between atoms: C_1  and  C_2
REMARK    2  A    between atoms: C_9  and  C_10
REMARK    3  A    between atoms: C_11  and  C_12
REMARK    4  A    between atoms: C_23  and  C_24
REMARK                            x       y       z     vdW  Elec       q    Type
REMARK                         _______ _______ _______ _____ _____    ______ ____
ROOT
ATOM      1  C   UNL     1       9.294  44.368  47.366  0.00  0.00    +0.000 C 
ATOM      2  C   UNL     1      10.143  43.200  47.698  0.00  0.00    +0.000 A 
ATOM      3  N   UNL     1       9.696  42.134  48.334  0.00  0.00    +0.000 NA
ATOM      4  N   UNL     1      10.707  41.226  48.415  0.00  0.00    +0.000 NA
ATOM      5  C   UNL     1      11.763  41.746  47.833  0.00  0.00    +0.000 A 
ATOM      6  N   UNL     1      11.471  43.002  47.332  0.00  0.00    +0.000 N 
ATOM      7  C   UNL     1      12.391  43.805  46.645  0.00  0.00    +0.000 A 
ATOM      8  S   UNL     1      12.201  45.490  46.639  0.00  0.00    +0.000 S 
ATOM      9  C   UNL     1      13.626  45.720  45.742  0.00  0.00    +0.000 A 
ATOM     10  C   UNL     1      14.226  44.520  45.436  0.00  0.00    +0.000 A 
ATOM     11  C   UNL     1      13.514  43.375  45.954  0.00  0.00    +0.000 A 
ATOM     12  C   UNL     1      13.878  41.977  45.693  0.00  0.00    +0.000 C 
ATOM     13  N   UNL     1      13.660  40.988  46.484  0.00  0.00    +0.000 NA
ATOM     14  C   UNL     1      13.135  41.190  47.826  0.00  0.00    +0.000 C 
ENDROOT
BRANCH  12  15
ATOM     15  C   UNL     1      14.504  41.684  44.385  0.00  0.00    +0.000 A 
ATOM     16  C   UNL     1      15.895  41.521  44.341  0.00  0.00    +0.000 A 
ATOM     17  C   UNL     1      16.520  41.253  43.124  0.00  0.00    +0.000 A 
ATOM     18  C   UNL     1      15.760  41.152  41.956  0.00  0.00    +0.000 A 
ATOM     19  C   UNL     1      14.374  41.321  42.003  0.00  0.00    +0.000 A 
ATOM     20  C   UNL     1      13.740  41.590  43.219  0.00  0.00    +0.000 A 
ATOM     21 CL   UNL     1      12.021  41.754  43.225  0.00  0.00    +0.000 Cl
ENDBRANCH  12  15
BRANCH   9  22
ATOM     22  C   UNL     1      14.117  47.000  45.356  0.00  0.00    +0.000 C 
ATOM     23  C   UNL     1      14.530  48.079  45.028  0.00  0.00    +0.000 C 
BRANCH  23  24
ATOM     24  C   UNL     1      15.022  49.364  44.637  0.00  0.00    +0.000 A 
ATOM     25  C   UNL     1      14.160  50.276  43.999  0.00  0.00    +0.000 A 
ATOM     26  C   UNL     1      14.621  51.539  43.614  0.00  0.00    +0.000 A 
ATOM     27  C   UNL     1      15.940  51.850  43.872  0.00  0.00    +0.000 A 
ATOM     28  C   UNL     1      16.795  50.959  44.502  0.00  0.00    +0.000 A 
ATOM     29  C   UNL     1      16.354  49.709  44.899  0.00  0.00    +0.000 A 
ATOM     30  C   UNL     1      18.112  51.606  44.700  0.00  0.00    +0.000 C 
ATOM     31  C   UNL     1      17.939  52.795  43.754  0.00  0.00    +0.000 C 
ATOM     32  O   UNL     1      16.527  53.047  43.559  0.00  0.00    +0.000 OA
ENDBRANCH  23  24
ENDBRANCH   9  22
TORSDOF 3
ENDMDL
MODEL 3
REMARK VINA RESULT:    -6.387      5.598      9.120
REMARK INTER + INTRA:          -8.379
REMARK INTER:                  -7.496
REMARK INTRA:                  -0.883
REMARK UNBOUND:                -0.872
REMARK  Name = 
REMARK  4 active torsions:
REMARK  status: ('A' for Active; 'I' for Inactive)
REMARK    1  A    between atoms: C_1  and  C_2
REMARK    2  A    between atoms: C_9  and  C_10
REMARK    3  A    between atoms: C_11  and  C_12
REMARK    4  A    between atoms: C_23  and  C_24
REMARK                            x       y       z     vdW  Elec       q    Type
REMARK                         _______ _______ _______ _____ _____    ______ ____
ROOT
ATOM      1  C   UNL     1      19.731  35.809  49.574  0.00  0.00    +0.000 C 
ATOM      2  C   UNL     1      18.691  35.667  50.620  0.00  0.00    +0.000 A 
ATOM      3  N   UNL     1      18.779  34.813  51.621  0.00  0.00    +0.000 NA
ATOM      4  N   UNL     1      17.699  34.986  52.432  0.00  0.00    +0.000 NA
ATOM      5  C   UNL     1      16.959  35.942  51.917  0.00  0.00    +0.000 A 
ATOM      6  N   UNL     1      17.542  36.439  50.766  0.00  0.00    +0.000 N 
ATOM      7  C   UNL     1      16.997  37.475  49.996  0.00  0.00    +0.000 A 
ATOM      8  S   UNL     1      17.373  37.588  48.346  0.00  0.00    +0.000 S 
ATOM      9  C   UNL     1      16.355  38.933  48.134  0.00  0.00    +0.000 A 
ATOM     10  C   UNL     1      15.754  39.301  49.316  0.00  0.00    +0.000 A 
ATOM     11  C   UNL     1      16.121  38.459  50.431  0.00  0.00    +0.000 A 
ATOM     12  C   UNL     1      15.703  38.684  51.819  0.00  0.00    +0.000 C 
ATOM     13  N   UNL     1      15.534  37.769  52.706  0.00  0.00    +0.000 NA
ATOM     14  C   UNL     1      15.611  36.357  52.366  0.00  0.00    +0.000 C 
ENDROOT
BRANCH  12  15
ATOM     15  C   UNL     1      15.510  40.090  52.238  0.00  0.00    +0.000 A 
ATOM     16  C   UNL     1      14.202  40.590  52.286  0.00  0.00    +0.000 A 
ATOM     17  C   UNL     1      13.984  41.914  52.668  0.00  0.00    +0.000 A 
ATOM     18  C   UNL     1      15.066  42.733  52.996  0.00  0.00    +0.000 A 
ATOM     19  C   UNL     1      16.369  42.232  52.942  0.00  0.00    +0.000 A 
ATOM     20  C   UNL     1      16.597  40.908  52.560  0.00  0.00    +0.000 A 
ATOM     21 CL   UNL     1      18.223  40.329  52.545  0.00  0.00    +0.000 Cl
ENDBRANCH  12  15
BRANCH   9  22
ATOM     22  C   UNL     1      16.170  39.591  46.884  0.00  0.00    +0.000 C 
ATOM     23  C   UNL     1      16.013  40.149  45.831  0.00  0.00    +0.000 C 
BRANCH  23  24
ATOM     24  C   UNL     1      15.826  40.812  44.578  0.00  0.00    +0.000 A 
ATOM     25  C   UNL     1      16.320  40.225  43.398  0.00  0.00    +0.000 A 
ATOM     26  C   UNL     1      16.142  40.856  42.163  0.00  0.00    +0.000 A 
ATOM     27  C   UNL     1      15.479  42.065  42.146  0.00  0.00    +0.000 A 
ATOM     28  C   UNL     1      14.986  42.649  43.303  0.00  0.00    +0.000 A 
ATOM     29  C   UNL     1      15.144  42.035  44.533  0.00  0.00    +0.000 A 
ATOM     30  C   UNL     1      14.268  43.895  42.951  0.00  0.00    +0.000 C 
ATOM     31  C   UNL     1      14.781  44.072  41.521  0.00  0.00    +0.000 C 
ATOM     32  O   UNL     1      15.225  42.792  41.013  0.00  0.00    +0.000 OA
ENDBRANCH  23  24
ENDBRANCH   9  22
TORSDOF 3
ENDMDL
