MODEL 1
REMARK VINA RESULT:    -6.314      0.000      0.000
REMARK INTER + INTRA:          -8.966
REMARK INTER:                  -8.005
REMARK INTRA:                  -0.960
REMARK UNBOUND:                -1.360
REMARK  Name = 
REMARK  4 active torsions:
REMARK  status: ('A' for Active; 'I' for Inactive)
REMARK    1  A    between atoms: C_2  and  C_5
REMARK    2  A    between atoms: N_3  and  O_4
REMARK    3  A    between atoms: N_14  and  S_15
REMARK    4  A    between atoms: S_15  and  C_18
REMARK                            x       y       z     vdW  Elec       q    Type
REMARK                         _______ _______ _______ _____ _____    ______ ____
ROOT
ATOM      1  C   UNL     1      16.561  39.976  55.615  0.00  0.00    +0.000 C 
ATOM      2  C   UNL     1      16.383  38.885  56.686  0.00  0.00    +0.000 C 
ATOM      3  C   UNL     1      17.182  37.666  56.327  0.00  0.00    +0.000 A 
ATOM      4  C   UNL     1      17.936  36.953  57.259  0.00  0.00    +0.000 A 
ATOM      5  C   UNL     1      18.641  35.819  56.854  0.00  0.00    +0.000 A 
ATOM      6  C   UNL     1      18.577  35.389  55.527  0.00  0.00    +0.000 A 
ATOM      7  C   UNL     1      17.808  36.091  54.598  0.00  0.00    +0.000 A 
ATOM      8  C   UNL     1      17.111  37.235  54.994  0.00  0.00    +0.000 A 
ATOM      9  C   UNL     1      16.228  38.006  54.050  0.00  0.00    +0.000 C 
ATOM     10  N   UNL     1      16.325  39.486  54.203  0.00  0.00    +0.000 NA
ENDROOT
BRANCH   1  12
ATOM     11  O   UNL     1      15.546  41.760  56.947  0.00  0.00    +0.000 OA
ATOM     12  C   UNL     1      15.558  41.101  55.905  0.00  0.00    +0.000 C 
ATOM     13  N   UNL     1      14.635  41.337  54.906  0.00  0.00    +0.000 N 
ATOM     14  H   UNL     1      14.311  40.547  54.337  0.00  0.00    +0.000 HD
BRANCH  13  15
ATOM     15  O   UNL     1      13.636  42.286  55.252  0.00  0.00    +0.000 OA
ATOM     16  H   UNL     1      13.082  41.790  55.895  0.00  0.00    +0.000 HD
ENDBRANCH  13  15
ENDBRANCH   1  12
BRANCH  10  17
ATOM     17  S   UNL     1      17.279  40.263  53.029  0.00  0.00    +0.000 S 
ATOM     18  O   UNL     1      16.431  41.209  52.333  0.00  0.00    +0.000 OA
ATOM     19  O   UNL     1      18.503  40.688  53.669  0.00  0.00    +0.000 OA
BRANCH  17  20
ATOM     20  C   UNL     1      17.652  38.957  51.893  0.00  0.00    +0.000 A 
ATOM     21  C   UNL     1      16.762  38.650  50.863  0.00  0.00    +0.000 A 
ATOM     22  C   UNL     1      17.088  37.638  49.957  0.00  0.00    +0.000 A 
ATOM     23  C   UNL     1      18.298  36.934  50.070  0.00  0.00    +0.000 A 
ATOM     24  C   UNL     1      18.637  35.917  49.164  0.00  0.00    +0.000 A 
ATOM     25  C   UNL     1      19.844  35.225  49.286  0.00  0.00    +0.000 A 
ATOM     26  C   UNL     1      20.724  35.538  50.316  0.00  0.00    +0.000 A 
ATOM     27  C   UNL     1      20.402  36.543  51.230  0.00  0.00    +0.000 A 
ATOM     28  C   UNL     1      19.194  37.250  51.122  0.00  0.00    +0.000 A 
ATOM     29  C   UNL     1      18.859  38.263  52.032  0.00  0.00    +0.000 A 
ENDBRANCH  17  20
ENDBRANCH  10  17
TORSDOF 4
ENDMDL
MODEL 2
REMARK VINA RESULT:    -6.309     11.320     13.908
REMARK INTER + INTRA:          -8.960
REMARK INTER:                  -7.646
REMARK INTRA:                  -1.314
REMARK UNBOUND:                -1.360
REMARK  Name = 
REMARK  4 active torsions:
REMARK  status: ('A' for Active; 'I' for Inactive)
REMARK    1  A    between atoms: C_2  and  C_5
REMARK    2  A    between atoms: N_3  and  O_4
REMARK    3  A    between atoms: N_14  and  S_15
REMARK    4  A    between atoms: S_15  and  C_18
REMARK                            x       y       z     vdW  Elec       q    Type
REMARK                         _______ _______ _______ _____ _____    ______ ____
ROOT
ATOM      1  C   UNL     1      14.183  43.986  43.187  0.00  0.00    +0.000 C 
ATOM      2  C   UNL     1      13.393  44.257  41.893  0.00  0.00    +0.000 C 
ATOM      3  C   UNL     1      12.011  44.745  42.219  0.00  0.00    +0.000 A 
ATOM      4  C   UNL     1      11.403  45.802  41.542  0.00  0.00    +0.000 A 
ATOM      5  C   UNL     1      10.109  46.190  41.890  0.00  0.00    +0.000 A 
ATOM      6  C   UNL     1       9.419  45.513  42.897  0.00  0.00    +0.000 A 
ATOM      7  C   UNL     1      10.020  44.443  43.562  0.00  0.00    +0.000 A 
ATOM      8  C   UNL     1      11.320  44.058  43.228  0.00  0.00    +0.000 A 
ATOM      9  C   UNL     1      12.004  42.884  43.876  0.00  0.00    +0.000 C 
ATOM     10  N   UNL     1      13.445  43.114  44.179  0.00  0.00    +0.000 NA
ENDROOT
BRANCH   1  12
ATOM     11  O   UNL     1      15.561  42.324  42.034  0.00  0.00    +0.000 OA
ATOM     12  C   UNL     1      15.493  43.280  42.811  0.00  0.00    +0.000 C 
ATOM     13  N   UNL     1      16.627  43.784  43.415  0.00  0.00    +0.000 N 
ATOM     14  H   UNL     1      16.550  44.171  44.363  0.00  0.00    +0.000 HD
BRANCH  13  15
ATOM     15  O   UNL     1      17.804  43.032  43.159  0.00  0.00    +0.000 OA
ATOM     16  H   UNL     1      17.596  42.592  42.305  0.00  0.00    +0.000 HD
ENDBRANCH  13  15
ENDBRANCH   1  12
BRANCH  10  17
ATOM     17  S   UNL     1      13.784  43.473  45.806  0.00  0.00    +0.000 S 
ATOM     18  O   UNL     1      12.856  42.719  46.623  0.00  0.00    +0.000 OA
ATOM     19  O   UNL     1      15.212  43.352  45.995  0.00  0.00    +0.000 OA
BRANCH  17  20
ATOM     20  C   UNL     1      13.333  45.180  45.937  0.00  0.00    +0.000 A 
ATOM     21  C   UNL     1      12.143  45.543  46.568  0.00  0.00    +0.000 A 
ATOM     22  C   UNL     1      11.820  46.896  46.692  0.00  0.00    +0.000 A 
ATOM     23  C   UNL     1      12.678  47.889  46.192  0.00  0.00    +0.000 A 
ATOM     24  C   UNL     1      12.365  49.252  46.313  0.00  0.00    +0.000 A 
ATOM     25  C   UNL     1      13.227  50.230  45.813  0.00  0.00    +0.000 A 
ATOM     26  C   UNL     1      14.412  49.858  45.186  0.00  0.00    +0.000 A 
ATOM     27  C   UNL     1      14.738  48.507  45.052  0.00  0.00    +0.000 A 
ATOM     28  C   UNL     1      13.884  47.512  45.549  0.00  0.00    +0.000 A 
ATOM     29  C   UNL     1      14.201  46.150  45.424  0.00  0.00    +0.000 A 
ENDBRANCH  17  20
ENDBRANCH  10  17
TORSDOF 4
ENDMDL
MODEL 3
REMARK VINA RESULT:    -6.086      2.060      4.512
REMARK INTER + INTRA:          -8.692
REMARK INTER:                  -7.332
REMARK INTRA:                  -1.360
REMARK UNBOUND:                -1.360
REMARK  Name = 
REMARK  4 active torsions:
REMARK  status: ('A' for Active; 'I' for Inactive)
REMARK    1  A    between atoms: C_2  and  C_5
REMARK    2  A    between atoms: N_3  and  O_4
REMARK    3  A    between atoms: N_14  and  S_15
REMARK    4  A    between atoms: S_15  and  C_18
REMARK                            x       y       z     vdW  Elec       q    Type
REMARK                         _______ _______ _______ _____ _____    ______ ____
ROOT
ATOM      1  C   UNL     1      15.602  41.519  53.376  0.00  0.00    +0.000 C 
ATOM      2  C   UNL     1      15.937  41.559  51.874  0.00  0.00    +0.000 C 
ATOM      3  C   UNL     1      16.546  40.257  51.441  0.00  0.00    +0.000 A 
ATOM      4  C   UNL     1      16.196  39.616  50.252  0.00  0.00    +0.000 A 
ATOM      5  C   UNL     1      16.816  38.415  49.907  0.00  0.00    +0.000 A 
ATOM      6  C   UNL     1      17.796  37.866  50.738  0.00  0.00    +0.000 A 
ATOM      7  C   UNL     1      18.160  38.517  51.917  0.00  0.00    +0.000 A 
ATOM      8  C   UNL     1      17.533  39.712  52.276  0.00  0.00    +0.000 A 
ATOM      9  C   UNL     1      17.915  40.483  53.510  0.00  0.00    +0.000 C 
ATOM     10  N   UNL     1      16.756  41.065  54.245  0.00  0.00    +0.000 NA
ENDROOT
BRANCH   1  12
ATOM     11  O   UNL     1      14.193  43.185  54.482  0.00  0.00    +0.000 OA
ATOM     12  C   UNL     1      15.200  42.933  53.816  0.00  0.00    +0.000 C 
ATOM     13  N   UNL     1      16.048  43.940  53.404  0.00  0.00    +0.000 N 
ATOM     14  H   UNL     1      16.531  43.842  52.503  0.00  0.00    +0.000 HD
BRANCH  13  15
ATOM     15  O   UNL     1      15.585  45.249  53.705  0.00  0.00    +0.000 OA
ATOM     16  H   UNL     1      14.611  45.125  53.755  0.00  0.00    +0.000 HD
ENDBRANCH  13  15
ENDBRANCH   1  12
BRANCH  10  17
ATOM     17  S   UNL     1      16.283  40.201  55.631  0.00  0.00    +0.000 S 
ATOM     18  O   UNL     1      17.327  40.360  56.623  0.00  0.00    +0.000 OA
ATOM     19  O   UNL     1      14.914  40.557  55.925  0.00  0.00    +0.000 OA
BRANCH  17  20
ATOM     20  C   UNL     1      16.331  38.517  55.084  0.00  0.00    +0.000 A 
ATOM     21  C   UNL     1      15.311  38.016  54.274  0.00  0.00    +0.000 A 
ATOM     22  C   UNL     1      15.383  36.696  53.825  0.00  0.00    +0.000 A 
ATOM     23  C   UNL     1      16.467  35.874  54.176  0.00  0.00    +0.000 A 
ATOM     24  C   UNL     1      16.550  34.546  53.728  0.00  0.00    +0.000 A 
ATOM     25  C   UNL     1      17.634  33.739  54.082  0.00  0.00    +0.000 A 
ATOM     26  C   UNL     1      18.645  34.249  54.890  0.00  0.00    +0.000 A 
ATOM     27  C   UNL     1      18.577  35.566  55.349  0.00  0.00    +0.000 A 
ATOM     28  C   UNL     1      17.496  36.390  55.002  0.00  0.00    +0.000 A 
ATOM     29  C   UNL     1      17.416  37.716  55.454  0.00  0.00    +0.000 A 
ENDBRANCH  17  20
ENDBRANCH  10  17
TORSDOF 4
ENDMDL
