MODEL 1
REMARK VINA RESULT:    -6.727      0.000      0.000
REMARK INTER + INTRA:          -8.473
REMARK INTER:                  -7.970
REMARK INTRA:                  -0.503
REMARK UNBOUND:                -0.566
REMARK  Name = 
REMARK  4 active torsions:
REMARK  status: ('A' for Active; 'I' for Inactive)
REMARK    1  A    between atoms: C_1  and  N_2
REMARK    2  A    between atoms: C_11  and  C_12
REMARK    3  A    between atoms: C_16  and  N_17
REMARK    4  A    between atoms: N_17  and  C_18
REMARK                            x       y       z     vdW  Elec       q    Type
REMARK                         _______ _______ _______ _____ _____    ______ ____
ROOT
ATOM      1  C   UNL     1      13.960  45.514  53.442  0.00  0.00    +0.000 A 
ATOM      2  C   UNL     1      14.692  46.696  53.318  0.00  0.00    +0.000 A 
ATOM      3  C   UNL     1      14.059  47.941  53.395  0.00  0.00    +0.000 A 
ATOM      4  C   UNL     1      12.661  48.051  53.602  0.00  0.00    +0.000 A 
ATOM      5  C   UNL     1      11.947  49.284  53.710  0.00  0.00    +0.000 A 
ATOM      6  C   UNL     1      10.556  49.230  53.817  0.00  0.00    +0.000 A 
ATOM      7  C   UNL     1       9.935  48.001  53.908  0.00  0.00    +0.000 A 
ATOM      8  N   UNL     1      10.590  46.827  53.871  0.00  0.00    +0.000 NA
ATOM      9  C   UNL     1      11.918  46.853  53.709  0.00  0.00    +0.000 A 
ATOM     10  C   UNL     1      12.574  45.630  53.634  0.00  0.00    +0.000 A 
ENDROOT
BRANCH   1  21
ATOM     11  C   UNL     1      17.307  35.810  50.775  0.00  0.00    +0.000 C 
ATOM     12  N   UNL     1      16.141  36.490  51.333  0.00  0.00    +0.000 NA
ATOM     13  C   UNL     1      16.146  37.917  50.972  0.00  0.00    +0.000 C 
ATOM     14  C   UNL     1      16.565  38.290  52.415  0.00  0.00    +0.000 C 
ATOM     15  C   UNL     1      17.976  38.864  52.557  0.00  0.00    +0.000 C 
ATOM     16  C   UNL     1      17.723  40.371  52.512  0.00  0.00    +0.000 C 
ATOM     17  N   UNL     1      16.461  40.508  53.213  0.00  0.00    +0.000 N 
ATOM     18  C   UNL     1      15.841  41.733  53.249  0.00  0.00    +0.000 A 
ATOM     19  N   UNL     1      16.555  42.826  52.934  0.00  0.00    +0.000 NA
ATOM     20  C   UNL     1      15.928  44.021  52.999  0.00  0.00    +0.000 A 
ATOM     21  C   UNL     1      14.611  44.201  53.371  0.00  0.00    +0.000 A 
ATOM     22  C   UNL     1      13.974  43.015  53.673  0.00  0.00    +0.000 A 
ATOM     23  N   UNL     1      14.553  41.795  53.621  0.00  0.00    +0.000 NA
ATOM     24  C   UNL     1      15.649  39.299  53.120  0.00  0.00    +0.000 C 
ATOM     25  C   UNL     1      16.352  36.801  52.755  0.00  0.00    +0.000 C 
ENDBRANCH   1  21
BRANCH   5  26
ATOM     26  N   UNL     1      12.621  50.531  53.573  0.00  0.00    +0.000 N 
ATOM     27  H   UNL     1      12.250  51.226  54.210  0.00  0.00    +0.000 HD
BRANCH  26  28
ATOM     28  C   UNL     1      13.029  51.202  52.391  0.00  0.00    +0.000 A 
ATOM     29  C   UNL     1      14.401  51.341  52.142  0.00  0.00    +0.000 A 
ATOM     30  N   UNL     1      14.920  51.973  51.059  0.00  0.00    +0.000 NA
ATOM     31  C   UNL     1      14.005  52.464  50.200  0.00  0.00    +0.000 A 
ATOM     32  C   UNL     1      12.648  52.330  50.418  0.00  0.00    +0.000 A 
ATOM     33  N   UNL     1      12.140  51.702  51.506  0.00  0.00    +0.000 NA
ENDBRANCH  26  28
ENDBRANCH   5  26
TORSDOF 3
ENDMDL
MODEL 2
REMARK VINA RESULT:    -6.686      6.930      7.648
REMARK INTER + INTRA:          -8.425
REMARK INTER:                  -7.889
REMARK INTRA:                  -0.536
REMARK UNBOUND:                -0.566
REMARK  Name = 
REMARK  4 active torsions:
REMARK  status: ('A' for Active; 'I' for Inactive)
REMARK    1  A    between atoms: C_1  and  N_2
REMARK    2  A    between atoms: C_11  and  C_12
REMARK    3  A    between atoms: C_16  and  N_17
REMARK    4  A    between atoms: N_17  and  C_18
REMARK                            x       y       z     vdW  Elec       q    Type
REMARK                         _______ _______ _______ _____ _____    ______ ____
ROOT
ATOM      1  C   UNL     1      13.723  45.645  45.415  0.00  0.00    +0.000 A 
ATOM      2  C   UNL     1      14.127  46.918  45.008  0.00  0.00    +0.000 A 
ATOM      3  C   UNL     1      13.441  48.058  45.441  0.00  0.00    +0.000 A 
ATOM      4  C   UNL     1      12.320  47.967  46.303  0.00  0.00    +0.000 A 
ATOM      5  C   UNL     1      11.580  49.084  46.802  0.00  0.00    +0.000 A 
ATOM      6  C   UNL     1      10.440  48.828  47.566  0.00  0.00    +0.000 A 
ATOM      7  C   UNL     1      10.123  47.525  47.886  0.00  0.00    +0.000 A 
ATOM      8  N   UNL     1      10.837  46.459  47.481  0.00  0.00    +0.000 NA
ATOM      9  C   UNL     1      11.901  46.676  46.699  0.00  0.00    +0.000 A 
ATOM     10  C   UNL     1      12.604  45.561  46.258  0.00  0.00    +0.000 A 
ENDROOT
BRANCH   1  21
ATOM     11  C   UNL     1      16.539  35.923  42.245  0.00  0.00    +0.000 C 
ATOM     12  N   UNL     1      16.127  36.646  43.446  0.00  0.00    +0.000 NA
ATOM     13  C   UNL     1      15.395  37.873  43.092  0.00  0.00    +0.000 C 
ATOM     14  C   UNL     1      16.627  38.729  43.474  0.00  0.00    +0.000 C 
ATOM     15  C   UNL     1      17.318  39.436  42.307  0.00  0.00    +0.000 C 
ATOM     16  C   UNL     1      16.668  40.819  42.329  0.00  0.00    +0.000 C 
ATOM     17  N   UNL     1      16.488  41.069  43.747  0.00  0.00    +0.000 N 
ATOM     18  C   UNL     1      15.791  42.182  44.151  0.00  0.00    +0.000 A 
ATOM     19  N   UNL     1      15.584  43.169  43.265  0.00  0.00    +0.000 NA
ATOM     20  C   UNL     1      14.916  44.263  43.694  0.00  0.00    +0.000 A 
ATOM     21  C   UNL     1      14.437  44.441  44.975  0.00  0.00    +0.000 A 
ATOM     22  C   UNL     1      14.704  43.368  45.800  0.00  0.00    +0.000 A 
ATOM     23  N   UNL     1      15.365  42.251  45.421  0.00  0.00    +0.000 NA
ATOM     24  C   UNL     1      16.360  39.830  44.509  0.00  0.00    +0.000 C 
ATOM     25  C   UNL     1      17.249  37.419  43.999  0.00  0.00    +0.000 C 
ENDBRANCH   1  21
BRANCH   5  26
ATOM     26  N   UNL     1      11.918  50.412  46.415  0.00  0.00    +0.000 N 
ATOM     27  H   UNL     1      12.016  50.493  45.410  0.00  0.00    +0.000 HD
BRANCH  26  28
ATOM     28  C   UNL     1      12.836  51.312  47.014  0.00  0.00    +0.000 A 
ATOM     29  C   UNL     1      14.012  51.627  46.321  0.00  0.00    +0.000 A 
ATOM     30  N   UNL     1      14.975  52.460  46.790  0.00  0.00    +0.000 NA
ATOM     31  C   UNL     1      14.718  52.996  48.000  0.00  0.00    +0.000 A 
ATOM     32  C   UNL     1      13.560  52.710  48.697  0.00  0.00    +0.000 A 
ATOM     33  N   UNL     1      12.607  51.872  48.222  0.00  0.00    +0.000 NA
ENDBRANCH  26  28
ENDBRANCH   5  26
TORSDOF 3
ENDMDL
MODEL 3
REMARK VINA RESULT:    -6.528      6.366      7.134
REMARK INTER + INTRA:          -8.239
REMARK INTER:                  -7.673
REMARK INTRA:                  -0.566
REMARK UNBOUND:                -0.566
REMARK  Name = 
REMARK  4 active torsions:
REMARK  status: ('A' for Active; 'I' for Inactive)
REMARK    1  A    between atoms: C_1  and  N_2
REMARK    2  A    between atoms: C_11  and  C_12
REMARK    3  A    between atoms: C_16  and  N_17
REMARK    4  A    between atoms: N_17  and  C_18
REMARK                            x       y       z     vdW  Elec       q    Type
REMARK                         _______ _______ _______ _____ _____    ______ ____
ROOT
ATOM      1  C   UNL     1      13.668  45.147  45.688  0.00  0.00    +0.000 A 
ATOM      2  C   UNL     1      14.339  46.132  44.962  0.00  0.00    +0.000 A 
ATOM      3  C   UNL     1      13.945  47.472  45.040  0.00  0.00    +0.000 A 
ATOM      4  C   UNL     1      12.860  47.880  45.856  0.00  0.00    +0.000 A 
ATOM      5  C   UNL     1      12.410  49.229  46.003  0.00  0.00    +0.000 A 
ATOM      6  C   UNL     1      11.266  49.460  46.769  0.00  0.00    +0.000 A 
ATOM      7  C   UNL     1      10.670  48.403  47.425  0.00  0.00    +0.000 A 
ATOM      8  N   UNL     1      11.109  47.134  47.352  0.00  0.00    +0.000 NA
ATOM      9  C   UNL     1      12.170  46.878  46.577  0.00  0.00    +0.000 A 
ATOM     10  C   UNL     1      12.586  45.555  46.484  0.00  0.00    +0.000 A 
ENDROOT
BRANCH   1  21
ATOM     11  C   UNL     1      18.496  35.762  46.736  0.00  0.00    +0.000 C 
ATOM     12  N   UNL     1      18.646  37.040  46.045  0.00  0.00    +0.000 NA
ATOM     13  C   UNL     1      17.889  38.099  46.733  0.00  0.00    +0.000 C 
ATOM     14  C   UNL     1      16.815  38.068  45.618  0.00  0.00    +0.000 C 
ATOM     15  C   UNL     1      15.445  37.541  46.047  0.00  0.00    +0.000 C 
ATOM     16  C   UNL     1      14.691  38.826  46.387  0.00  0.00    +0.000 C 
ATOM     17  N   UNL     1      15.191  39.765  45.400  0.00  0.00    +0.000 N 
ATOM     18  C   UNL     1      14.831  41.088  45.487  0.00  0.00    +0.000 A 
ATOM     19  N   UNL     1      13.785  41.422  46.260  0.00  0.00    +0.000 NA
ATOM     20  C   UNL     1      13.437  42.727  46.310  0.00  0.00    +0.000 A 
ATOM     21  C   UNL     1      14.075  43.739  45.621  0.00  0.00    +0.000 A 
ATOM     22  C   UNL     1      15.132  43.285  44.861  0.00  0.00    +0.000 A 
ATOM     23  N   UNL     1      15.523  41.993  44.778  0.00  0.00    +0.000 NA
ATOM     24  C   UNL     1      16.534  39.418  44.947  0.00  0.00    +0.000 C 
ATOM     25  C   UNL     1      17.761  37.104  44.872  0.00  0.00    +0.000 C 
ENDBRANCH   1  21
BRANCH   5  26
ATOM     26  N   UNL     1      13.030  50.286  45.277  0.00  0.00    +0.000 N 
ATOM     27  H   UNL     1      13.168  50.038  44.305  0.00  0.00    +0.000 HD
BRANCH  26  28
ATOM     28  C   UNL     1      14.101  51.130  45.666  0.00  0.00    +0.000 A 
ATOM     29  C   UNL     1      15.321  51.019  44.986  0.00  0.00    +0.000 A 
ATOM     30  N   UNL     1      16.424  51.756  45.271  0.00  0.00    +0.000 NA
ATOM     31  C   UNL     1      16.268  52.641  46.275  0.00  0.00    +0.000 A 
ATOM     32  C   UNL     1      15.072  52.777  46.953  0.00  0.00    +0.000 A 
ATOM     33  N   UNL     1      13.978  52.032  46.664  0.00  0.00    +0.000 NA
ENDBRANCH  26  28
ENDBRANCH   5  26
TORSDOF 3
ENDMDL
