MODEL 1
REMARK VINA RESULT:    -7.086      0.000      0.000
REMARK INTER + INTRA:          -9.886
REMARK INTER:                  -8.756
REMARK INTRA:                  -1.130
REMARK UNBOUND:                -0.729
REMARK  Name = 
REMARK  5 active torsions:
REMARK  status: ('A' for Active; 'I' for Inactive)
REMARK    1  A    between atoms: N_3  and  C_4
REMARK    2  A    between atoms: C_7  and  O_8
REMARK    3  A    between atoms: O_8  and  C_9
REMARK    4  A    between atoms: N_23  and  C_24
REMARK    5  A    between atoms: C_26  and  C_27
REMARK                            x       y       z     vdW  Elec       q    Type
REMARK                         _______ _______ _______ _____ _____    ______ ____
ROOT
ATOM      1  C   UNL     1      15.516  41.678  43.988  0.00  0.00    +0.000 A 
ATOM      2  C   UNL     1      14.718  40.536  43.981  0.00  0.00    +0.000 A 
ATOM      3  C   UNL     1      15.000  39.489  43.096  0.00  0.00    +0.000 A 
ATOM      4  C   UNL     1      16.070  39.580  42.201  0.00  0.00    +0.000 A 
ATOM      5  C   UNL     1      16.883  40.712  42.208  0.00  0.00    +0.000 A 
ATOM      6  C   UNL     1      16.591  41.747  43.092  0.00  0.00    +0.000 A 
ATOM      7  F   UNL     1      17.372  42.840  43.086  0.00  0.00    +0.000 F 
ENDROOT
BRANCH   1  10
ATOM      8  O   UNL     1      14.049  44.199  43.492  0.00  0.00    +0.000 OA
ATOM      9  C   UNL     1      14.633  43.961  44.538  0.00  0.00    +0.000 C 
ATOM     10  N   UNL     1      15.310  42.791  44.832  0.00  0.00    +0.000 N 
ATOM     11  N   UNL     1      14.757  44.853  45.596  0.00  0.00    +0.000 N 
ATOM     12  H   UNL     1      15.533  42.635  45.806  0.00  0.00    +0.000 HD
ATOM     13  H   UNL     1      15.649  44.807  46.067  0.00  0.00    +0.000 HD
BRANCH  11  14
ATOM     14  C   UNL     1      14.028  46.056  45.726  0.00  0.00    +0.000 A 
ATOM     15  C   UNL     1      14.612  47.223  45.214  0.00  0.00    +0.000 A 
ATOM     16  C   UNL     1      13.951  48.463  45.305  0.00  0.00    +0.000 A 
ATOM     17  C   UNL     1      12.698  48.525  45.933  0.00  0.00    +0.000 A 
ATOM     18  C   UNL     1      12.128  47.373  46.475  0.00  0.00    +0.000 A 
ATOM     19  C   UNL     1      12.794  46.153  46.379  0.00  0.00    +0.000 A 
ATOM     20  F   UNL     1      12.251  45.100  47.007  0.00  0.00    +0.000 F 
BRANCH  16  21
ATOM     21  C   UNL     1      14.568  49.718  44.733  0.00  0.00    +0.000 C 
ATOM     22  F   UNL     1      14.428  50.791  45.558  0.00  0.00    +0.000 F 
ATOM     23  F   UNL     1      15.904  49.585  44.511  0.00  0.00    +0.000 F 
ATOM     24  F   UNL     1      14.027  50.091  43.539  0.00  0.00    +0.000 F 
ENDBRANCH  16  21
ENDBRANCH  11  14
ENDBRANCH   1  10
BRANCH   4  25
ATOM     25  O   UNL     1      16.278  38.483  41.393  0.00  0.00    +0.000 OA
BRANCH  25  26
ATOM     26  C   UNL     1      17.491  37.840  41.496  0.00  0.00    +0.000 A 
ATOM     27  C   UNL     1      17.736  37.152  42.683  0.00  0.00    +0.000 A 
ATOM     28  C   UNL     1      18.933  36.469  42.806  0.00  0.00    +0.000 A 
ATOM     29  N   UNL     1      19.871  36.421  41.836  0.00  0.00    +0.000 NA
ATOM     30  C   UNL     1      19.586  37.072  40.688  0.00  0.00    +0.000 A 
ATOM     31  N   UNL     1      20.548  36.999  39.686  0.00  0.00    +0.000 N 
ATOM     32  C   UNL     1      20.377  37.603  38.474  0.00  0.00    +0.000 A 
ATOM     33  O   UNL     1      21.184  37.577  37.558  0.00  0.00    +0.000 OA
ATOM     34  C   UNL     1      19.074  38.352  38.295  0.00  0.00    +0.000 A 
ATOM     35  N   UNL     1      18.159  38.444  39.210  0.00  0.00    +0.000 NA
ATOM     36  C   UNL     1      18.412  37.798  40.444  0.00  0.00    +0.000 A 
ATOM     37  H   UNL     1      21.389  36.474  39.874  0.00  0.00    +0.000 HD
ENDBRANCH  25  26
ENDBRANCH   4  25
TORSDOF 5
ENDMDL
MODEL 2
REMARK VINA RESULT:    -6.991      1.375      2.018
REMARK INTER + INTRA:          -9.763
REMARK INTER:                  -8.748
REMARK INTRA:                  -1.016
REMARK UNBOUND:                -0.729
REMARK  Name = 
REMARK  5 active torsions:
REMARK  status: ('A' for Active; 'I' for Inactive)
REMARK    1  A    between atoms: N_3  and  C_4
REMARK    2  A    between atoms: C_7  and  O_8
REMARK    3  A    between atoms: O_8  and  C_9
REMARK    4  A    between atoms: N_23  and  C_24
REMARK    5  A    between atoms: C_26  and  C_27
REMARK                            x       y       z     vdW  Elec       q    Type
REMARK                         _______ _______ _______ _____ _____    ______ ____
ROOT
ATOM      1  C   UNL     1      15.910  42.076  44.522  0.00  0.00    +0.000 A 
ATOM      2  C   UNL     1      15.576  40.836  45.062  0.00  0.00    +0.000 A 
ATOM      3  C   UNL     1      15.905  39.661  44.376  0.00  0.00    +0.000 A 
ATOM      4  C   UNL     1      16.557  39.715  43.141  0.00  0.00    +0.000 A 
ATOM      5  C   UNL     1      16.909  40.950  42.598  0.00  0.00    +0.000 A 
ATOM      6  C   UNL     1      16.574  42.111  43.288  0.00  0.00    +0.000 A 
ATOM      7  F   UNL     1      16.906  43.298  42.754  0.00  0.00    +0.000 F 
ENDROOT
BRANCH   1  10
ATOM      8  O   UNL     1      13.725  43.992  43.969  0.00  0.00    +0.000 OA
ATOM      9  C   UNL     1      14.588  44.189  44.811  0.00  0.00    +0.000 C 
ATOM     10  N   UNL     1      15.614  43.317  45.128  0.00  0.00    +0.000 N 
ATOM     11  N   UNL     1      14.712  45.352  45.560  0.00  0.00    +0.000 N 
ATOM     12  H   UNL     1      16.102  43.496  45.996  0.00  0.00    +0.000 HD
ATOM     13  H   UNL     1      15.668  45.627  45.733  0.00  0.00    +0.000 HD
BRANCH  11  14
ATOM     14  C   UNL     1      13.731  46.365  45.645  0.00  0.00    +0.000 A 
ATOM     15  C   UNL     1      14.005  47.584  45.011  0.00  0.00    +0.000 A 
ATOM     16  C   UNL     1      13.081  48.645  45.049  0.00  0.00    +0.000 A 
ATOM     17  C   UNL     1      11.877  48.476  45.750  0.00  0.00    +0.000 A 
ATOM     18  C   UNL     1      11.613  47.278  46.412  0.00  0.00    +0.000 A 
ATOM     19  C   UNL     1      12.538  46.236  46.366  0.00  0.00    +0.000 A 
ATOM     20  F   UNL     1      12.282  45.148  47.106  0.00  0.00    +0.000 F 
BRANCH  16  21
ATOM     21  C   UNL     1      13.364  49.952  44.346  0.00  0.00    +0.000 C 
ATOM     22  F   UNL     1      14.582  49.964  43.738  0.00  0.00    +0.000 F 
ATOM     23  F   UNL     1      12.453  50.225  43.373  0.00  0.00    +0.000 F 
ATOM     24  F   UNL     1      13.353  51.029  45.181  0.00  0.00    +0.000 F 
ENDBRANCH  16  21
ENDBRANCH  11  14
ENDBRANCH   1  10
BRANCH   4  25
ATOM     25  O   UNL     1      16.861  38.501  42.564  0.00  0.00    +0.000 OA
BRANCH  25  26
ATOM     26  C   UNL     1      16.640  38.368  41.211  0.00  0.00    +0.000 A 
ATOM     27  C   UNL     1      15.328  38.116  40.812  0.00  0.00    +0.000 A 
ATOM     28  C   UNL     1      15.068  38.007  39.458  0.00  0.00    +0.000 A 
ATOM     29  N   UNL     1      16.010  38.145  38.500  0.00  0.00    +0.000 NA
ATOM     30  C   UNL     1      17.263  38.420  38.921  0.00  0.00    +0.000 A 
ATOM     31  N   UNL     1      18.223  38.582  37.928  0.00  0.00    +0.000 N 
ATOM     32  C   UNL     1      19.524  38.876  38.220  0.00  0.00    +0.000 A 
ATOM     33  O   UNL     1      20.410  39.026  37.394  0.00  0.00    +0.000 OA
ATOM     34  C   UNL     1      19.848  39.014  39.691  0.00  0.00    +0.000 A 
ATOM     35  N   UNL     1      18.978  38.864  40.643  0.00  0.00    +0.000 NA
ATOM     36  C   UNL     1      17.651  38.553  40.262  0.00  0.00    +0.000 A 
ATOM     37  H   UNL     1      17.931  38.484  36.967  0.00  0.00    +0.000 HD
ENDBRANCH  25  26
ENDBRANCH   4  25
TORSDOF 5
ENDMDL
MODEL 3
REMARK VINA RESULT:    -6.630      4.291     11.161
REMARK INTER + INTRA:          -9.297
REMARK INTER:                  -8.568
REMARK INTRA:                  -0.729
REMARK UNBOUND:                -0.729
REMARK  Name = 
REMARK  5 active torsions:
REMARK  status: ('A' for Active; 'I' for Inactive)
REMARK    1  A    between atoms: N_3  and  C_4
REMARK    2  A    between atoms: C_7  and  O_8
REMARK    3  A    between atoms: O_8  and  C_9
REMARK    4  A    between atoms: N_23  and  C_24
REMARK    5  A    between atoms: C_26  and  C_27
REMARK                            x       y       z     vdW  Elec       q    Type
REMARK                         _______ _______ _______ _____ _____    ______ ____
ROOT
ATOM      1  C   UNL     1      13.111  46.105  44.298  0.00  0.00    +0.000 A 
ATOM      2  C   UNL     1      12.383  46.830  43.356  0.00  0.00    +0.000 A 
ATOM      3  C   UNL     1      12.340  48.228  43.428  0.00  0.00    +0.000 A 
ATOM      4  C   UNL     1      13.008  48.911  44.448  0.00  0.00    +0.000 A 
ATOM      5  C   UNL     1      13.750  48.196  45.387  0.00  0.00    +0.000 A 
ATOM      6  C   UNL     1      13.784  46.807  45.307  0.00  0.00    +0.000 A 
ATOM      7  F   UNL     1      14.492  46.125  46.222  0.00  0.00    +0.000 F 
ENDROOT
BRANCH   1  10
ATOM      8  O   UNL     1      15.382  44.346  43.594  0.00  0.00    +0.000 OA
ATOM      9  C   UNL     1      14.294  43.921  43.953  0.00  0.00    +0.000 C 
ATOM     10  N   UNL     1      13.210  44.697  44.319  0.00  0.00    +0.000 N 
ATOM     11  N   UNL     1      13.948  42.576  44.006  0.00  0.00    +0.000 N 
ATOM     12  H   UNL     1      12.468  44.224  44.819  0.00  0.00    +0.000 HD
ATOM     13  H   UNL     1      12.992  42.390  43.742  0.00  0.00    +0.000 HD
BRANCH  11  14
ATOM     14  C   UNL     1      14.862  41.504  43.898  0.00  0.00    +0.000 A 
ATOM     15  C   UNL     1      15.224  40.843  45.079  0.00  0.00    +0.000 A 
ATOM     16  C   UNL     1      16.129  39.765  45.059  0.00  0.00    +0.000 A 
ATOM     17  C   UNL     1      16.686  39.365  43.834  0.00  0.00    +0.000 A 
ATOM     18  C   UNL     1      16.357  40.041  42.660  0.00  0.00    +0.000 A 
ATOM     19  C   UNL     1      15.459  41.107  42.696  0.00  0.00    +0.000 A 
ATOM     20  F   UNL     1      15.260  41.787  41.558  0.00  0.00    +0.000 F 
BRANCH  16  21
ATOM     21  C   UNL     1      16.502  39.035  46.328  0.00  0.00    +0.000 C 
ATOM     22  F   UNL     1      15.938  37.799  46.404  0.00  0.00    +0.000 F 
ATOM     23  F   UNL     1      17.845  38.845  46.442  0.00  0.00    +0.000 F 
ATOM     24  F   UNL     1      16.121  39.690  47.460  0.00  0.00    +0.000 F 
ENDBRANCH  16  21
ENDBRANCH  11  14
ENDBRANCH   1  10
BRANCH   4  25
ATOM     25  O   UNL     1      12.924  50.285  44.412  0.00  0.00    +0.000 OA
BRANCH  25  26
ATOM     26  C   UNL     1      13.733  50.994  45.272  0.00  0.00    +0.000 A 
ATOM     27  C   UNL     1      13.174  51.366  46.493  0.00  0.00    +0.000 A 
ATOM     28  C   UNL     1      13.971  52.052  47.392  0.00  0.00    +0.000 A 
ATOM     29  N   UNL     1      15.262  52.370  47.160  0.00  0.00    +0.000 NA
ATOM     30  C   UNL     1      15.779  51.966  45.980  0.00  0.00    +0.000 A 
ATOM     31  N   UNL     1      17.116  52.278  45.757  0.00  0.00    +0.000 N 
ATOM     32  C   UNL     1      17.762  51.915  44.610  0.00  0.00    +0.000 A 
ATOM     33  O   UNL     1      18.930  52.163  44.356  0.00  0.00    +0.000 OA
ATOM     34  C   UNL     1      16.928  51.153  43.603  0.00  0.00    +0.000 A 
ATOM     35  N   UNL     1      15.678  50.851  43.778  0.00  0.00    +0.000 NA
ATOM     36  C   UNL     1      15.075  51.267  44.989  0.00  0.00    +0.000 A 
ATOM     37  H   UNL     1      17.612  52.781  46.477  0.00  0.00    +0.000 HD
ENDBRANCH  25  26
ENDBRANCH   4  25
TORSDOF 5
ENDMDL
