MODEL 1
REMARK VINA RESULT:    -6.523      0.000      0.000
REMARK INTER + INTRA:          -8.616
REMARK INTER:                  -8.048
REMARK INTRA:                  -0.568
REMARK UNBOUND:                -0.568
REMARK  Name = 
REMARK  8 active torsions:
REMARK  status: ('A' for Active; 'I' for Inactive)
REMARK    1  A    between atoms: C_1  and  C_2
REMARK    2  A    between atoms: C_7  and  C_8
REMARK    3  A    between atoms: C_8  and  N_9
REMARK    4  A    between atoms: N_9  and  C_10
REMARK    5  A    between atoms: C_11  and  C_13
REMARK    6  A    between atoms: C_14  and  C_15
REMARK    7  A    between atoms: C_26  and  C_27
REMARK    8  A    between atoms: N_28  and  C_29
REMARK                            x       y       z     vdW  Elec       q    Type
REMARK                         _______ _______ _______ _____ _____    ______ ____
ROOT
ATOM      1  N   UNL     1      16.130  38.720  51.234  0.00  0.00    +0.000 N 
ATOM      2  C   UNL     1      15.484  37.496  51.693  0.00  0.00    +0.000 C 
ATOM      3  C   UNL     1      17.463  39.025  51.427  0.00  0.00    +0.000 C 
ATOM      4  O   UNL     1      17.969  40.120  51.188  0.00  0.00    +0.000 OA
ENDROOT
BRANCH   3   5
ATOM      5  C   UNL     1      18.345  37.963  51.962  0.00  0.00    +0.000 C 
ATOM      6  C   UNL     1      19.006  37.162  51.111  0.00  0.00    +0.000 C 
BRANCH   6   7
ATOM      7  C   UNL     1      19.950  36.127  51.541  0.00  0.00    +0.000 A 
ATOM      8  C   UNL     1      19.788  35.386  52.711  0.00  0.00    +0.000 A 
ATOM      9  N   UNL     1      20.661  34.448  53.154  0.00  0.00    +0.000 NA
ATOM     10  C   UNL     1      21.750  34.235  52.396  0.00  0.00    +0.000 A 
ATOM     11  C   UNL     1      22.025  34.930  51.220  0.00  0.00    +0.000 A 
ATOM     12  C   UNL     1      21.112  35.900  50.800  0.00  0.00    +0.000 A 
ATOM     13  C   UNL     1      23.330  34.708  50.512  0.00  0.00    +0.000 C 
ATOM     14  C   UNL     1      23.827  33.283  50.708  0.00  0.00    +0.000 C 
ATOM     15  C   UNL     1      23.732  32.839  52.152  0.00  0.00    +0.000 C 
ATOM     16  O   UNL     1      24.531  32.046  52.642  0.00  0.00    +0.000 OA
ATOM     17  N   UNL     1      22.651  33.285  52.856  0.00  0.00    +0.000 N 
ATOM     18  H   UNL     1      22.484  32.903  53.776  0.00  0.00    +0.000 HD
ENDBRANCH   6   7
ENDBRANCH   3   5
BRANCH   1  19
ATOM     19  C   UNL     1      15.320  39.635  50.432  0.00  0.00    +0.000 C 
BRANCH  19  26
ATOM     20  C   UNL     1      12.408  43.736  54.308  0.00  0.00    +0.000 C 
ATOM     21  C   UNL     1      13.595  43.187  53.564  0.00  0.00    +0.000 A 
ATOM     22  C   UNL     1      14.819  43.880  53.670  0.00  0.00    +0.000 A 
ATOM     23  C   UNL     1      15.963  43.464  53.004  0.00  0.00    +0.000 A 
ATOM     24  C   UNL     1      15.926  42.330  52.197  0.00  0.00    +0.000 A 
ATOM     25  C   UNL     1      14.731  41.588  52.071  0.00  0.00    +0.000 A 
ATOM     26  C   UNL     1      14.395  40.412  51.326  0.00  0.00    +0.000 A 
ATOM     27  C   UNL     1      13.054  40.148  51.571  0.00  0.00    +0.000 A 
ATOM     28  C   UNL     1      12.187  39.073  51.002  0.00  0.00    +0.000 C 
ATOM     29  N   UNL     1      12.605  41.069  52.496  0.00  0.00    +0.000 N 
ATOM     30  C   UNL     1      11.290  41.037  53.105  0.00  0.00    +0.000 C 
ATOM     31  C   UNL     1      13.590  42.009  52.769  0.00  0.00    +0.000 A 
ENDBRANCH  19  26
ENDBRANCH   1  19
TORSDOF 4
ENDMDL
MODEL 2
REMARK VINA RESULT:    -6.504      2.836     10.461
REMARK INTER + INTRA:          -8.592
REMARK INTER:                  -7.854
REMARK INTRA:                  -0.738
REMARK UNBOUND:                -0.568
REMARK  Name = 
REMARK  8 active torsions:
REMARK  status: ('A' for Active; 'I' for Inactive)
REMARK    1  A    between atoms: C_1  and  C_2
REMARK    2  A    between atoms: C_7  and  C_8
REMARK    3  A    between atoms: C_8  and  N_9
REMARK    4  A    between atoms: N_9  and  C_10
REMARK    5  A    between atoms: C_11  and  C_13
REMARK    6  A    between atoms: C_14  and  C_15
REMARK    7  A    between atoms: C_26  and  C_27
REMARK    8  A    between atoms: N_28  and  C_29
REMARK                            x       y       z     vdW  Elec       q    Type
REMARK                         _______ _______ _______ _____ _____    ______ ____
ROOT
ATOM      1  N   UNL     1      18.903  35.670  52.224  0.00  0.00    +0.000 N 
ATOM      2  C   UNL     1      19.774  36.592  51.503  0.00  0.00    +0.000 C 
ATOM      3  C   UNL     1      17.737  36.033  52.870  0.00  0.00    +0.000 C 
ATOM      4  O   UNL     1      17.092  35.294  53.611  0.00  0.00    +0.000 OA
ENDROOT
BRANCH   3   5
ATOM      5  C   UNL     1      17.229  37.408  52.658  0.00  0.00    +0.000 C 
ATOM      6  C   UNL     1      17.103  38.234  53.708  0.00  0.00    +0.000 C 
BRANCH   6   7
ATOM      7  C   UNL     1      16.672  39.630  53.593  0.00  0.00    +0.000 A 
ATOM      8  C   UNL     1      17.479  40.635  53.061  0.00  0.00    +0.000 A 
ATOM      9  N   UNL     1      17.123  41.940  52.973  0.00  0.00    +0.000 NA
ATOM     10  C   UNL     1      15.904  42.264  53.437  0.00  0.00    +0.000 A 
ATOM     11  C   UNL     1      15.022  41.348  54.007  0.00  0.00    +0.000 A 
ATOM     12  C   UNL     1      15.426  40.013  54.095  0.00  0.00    +0.000 A 
ATOM     13  C   UNL     1      13.735  41.830  54.610  0.00  0.00    +0.000 C 
ATOM     14  C   UNL     1      13.215  43.061  53.884  0.00  0.00    +0.000 C 
ATOM     15  C   UNL     1      14.303  44.088  53.650  0.00  0.00    +0.000 C 
ATOM     16  O   UNL     1      14.066  45.293  53.629  0.00  0.00    +0.000 OA
ATOM     17  N   UNL     1      15.545  43.602  53.362  0.00  0.00    +0.000 N 
ATOM     18  H   UNL     1      16.261  44.252  53.068  0.00  0.00    +0.000 HD
ENDBRANCH   6   7
ENDBRANCH   3   5
BRANCH   1  19
ATOM     19  C   UNL     1      19.251  34.251  52.169  0.00  0.00    +0.000 C 
BRANCH  19  26
ATOM     20  C   UNL     1      24.184  33.591  56.112  0.00  0.00    +0.000 C 
ATOM     21  C   UNL     1      22.772  33.978  55.764  0.00  0.00    +0.000 A 
ATOM     22  C   UNL     1      21.945  34.461  56.801  0.00  0.00    +0.000 A 
ATOM     23  C   UNL     1      20.623  34.822  56.582  0.00  0.00    +0.000 A 
ATOM     24  C   UNL     1      20.071  34.709  55.309  0.00  0.00    +0.000 A 
ATOM     25  C   UNL     1      20.860  34.248  54.233  0.00  0.00    +0.000 A 
ATOM     26  C   UNL     1      20.573  34.025  52.847  0.00  0.00    +0.000 A 
ATOM     27  C   UNL     1      21.737  33.542  52.266  0.00  0.00    +0.000 A 
ATOM     28  C   UNL     1      21.973  33.097  50.860  0.00  0.00    +0.000 C 
ATOM     29  N   UNL     1      22.725  33.549  53.231  0.00  0.00    +0.000 N 
ATOM     30  C   UNL     1      24.117  33.240  52.973  0.00  0.00    +0.000 C 
ATOM     31  C   UNL     1      22.201  33.910  54.465  0.00  0.00    +0.000 A 
ENDBRANCH  19  26
ENDBRANCH   1  19
TORSDOF 4
ENDMDL
MODEL 3
REMARK VINA RESULT:    -6.459      8.211     13.466
REMARK INTER + INTRA:          -8.537
REMARK INTER:                  -7.796
REMARK INTRA:                  -0.741
REMARK UNBOUND:                -0.568
REMARK  Name = 
REMARK  8 active torsions:
REMARK  status: ('A' for Active; 'I' for Inactive)
REMARK    1  A    between atoms: C_1  and  C_2
REMARK    2  A    between atoms: C_7  and  C_8
REMARK    3  A    between atoms: C_8  and  N_9
REMARK    4  A    between atoms: N_9  and  C_10
REMARK    5  A    between atoms: C_11  and  C_13
REMARK    6  A    between atoms: C_14  and  C_15
REMARK    7  A    between atoms: C_26  and  C_27
REMARK    8  A    between atoms: N_28  and  C_29
REMARK                            x       y       z     vdW  Elec       q    Type
REMARK                         _______ _______ _______ _____ _____    ______ ____
ROOT
ATOM      1  N   UNL     1      14.423  42.475  44.401  0.00  0.00    +0.000 N 
ATOM      2  C   UNL     1      15.282  43.004  43.348  0.00  0.00    +0.000 C 
ATOM      3  C   UNL     1      13.966  43.203  45.483  0.00  0.00    +0.000 C 
ATOM      4  O   UNL     1      13.382  42.720  46.451  0.00  0.00    +0.000 OA
ENDROOT
BRANCH   3   5
ATOM      5  C   UNL     1      14.198  44.665  45.479  0.00  0.00    +0.000 C 
ATOM      6  C   UNL     1      13.163  45.499  45.665  0.00  0.00    +0.000 C 
BRANCH   6   7
ATOM      7  C   UNL     1      13.301  46.955  45.743  0.00  0.00    +0.000 A 
ATOM      8  C   UNL     1      12.304  47.789  46.250  0.00  0.00    +0.000 A 
ATOM      9  N   UNL     1      12.387  49.141  46.302  0.00  0.00    +0.000 NA
ATOM     10  C   UNL     1      13.517  49.694  45.828  0.00  0.00    +0.000 A 
ATOM     11  C   UNL     1      14.569  48.962  45.282  0.00  0.00    +0.000 A 
ATOM     12  C   UNL     1      14.445  47.571  45.230  0.00  0.00    +0.000 A 
ATOM     13  C   UNL     1      15.733  49.679  44.664  0.00  0.00    +0.000 C 
ATOM     14  C   UNL     1      15.989  51.009  45.356  0.00  0.00    +0.000 C 
ATOM     15  C   UNL     1      14.715  51.800  45.565  0.00  0.00    +0.000 C 
ATOM     16  O   UNL     1      14.701  53.027  45.554  0.00  0.00    +0.000 OA
ATOM     17  N   UNL     1      13.596  51.079  45.868  0.00  0.00    +0.000 N 
ATOM     18  H   UNL     1      12.762  51.577  46.145  0.00  0.00    +0.000 HD
ENDBRANCH   6   7
ENDBRANCH   3   5
BRANCH   1  19
ATOM     19  C   UNL     1      13.942  41.104  44.237  0.00  0.00    +0.000 C 
BRANCH  19  26
ATOM     20  C   UNL     1      18.664  37.132  45.737  0.00  0.00    +0.000 C 
ATOM     21  C   UNL     1      17.578  38.123  46.054  0.00  0.00    +0.000 A 
ATOM     22  C   UNL     1      17.336  38.426  47.410  0.00  0.00    +0.000 A 
ATOM     23  C   UNL     1      16.341  39.311  47.803  0.00  0.00    +0.000 A 
ATOM     24  C   UNL     1      15.542  39.930  46.846  0.00  0.00    +0.000 A 
ATOM     25  C   UNL     1      15.754  39.677  45.473  0.00  0.00    +0.000 A 
ATOM     26  C   UNL     1      15.101  40.148  44.289  0.00  0.00    +0.000 A 
ATOM     27  C   UNL     1      15.729  39.539  43.211  0.00  0.00    +0.000 A 
ATOM     28  C   UNL     1      15.407  39.637  41.756  0.00  0.00    +0.000 C 
ATOM     29  N   UNL     1      16.779  38.790  43.704  0.00  0.00    +0.000 N 
ATOM     30  C   UNL     1      17.755  38.111  42.874  0.00  0.00    +0.000 C 
ATOM     31  C   UNL     1      16.779  38.798  45.092  0.00  0.00    +0.000 A 
ENDBRANCH  19  26
ENDBRANCH   1  19
TORSDOF 4
ENDMDL
