MODEL 1
REMARK VINA RESULT:    -6.775      0.000      0.000
REMARK INTER + INTRA:          -8.370
REMARK INTER:                  -7.852
REMARK INTRA:                  -0.519
REMARK UNBOUND:                -0.408
REMARK  Name = 
REMARK  4 active torsions:
REMARK  status: ('A' for Active; 'I' for Inactive)
REMARK    1  A    between atoms: C_2  and  C_3
REMARK    2  A    between atoms: C_2  and  C_9
REMARK    3  A    between atoms: C_11  and  O_12
REMARK    4  A    between atoms: C_21  and  O_22
REMARK                            x       y       z     vdW  Elec       q    Type
REMARK                         _______ _______ _______ _____ _____    ______ ____
ROOT
ATOM      1  C   UNL     1      14.159  44.980  45.079  0.00  0.00    +0.000 A 
ATOM      2  C   UNL     1      14.571  44.897  43.749  0.00  0.00    +0.000 A 
ATOM      3  C   UNL     1      15.175  43.729  43.286  0.00  0.00    +0.000 A 
ATOM      4  C   UNL     1      15.391  42.639  44.144  0.00  0.00    +0.000 A 
ATOM      5  C   UNL     1      15.003  42.720  45.487  0.00  0.00    +0.000 A 
ATOM      6  C   UNL     1      14.390  43.901  45.945  0.00  0.00    +0.000 A 
ATOM      7  C   UNL     1      15.228  41.596  46.460  0.00  0.00    +0.000 C 
ATOM      8  C   UNL     1      15.867  40.355  45.894  0.00  0.00    +0.000 A 
ATOM      9  C   UNL     1      16.084  39.258  46.746  0.00  0.00    +0.000 A 
ATOM     10  C   UNL     1      16.676  38.088  46.265  0.00  0.00    +0.000 A 
ATOM     11  C   UNL     1      17.059  38.000  44.930  0.00  0.00    +0.000 A 
ATOM     12  C   UNL     1      16.851  39.081  44.078  0.00  0.00    +0.000 A 
ATOM     13  C   UNL     1      16.256  40.260  44.552  0.00  0.00    +0.000 A 
ATOM     14  C   UNL     1      16.034  41.405  43.643  0.00  0.00    +0.000 C 
ATOM     15  O   UNL     1      16.380  41.333  42.463  0.00  0.00    +0.000 OA
ENDROOT
BRANCH   1  17
ATOM     16  O   UNL     1      12.657  46.083  46.493  0.00  0.00    +0.000 OA
ATOM     17  C   UNL     1      13.526  46.205  45.633  0.00  0.00    +0.000 C 
BRANCH  17  18
ATOM     18  C   UNL     1      13.913  47.563  45.180  0.00  0.00    +0.000 A 
ATOM     19  C   UNL     1      12.959  48.337  44.508  0.00  0.00    +0.000 A 
ATOM     20  C   UNL     1      13.289  49.615  44.055  0.00  0.00    +0.000 A 
ATOM     21  C   UNL     1      14.575  50.116  44.257  0.00  0.00    +0.000 A 
ATOM     22  C   UNL     1      15.535  49.339  44.906  0.00  0.00    +0.000 A 
ATOM     23  C   UNL     1      15.209  48.061  45.361  0.00  0.00    +0.000 A 
ENDBRANCH  17  18
ENDBRANCH   1  17
BRANCH   3  24
ATOM     24  O   UNL     1      15.535  43.725  41.965  0.00  0.00    +0.000 OA
ATOM     25  H   UNL     1      14.722  43.586  41.429  0.00  0.00    +0.000 HD
ENDBRANCH   3  24
BRANCH  12  26
ATOM     26  O   UNL     1      17.257  38.913  42.781  0.00  0.00    +0.000 OA
ATOM     27  H   UNL     1      16.610  38.320  42.338  0.00  0.00    +0.000 HD
ENDBRANCH  12  26
TORSDOF 4
ENDMDL
MODEL 2
REMARK VINA RESULT:    -6.528      9.948     12.946
REMARK INTER + INTRA:          -8.081
REMARK INTER:                  -7.557
REMARK INTRA:                  -0.524
REMARK UNBOUND:                -0.408
REMARK  Name = 
REMARK  4 active torsions:
REMARK  status: ('A' for Active; 'I' for Inactive)
REMARK    1  A    between atoms: C_2  and  C_3
REMARK    2  A    between atoms: C_2  and  C_9
REMARK    3  A    between atoms: C_11  and  O_12
REMARK    4  A    between atoms: C_21  and  O_22
REMARK                            x       y       z     vdW  Elec       q    Type
REMARK                         _______ _______ _______ _____ _____    ______ ____
ROOT
ATOM      1  C   UNL     1      19.338  35.893  51.963  0.00  0.00    +0.000 A 
ATOM      2  C   UNL     1      19.476  34.937  52.970  0.00  0.00    +0.000 A 
ATOM      3  C   UNL     1      20.643  34.180  53.045  0.00  0.00    +0.000 A 
ATOM      4  C   UNL     1      21.678  34.352  52.111  0.00  0.00    +0.000 A 
ATOM      5  C   UNL     1      21.540  35.291  51.083  0.00  0.00    +0.000 A 
ATOM      6  C   UNL     1      20.360  36.055  51.016  0.00  0.00    +0.000 A 
ATOM      7  C   UNL     1      22.602  35.506  50.040  0.00  0.00    +0.000 C 
ATOM      8  C   UNL     1      23.846  34.671  50.188  0.00  0.00    +0.000 A 
ATOM      9  C   UNL     1      24.889  34.840  49.259  0.00  0.00    +0.000 A 
ATOM     10  C   UNL     1      26.060  34.085  49.356  0.00  0.00    +0.000 A 
ATOM     11  C   UNL     1      26.204  33.154  50.380  0.00  0.00    +0.000 A 
ATOM     12  C   UNL     1      25.179  32.977  51.304  0.00  0.00    +0.000 A 
ATOM     13  C   UNL     1      23.998  33.731  51.215  0.00  0.00    +0.000 A 
ATOM     14  C   UNL     1      22.912  33.542  52.201  0.00  0.00    +0.000 C 
ATOM     15  O   UNL     1      23.034  32.712  53.102  0.00  0.00    +0.000 OA
ENDROOT
BRANCH   1  17
ATOM     16  O   UNL     1      17.282  36.400  50.970  0.00  0.00    +0.000 OA
ATOM     17  C   UNL     1      18.109  36.716  51.821  0.00  0.00    +0.000 C 
BRANCH  17  18
ATOM     18  C   UNL     1      17.856  37.904  52.674  0.00  0.00    +0.000 A 
ATOM     19  C   UNL     1      18.218  39.164  52.183  0.00  0.00    +0.000 A 
ATOM     20  C   UNL     1      18.007  40.303  52.961  0.00  0.00    +0.000 A 
ATOM     21  C   UNL     1      17.450  40.185  54.234  0.00  0.00    +0.000 A 
ATOM     22  C   UNL     1      17.109  38.929  54.735  0.00  0.00    +0.000 A 
ATOM     23  C   UNL     1      17.318  37.786  53.961  0.00  0.00    +0.000 A 
ENDBRANCH  17  18
ENDBRANCH   1  17
BRANCH   3  24
ATOM     24  O   UNL     1      20.704  33.275  54.071  0.00  0.00    +0.000 OA
ATOM     25  H   UNL     1      21.551  32.780  53.990  0.00  0.00    +0.000 HD
ENDBRANCH   3  24
BRANCH  12  26
ATOM     26  O   UNL     1      25.400  32.040  52.279  0.00  0.00    +0.000 OA
ATOM     27  H   UNL     1      26.021  31.370  51.917  0.00  0.00    +0.000 HD
ENDBRANCH  12  26
TORSDOF 4
ENDMDL
MODEL 3
REMARK VINA RESULT:    -6.461      9.470     13.008
REMARK INTER + INTRA:          -8.002
REMARK INTER:                  -7.594
REMARK INTRA:                  -0.408
REMARK UNBOUND:                -0.408
REMARK  Name = 
REMARK  4 active torsions:
REMARK  status: ('A' for Active; 'I' for Inactive)
REMARK    1  A    between atoms: C_2  and  C_3
REMARK    2  A    between atoms: C_2  and  C_9
REMARK    3  A    between atoms: C_11  and  O_12
REMARK    4  A    between atoms: C_21  and  O_22
REMARK                            x       y       z     vdW  Elec       q    Type
REMARK                         _______ _______ _______ _____ _____    ______ ____
ROOT
ATOM      1  C   UNL     1      17.880  37.901  52.002  0.00  0.00    +0.000 A 
ATOM      2  C   UNL     1      17.757  39.281  52.166  0.00  0.00    +0.000 A 
ATOM      3  C   UNL     1      17.553  39.807  53.440  0.00  0.00    +0.000 A 
ATOM      4  C   UNL     1      17.451  38.968  54.561  0.00  0.00    +0.000 A 
ATOM      5  C   UNL     1      17.549  37.580  54.404  0.00  0.00    +0.000 A 
ATOM      6  C   UNL     1      17.760  37.057  53.115  0.00  0.00    +0.000 A 
ATOM      7  C   UNL     1      17.425  36.628  55.562  0.00  0.00    +0.000 C 
ATOM      8  C   UNL     1      17.224  37.260  56.914  0.00  0.00    +0.000 A 
ATOM      9  C   UNL     1      17.125  36.426  58.042  0.00  0.00    +0.000 A 
ATOM     10  C   UNL     1      16.935  36.968  59.315  0.00  0.00    +0.000 A 
ATOM     11  C   UNL     1      16.842  38.348  59.477  0.00  0.00    +0.000 A 
ATOM     12  C   UNL     1      16.938  39.182  58.367  0.00  0.00    +0.000 A 
ATOM     13  C   UNL     1      17.129  38.647  57.084  0.00  0.00    +0.000 A 
ATOM     14  C   UNL     1      17.233  39.538  55.909  0.00  0.00    +0.000 C 
ATOM     15  O   UNL     1      17.141  40.757  56.048  0.00  0.00    +0.000 OA
ENDROOT
BRANCH   1  17
ATOM     16  O   UNL     1      17.188  37.382  49.829  0.00  0.00    +0.000 OA
ATOM     17  C   UNL     1      18.081  37.281  50.667  0.00  0.00    +0.000 C 
BRANCH  17  18
ATOM     18  C   UNL     1      19.323  36.547  50.319  0.00  0.00    +0.000 A 
ATOM     19  C   UNL     1      19.339  35.787  49.143  0.00  0.00    +0.000 A 
ATOM     20  C   UNL     1      20.484  35.073  48.789  0.00  0.00    +0.000 A 
ATOM     21  C   UNL     1      21.608  35.104  49.614  0.00  0.00    +0.000 A 
ATOM     22  C   UNL     1      21.588  35.841  50.798  0.00  0.00    +0.000 A 
ATOM     23  C   UNL     1      20.445  36.558  51.156  0.00  0.00    +0.000 A 
ENDBRANCH  17  18
ENDBRANCH   1  17
BRANCH   3  24
ATOM     24  O   UNL     1      17.458  41.171  53.516  0.00  0.00    +0.000 OA
ATOM     25  H   UNL     1      18.368  41.543  53.462  0.00  0.00    +0.000 HD
ENDBRANCH   3  24
BRANCH  12  26
ATOM     26  O   UNL     1      16.835  40.526  58.613  0.00  0.00    +0.000 OA
ATOM     27  H   UNL     1      17.418  40.737  59.376  0.00  0.00    +0.000 HD
ENDBRANCH  12  26
TORSDOF 4
ENDMDL
