MODEL 1
REMARK VINA RESULT:    -6.226      0.000      0.000
REMARK INTER + INTRA:          -9.237
REMARK INTER:                  -7.648
REMARK INTRA:                  -1.589
REMARK UNBOUND:                -1.192
REMARK  Name = 
REMARK  5 active torsions:
REMARK  status: ('A' for Active; 'I' for Inactive)
REMARK    1  A    between atoms: C_3  and  C_4
REMARK    2  A    between atoms: C_4  and  C_5
REMARK    3  A    between atoms: C_17  and  O_18
REMARK    4  A    between atoms: O_18  and  C_19
REMARK    5  A    between atoms: C_19  and  C_20
REMARK                            x       y       z     vdW  Elec       q    Type
REMARK                         _______ _______ _______ _____ _____    ______ ____
ROOT
ATOM      1  O   UNL     1      13.524  40.870  44.614  0.00  0.00    +0.000 OA
ATOM      2  C   UNL     1      13.991  40.701  45.733  0.00  0.00    +0.000 A 
ATOM      3  C   UNL     1      13.367  41.347  46.916  0.00  0.00    +0.000 A 
ATOM      4  C   UNL     1      13.927  41.132  48.113  0.00  0.00    +0.000 A 
ATOM      5  O   UNL     1      15.015  40.342  48.373  0.00  0.00    +0.000 OA
ATOM      6  C   UNL     1      15.623  39.723  47.310  0.00  0.00    +0.000 A 
ATOM      7  C   UNL     1      16.745  38.947  47.617  0.00  0.00    +0.000 A 
ATOM      8  C   UNL     1      17.453  38.311  46.599  0.00  0.00    +0.000 A 
ATOM      9  C   UNL     1      17.037  38.452  45.278  0.00  0.00    +0.000 A 
ATOM     10  C   UNL     1      15.898  39.208  44.972  0.00  0.00    +0.000 A 
ATOM     11  C   UNL     1      15.185  39.858  45.989  0.00  0.00    +0.000 A 
ENDROOT
BRANCH   3  12
ATOM     12  C   UNL     1      12.172  42.230  46.706  0.00  0.00    +0.000 C 
BRANCH  12  13
ATOM     13  C   UNL     1      12.542  43.680  46.480  0.00  0.00    +0.000 A 
ATOM     14  C   UNL     1      13.739  44.015  45.830  0.00  0.00    +0.000 A 
ATOM     15  C   UNL     1      14.072  45.352  45.606  0.00  0.00    +0.000 A 
ATOM     16  C   UNL     1      13.214  46.365  46.031  0.00  0.00    +0.000 A 
ATOM     17  C   UNL     1      12.022  46.045  46.678  0.00  0.00    +0.000 A 
ATOM     18  C   UNL     1      11.686  44.708  46.900  0.00  0.00    +0.000 A 
ENDBRANCH  12  13
ENDBRANCH   3  12
BRANCH  10  19
ATOM     19  O   UNL     1      15.603  39.359  43.643  0.00  0.00    +0.000 OA
BRANCH  19  20
ATOM     20  C   UNL     1      16.741  39.835  42.912  0.00  0.00    +0.000 C 
BRANCH  20  21
ATOM     21  C   UNL     1      16.442  41.234  42.348  0.00  0.00    +0.000 C 
ATOM     22  C   UNL     1      16.455  42.293  43.465  0.00  0.00    +0.000 C 
ATOM     23  C   UNL     1      16.115  43.687  42.942  0.00  0.00    +0.000 C 
ATOM     24  C   UNL     1      14.795  43.699  42.180  0.00  0.00    +0.000 C 
ATOM     25  C   UNL     1      14.786  42.659  41.061  0.00  0.00    +0.000 C 
ATOM     26  C   UNL     1      15.103  41.264  41.595  0.00  0.00    +0.000 C 
ENDBRANCH  20  21
ENDBRANCH  19  20
ENDBRANCH  10  19
TORSDOF 5
ENDMDL
MODEL 2
REMARK VINA RESULT:    -6.130      9.584     12.488
REMARK INTER + INTRA:          -9.114
REMARK INTER:                  -8.140
REMARK INTRA:                  -0.973
REMARK UNBOUND:                -1.192
REMARK  Name = 
REMARK  5 active torsions:
REMARK  status: ('A' for Active; 'I' for Inactive)
REMARK    1  A    between atoms: C_3  and  C_4
REMARK    2  A    between atoms: C_4  and  C_5
REMARK    3  A    between atoms: C_17  and  O_18
REMARK    4  A    between atoms: O_18  and  C_19
REMARK    5  A    between atoms: C_19  and  C_20
REMARK                            x       y       z     vdW  Elec       q    Type
REMARK                         _______ _______ _______ _____ _____    ______ ____
ROOT
ATOM      1  O   UNL     1      19.911  34.641  53.094  0.00  0.00    +0.000 OA
ATOM      2  C   UNL     1      20.126  34.704  54.298  0.00  0.00    +0.000 A 
ATOM      3  C   UNL     1      19.062  35.153  55.232  0.00  0.00    +0.000 A 
ATOM      4  C   UNL     1      19.359  35.208  56.536  0.00  0.00    +0.000 A 
ATOM      5  O   UNL     1      20.550  34.862  57.117  0.00  0.00    +0.000 OA
ATOM      6  C   UNL     1      21.562  34.440  56.292  0.00  0.00    +0.000 A 
ATOM      7  C   UNL     1      22.768  34.120  56.923  0.00  0.00    +0.000 A 
ATOM      8  C   UNL     1      23.867  33.719  56.165  0.00  0.00    +0.000 A 
ATOM      9  C   UNL     1      23.756  33.638  54.779  0.00  0.00    +0.000 A 
ATOM     10  C   UNL     1      22.541  33.932  54.149  0.00  0.00    +0.000 A 
ATOM     11  C   UNL     1      21.433  34.345  54.903  0.00  0.00    +0.000 A 
ENDROOT
BRANCH   3  12
ATOM     12  C   UNL     1      17.731  35.551  54.666  0.00  0.00    +0.000 C 
BRANCH  12  13
ATOM     13  C   UNL     1      17.641  37.029  54.352  0.00  0.00    +0.000 A 
ATOM     14  C   UNL     1      17.832  37.489  53.040  0.00  0.00    +0.000 A 
ATOM     15  C   UNL     1      17.733  38.850  52.747  0.00  0.00    +0.000 A 
ATOM     16  C   UNL     1      17.445  39.763  53.760  0.00  0.00    +0.000 A 
ATOM     17  C   UNL     1      17.254  39.318  55.067  0.00  0.00    +0.000 A 
ATOM     18  C   UNL     1      17.350  37.957  55.362  0.00  0.00    +0.000 A 
ENDBRANCH  12  13
ENDBRANCH   3  12
BRANCH  10  19
ATOM     19  O   UNL     1      22.539  33.901  52.779  0.00  0.00    +0.000 OA
BRANCH  19  20
ATOM     20  C   UNL     1      23.593  33.069  52.280  0.00  0.00    +0.000 C 
BRANCH  20  21
ATOM     21  C   UNL     1      23.891  33.437  50.817  0.00  0.00    +0.000 C 
ATOM     22  C   UNL     1      25.349  33.901  50.650  0.00  0.00    +0.000 C 
ATOM     23  C   UNL     1      25.661  34.319  49.215  0.00  0.00    +0.000 C 
ATOM     24  C   UNL     1      24.681  35.370  48.706  0.00  0.00    +0.000 C 
ATOM     25  C   UNL     1      23.234  34.904  48.855  0.00  0.00    +0.000 C 
ATOM     26  C   UNL     1      22.922  34.511  50.297  0.00  0.00    +0.000 C 
ENDBRANCH  20  21
ENDBRANCH  19  20
ENDBRANCH  10  19
TORSDOF 5
ENDMDL
MODEL 3
REMARK VINA RESULT:    -5.969      8.375     12.247
REMARK INTER + INTRA:          -8.906
REMARK INTER:                  -7.713
REMARK INTRA:                  -1.192
REMARK UNBOUND:                -1.192
REMARK  Name = 
REMARK  5 active torsions:
REMARK  status: ('A' for Active; 'I' for Inactive)
REMARK    1  A    between atoms: C_3  and  C_4
REMARK    2  A    between atoms: C_4  and  C_5
REMARK    3  A    between atoms: C_17  and  O_18
REMARK    4  A    between atoms: O_18  and  C_19
REMARK    5  A    between atoms: C_19  and  C_20
REMARK                            x       y       z     vdW  Elec       q    Type
REMARK                         _______ _______ _______ _____ _____    ______ ____
ROOT
ATOM      1  O   UNL     1      17.521  35.591  52.767  0.00  0.00    +0.000 OA
ATOM      2  C   UNL     1      17.552  36.807  52.904  0.00  0.00    +0.000 A 
ATOM      3  C   UNL     1      17.769  37.693  51.731  0.00  0.00    +0.000 A 
ATOM      4  C   UNL     1      17.801  39.014  51.944  0.00  0.00    +0.000 A 
ATOM      5  O   UNL     1      17.623  39.651  53.143  0.00  0.00    +0.000 OA
ATOM      6  C   UNL     1      17.419  38.872  54.255  0.00  0.00    +0.000 A 
ATOM      7  C   UNL     1      17.267  39.562  55.462  0.00  0.00    +0.000 A 
ATOM      8  C   UNL     1      17.094  38.856  56.651  0.00  0.00    +0.000 A 
ATOM      9  C   UNL     1      17.071  37.464  56.630  0.00  0.00    +0.000 A 
ATOM     10  C   UNL     1      17.196  36.773  55.418  0.00  0.00    +0.000 A 
ATOM     11  C   UNL     1      17.380  37.475  54.217  0.00  0.00    +0.000 A 
ENDROOT
BRANCH   3  12
ATOM     12  C   UNL     1      17.974  37.064  50.384  0.00  0.00    +0.000 C 
BRANCH  12  13
ATOM     13  C   UNL     1      19.331  36.411  50.238  0.00  0.00    +0.000 A 
ATOM     14  C   UNL     1      19.609  35.588  49.136  0.00  0.00    +0.000 A 
ATOM     15  C   UNL     1      20.866  34.999  48.992  0.00  0.00    +0.000 A 
ATOM     16  C   UNL     1      21.856  35.224  49.948  0.00  0.00    +0.000 A 
ATOM     17  C   UNL     1      21.591  36.038  51.048  0.00  0.00    +0.000 A 
ATOM     18  C   UNL     1      20.335  36.631  51.192  0.00  0.00    +0.000 A 
ENDBRANCH  12  13
ENDBRANCH   3  12
BRANCH  10  19
ATOM     19  O   UNL     1      17.241  35.406  55.495  0.00  0.00    +0.000 OA
BRANCH  19  20
ATOM     20  C   UNL     1      18.240  34.974  56.426  0.00  0.00    +0.000 C 
BRANCH  20  21
ATOM     21  C   UNL     1      19.623  35.017  55.755  0.00  0.00    +0.000 C 
ATOM     22  C   UNL     1      19.686  34.052  54.557  0.00  0.00    +0.000 C 
ATOM     23  C   UNL     1      21.064  34.039  53.899  0.00  0.00    +0.000 C 
ATOM     24  C   UNL     1      22.170  33.749  54.907  0.00  0.00    +0.000 C 
ATOM     25  C   UNL     1      22.119  34.716  56.088  0.00  0.00    +0.000 C 
ATOM     26  C   UNL     1      20.746  34.706  56.756  0.00  0.00    +0.000 C 
ENDBRANCH  20  21
ENDBRANCH  19  20
ENDBRANCH  10  19
TORSDOF 5
ENDMDL
