MODEL 1
REMARK VINA RESULT:    -6.921      0.000      0.000
REMARK INTER + INTRA:          -8.869
REMARK INTER:                  -8.013
REMARK INTRA:                  -0.856
REMARK UNBOUND:                -0.532
REMARK  Name = 
REMARK  5 active torsions:
REMARK  status: ('A' for Active; 'I' for Inactive)
REMARK    1  A    between atoms: C_1  and  C_2
REMARK    2  A    between atoms: C_3  and  C_4
REMARK    3  A    between atoms: C_4  and  C_5
REMARK    4  A    between atoms: C_5  and  C_6
REMARK    5  A    between atoms: C_23  and  N_24
REMARK                            x       y       z     vdW  Elec       q    Type
REMARK                         _______ _______ _______ _____ _____    ______ ____
ROOT
ATOM      1  C   UNL     1      17.429  37.070  56.439  0.00  0.00    +0.000 C 
ATOM      2  C   UNL     1      17.487  37.401  54.968  0.00  0.00    +0.000 A 
ATOM      3  C   UNL     1      17.796  36.398  54.031  0.00  0.00    +0.000 A 
ATOM      4  C   UNL     1      17.813  36.772  52.698  0.00  0.00    +0.000 A 
ATOM      5  N   UNL     1      17.576  38.019  52.252  0.00  0.00    +0.000 NA
ATOM      6  C   UNL     1      17.296  38.986  53.117  0.00  0.00    +0.000 A 
ATOM      7  N   UNL     1      17.088  40.166  52.560  0.00  0.00    +0.000 NA
ATOM      8  C   UNL     1      16.814  41.189  53.349  0.00  0.00    +0.000 A 
ATOM      9  N   UNL     1      16.593  42.416  52.758  0.00  0.00    +0.000 N 
ATOM     10  N   UNL     1      16.692  41.110  54.663  0.00  0.00    +0.000 NA
ATOM     11  C   UNL     1      16.901  39.917  55.230  0.00  0.00    +0.000 A 
ATOM     12  C   UNL     1      17.228  38.751  54.497  0.00  0.00    +0.000 A 
ATOM     13  H   UNL     1      16.008  42.982  53.356  0.00  0.00    +0.000 HD
ATOM     14  H   UNL     1      16.302  42.287  51.799  0.00  0.00    +0.000 HD
ENDROOT
BRANCH  11  15
ATOM     15  N   UNL     1      16.765  39.940  56.622  0.00  0.00    +0.000 N 
ATOM     16  H   UNL     1      17.556  39.489  57.067  0.00  0.00    +0.000 HD
ATOM     17  H   UNL     1      15.901  39.497  56.910  0.00  0.00    +0.000 HD
ENDBRANCH  11  15
BRANCH   3  18
ATOM     18  C   UNL     1      18.084  34.951  54.366  0.00  0.00    +0.000 C 
BRANCH  18  19
ATOM     19  C   UNL     1      19.342  34.394  53.682  0.00  0.00    +0.000 C 
BRANCH  19  20
ATOM     20  C   UNL     1      20.561  34.376  54.586  0.00  0.00    +0.000 A 
ATOM     21  C   UNL     1      20.372  34.706  55.941  0.00  0.00    +0.000 A 
ATOM     22  C   UNL     1      21.434  34.678  56.837  0.00  0.00    +0.000 A 
ATOM     23  C   UNL     1      22.704  34.320  56.394  0.00  0.00    +0.000 A 
ATOM     24  C   UNL     1      22.930  33.987  55.050  0.00  0.00    +0.000 A 
ATOM     25  C   UNL     1      24.221  33.626  54.628  0.00  0.00    +0.000 A 
ATOM     26  C   UNL     1      24.475  33.289  53.300  0.00  0.00    +0.000 A 
ATOM     27  C   UNL     1      23.439  33.308  52.377  0.00  0.00    +0.000 A 
ATOM     28  C   UNL     1      22.150  33.664  52.782  0.00  0.00    +0.000 A 
ATOM     29  C   UNL     1      21.858  34.011  54.123  0.00  0.00    +0.000 A 
ENDBRANCH  19  20
ENDBRANCH  18  19
ENDBRANCH   3  18
TORSDOF 4
ENDMDL
MODEL 2
REMARK VINA RESULT:    -6.895      3.653      7.501
REMARK INTER + INTRA:          -8.837
REMARK INTER:                  -8.115
REMARK INTRA:                  -0.723
REMARK UNBOUND:                -0.532
REMARK  Name = 
REMARK  5 active torsions:
REMARK  status: ('A' for Active; 'I' for Inactive)
REMARK    1  A    between atoms: C_1  and  C_2
REMARK    2  A    between atoms: C_3  and  C_4
REMARK    3  A    between atoms: C_4  and  C_5
REMARK    4  A    between atoms: C_5  and  C_6
REMARK    5  A    between atoms: C_23  and  N_24
REMARK                            x       y       z     vdW  Elec       q    Type
REMARK                         _______ _______ _______ _____ _____    ______ ____
ROOT
ATOM      1  C   UNL     1      21.346  34.553  56.844  0.00  0.00    +0.000 C 
ATOM      2  C   UNL     1      21.194  34.411  55.350  0.00  0.00    +0.000 A 
ATOM      3  C   UNL     1      19.963  34.705  54.735  0.00  0.00    +0.000 A 
ATOM      4  C   UNL     1      19.905  34.568  53.358  0.00  0.00    +0.000 A 
ATOM      5  N   UNL     1      20.929  34.159  52.587  0.00  0.00    +0.000 NA
ATOM      6  C   UNL     1      22.096  33.862  53.145  0.00  0.00    +0.000 A 
ATOM      7  N   UNL     1      23.020  33.468  52.287  0.00  0.00    +0.000 NA
ATOM      8  C   UNL     1      24.210  33.142  52.759  0.00  0.00    +0.000 A 
ATOM      9  N   UNL     1      25.171  32.738  51.854  0.00  0.00    +0.000 N 
ATOM     10  N   UNL     1      24.560  33.219  54.031  0.00  0.00    +0.000 NA
ATOM     11  C   UNL     1      23.627  33.618  54.902  0.00  0.00    +0.000 A 
ATOM     12  C   UNL     1      22.307  33.970  54.527  0.00  0.00    +0.000 A 
ATOM     13  H   UNL     1      26.090  32.920  52.229  0.00  0.00    +0.000 HD
ATOM     14  H   UNL     1      24.954  33.102  50.937  0.00  0.00    +0.000 HD
ENDROOT
BRANCH  11  15
ATOM     15  N   UNL     1      24.086  33.652  56.222  0.00  0.00    +0.000 N 
ATOM     16  H   UNL     1      24.221  34.608  56.531  0.00  0.00    +0.000 HD
ATOM     17  H   UNL     1      24.946  33.126  56.321  0.00  0.00    +0.000 HD
ENDBRANCH  11  15
BRANCH   3  18
ATOM     18  C   UNL     1      18.720  35.177  55.455  0.00  0.00    +0.000 C 
BRANCH  18  19
ATOM     19  C   UNL     1      17.673  35.819  54.531  0.00  0.00    +0.000 C 
BRANCH  19  20
ATOM     20  C   UNL     1      17.440  37.290  54.816  0.00  0.00    +0.000 A 
ATOM     21  C   UNL     1      17.168  37.662  56.146  0.00  0.00    +0.000 A 
ATOM     22  C   UNL     1      16.978  38.994  56.490  0.00  0.00    +0.000 A 
ATOM     23  C   UNL     1      17.054  39.980  55.511  0.00  0.00    +0.000 A 
ATOM     24  C   UNL     1      17.321  39.648  54.175  0.00  0.00    +0.000 A 
ATOM     25  C   UNL     1      17.396  40.662  53.205  0.00  0.00    +0.000 A 
ATOM     26  C   UNL     1      17.661  40.361  51.870  0.00  0.00    +0.000 A 
ATOM     27  C   UNL     1      17.855  39.041  51.489  0.00  0.00    +0.000 A 
ATOM     28  C   UNL     1      17.783  38.022  52.443  0.00  0.00    +0.000 A 
ATOM     29  C   UNL     1      17.517  38.292  53.806  0.00  0.00    +0.000 A 
ENDBRANCH  19  20
ENDBRANCH  18  19
ENDBRANCH   3  18
TORSDOF 4
ENDMDL
MODEL 3
REMARK VINA RESULT:    -6.831     10.558     14.658
REMARK INTER + INTRA:          -8.760
REMARK INTER:                  -8.228
REMARK INTRA:                  -0.532
REMARK UNBOUND:                -0.532
REMARK  Name = 
REMARK  5 active torsions:
REMARK  status: ('A' for Active; 'I' for Inactive)
REMARK    1  A    between atoms: C_1  and  C_2
REMARK    2  A    between atoms: C_3  and  C_4
REMARK    3  A    between atoms: C_4  and  C_5
REMARK    4  A    between atoms: C_5  and  C_6
REMARK    5  A    between atoms: C_23  and  N_24
REMARK                            x       y       z     vdW  Elec       q    Type
REMARK                         _______ _______ _______ _____ _____    ______ ____
ROOT
ATOM      1  C   UNL     1      15.314  40.183  46.459  0.00  0.00    +0.000 C 
ATOM      2  C   UNL     1      15.716  40.829  45.156  0.00  0.00    +0.000 A 
ATOM      3  C   UNL     1      15.430  42.188  44.926  0.00  0.00    +0.000 A 
ATOM      4  C   UNL     1      15.845  42.717  43.715  0.00  0.00    +0.000 A 
ATOM      5  N   UNL     1      16.476  42.019  42.754  0.00  0.00    +0.000 NA
ATOM      6  C   UNL     1      16.745  40.733  42.941  0.00  0.00    +0.000 A 
ATOM      7  N   UNL     1      17.362  40.156  41.925  0.00  0.00    +0.000 NA
ATOM      8  C   UNL     1      17.658  38.872  42.023  0.00  0.00    +0.000 A 
ATOM      9  N   UNL     1      18.307  38.280  40.959  0.00  0.00    +0.000 N 
ATOM     10  N   UNL     1      17.417  38.126  43.087  0.00  0.00    +0.000 NA
ATOM     11  C   UNL     1      16.793  38.707  44.117  0.00  0.00    +0.000 A 
ATOM     12  C   UNL     1      16.399  40.067  44.125  0.00  0.00    +0.000 A 
ATOM     13  H   UNL     1      18.835  37.483  41.283  0.00  0.00    +0.000 HD
ATOM     14  H   UNL     1      18.796  38.983  40.421  0.00  0.00    +0.000 HD
ENDROOT
BRANCH  11  15
ATOM     15  N   UNL     1      16.568  37.834  45.186  0.00  0.00    +0.000 N 
ATOM     16  H   UNL     1      15.740  37.273  45.023  0.00  0.00    +0.000 HD
ATOM     17  H   UNL     1      16.483  38.342  46.058  0.00  0.00    +0.000 HD
ENDBRANCH  11  15
BRANCH   3  18
ATOM     18  C   UNL     1      14.732  43.109  45.901  0.00  0.00    +0.000 C 
BRANCH  18  19
ATOM     19  C   UNL     1      14.622  44.562  45.413  0.00  0.00    +0.000 C 
BRANCH  19  20
ATOM     20  C   UNL     1      13.411  45.292  45.962  0.00  0.00    +0.000 A 
ATOM     21  C   UNL     1      12.399  44.517  46.560  0.00  0.00    +0.000 A 
ATOM     22  C   UNL     1      11.276  45.117  47.116  0.00  0.00    +0.000 A 
ATOM     23  C   UNL     1      11.142  46.502  47.083  0.00  0.00    +0.000 A 
ATOM     24  C   UNL     1      12.129  47.306  46.494  0.00  0.00    +0.000 A 
ATOM     25  C   UNL     1      11.973  48.702  46.476  0.00  0.00    +0.000 A 
ATOM     26  C   UNL     1      12.937  49.526  45.899  0.00  0.00    +0.000 A 
ATOM     27  C   UNL     1      14.071  48.962  45.332  0.00  0.00    +0.000 A 
ATOM     28  C   UNL     1      14.241  47.575  45.343  0.00  0.00    +0.000 A 
ATOM     29  C   UNL     1      13.282  46.710  45.921  0.00  0.00    +0.000 A 
ENDBRANCH  19  20
ENDBRANCH  18  19
ENDBRANCH   3  18
TORSDOF 4
ENDMDL
