MODEL 1
REMARK VINA RESULT:    -7.263      0.000      0.000
REMARK INTER + INTRA:         -10.507
REMARK INTER:                  -8.833
REMARK INTRA:                  -1.674
REMARK UNBOUND:                -1.122
REMARK  Name = 
REMARK  5 active torsions:
REMARK  status: ('A' for Active; 'I' for Inactive)
REMARK    1  A    between atoms: N_14  and  C_15
REMARK    2  A    between atoms: C_15  and  C_16
REMARK    3  A    between atoms: C_16  and  N_17
REMARK    4  A    between atoms: C_20  and  C_21
REMARK    5  A    between atoms: C_21  and  C_22
REMARK                            x       y       z     vdW  Elec       q    Type
REMARK                         _______ _______ _______ _____ _____    ______ ____
ROOT
ATOM      1  N   UNL     1      12.961  40.631  49.309  0.00  0.00    +0.000 NA
ATOM      2  C   UNL     1      11.878  40.682  50.307  0.00  0.00    +0.000 C 
ATOM      3  C   UNL     1      12.335  41.117  51.671  0.00  0.00    +0.000 C 
ATOM      4  C   UNL     1      13.624  41.133  52.056  0.00  0.00    +0.000 C 
ATOM      5  C   UNL     1      14.694  40.679  51.091  0.00  0.00    +0.000 C 
ATOM      6  C   UNL     1      14.124  39.928  49.873  0.00  0.00    +0.000 C 
ENDROOT
BRANCH   1   7
ATOM      7  C   UNL     1      12.469  40.000  48.070  0.00  0.00    +0.000 C 
BRANCH   7   8
ATOM      8  C   UNL     1      11.747  40.978  47.122  0.00  0.00    +0.000 C 
BRANCH   8  22
ATOM      9  O   UNL     1      14.961  42.235  46.689  0.00  0.00    +0.000 OA
ATOM     10  S   UNL     1      13.706  42.555  46.050  0.00  0.00    +0.000 S 
ATOM     11  O   UNL     1      13.321  42.054  44.749  0.00  0.00    +0.000 OA
ATOM     12  C   UNL     1      13.486  44.287  46.032  0.00  0.00    +0.000 A 
ATOM     13  C   UNL     1      14.275  45.240  45.420  0.00  0.00    +0.000 A 
ATOM     14  C   UNL     1      13.851  46.572  45.501  0.00  0.00    +0.000 A 
ATOM     15  C   UNL     1      12.659  46.913  46.177  0.00  0.00    +0.000 A 
ATOM     16  C   UNL     1      11.872  45.920  46.796  0.00  0.00    +0.000 A 
ATOM     17  C   UNL     1      10.672  46.119  47.503  0.00  0.00    +0.000 A 
ATOM     18  C   UNL     1      10.003  45.028  48.091  0.00  0.00    +0.000 A 
ATOM     19  C   UNL     1      10.513  43.724  47.988  0.00  0.00    +0.000 A 
ATOM     20  C   UNL     1      11.676  43.517  47.264  0.00  0.00    +0.000 A 
ATOM     21  C   UNL     1      12.330  44.604  46.707  0.00  0.00    +0.000 A 
ATOM     22  N   UNL     1      12.425  42.289  47.170  0.00  0.00    +0.000 N 
ENDBRANCH   8  22
ENDBRANCH   7   8
ENDBRANCH   1   7
BRANCH   4  23
ATOM     23  C   UNL     1      14.068  41.628  53.411  0.00  0.00    +0.000 C 
BRANCH  23  24
ATOM     24  C   UNL     1      14.541  43.051  53.393  0.00  0.00    +0.000 A 
ATOM     25  C   UNL     1      15.851  43.475  53.272  0.00  0.00    +0.000 A 
ATOM     26  N   UNL     1      15.868  44.842  53.290  0.00  0.00    +0.000 N 
ATOM     27  C   UNL     1      14.590  45.334  53.419  0.00  0.00    +0.000 A 
ATOM     28  C   UNL     1      14.137  46.658  53.481  0.00  0.00    +0.000 A 
ATOM     29  C   UNL     1      12.761  46.862  53.612  0.00  0.00    +0.000 A 
ATOM     30  C   UNL     1      11.891  45.782  53.678  0.00  0.00    +0.000 A 
ATOM     31  F   UNL     1      10.577  46.009  53.805  0.00  0.00    +0.000 F 
ATOM     32  C   UNL     1      12.350  44.467  53.615  0.00  0.00    +0.000 A 
ATOM     33  C   UNL     1      13.733  44.232  53.483  0.00  0.00    +0.000 A 
ATOM     34  H   UNL     1      16.698  45.415  53.217  0.00  0.00    +0.000 HD
ENDBRANCH  23  24
ENDBRANCH   4  23
TORSDOF 5
ENDMDL
MODEL 2
REMARK VINA RESULT:    -7.075      5.374      8.467
REMARK INTER + INTRA:         -10.265
REMARK INTER:                  -9.211
REMARK INTRA:                  -1.053
REMARK UNBOUND:                -1.122
REMARK  Name = 
REMARK  5 active torsions:
REMARK  status: ('A' for Active; 'I' for Inactive)
REMARK    1  A    between atoms: N_14  and  C_15
REMARK    2  A    between atoms: C_15  and  C_16
REMARK    3  A    between atoms: C_16  and  N_17
REMARK    4  A    between atoms: C_20  and  C_21
REMARK    5  A    between atoms: C_21  and  C_22
REMARK                            x       y       z     vdW  Elec       q    Type
REMARK                         _______ _______ _______ _____ _____    ______ ____
ROOT
ATOM      1  N   UNL     1      12.954  45.015  45.587  0.00  0.00    +0.000 NA
ATOM      2  C   UNL     1      12.269  45.771  46.651  0.00  0.00    +0.000 C 
ATOM      3  C   UNL     1      11.991  47.203  46.289  0.00  0.00    +0.000 C 
ATOM      4  C   UNL     1      12.587  47.844  45.266  0.00  0.00    +0.000 C 
ATOM      5  C   UNL     1      13.608  47.113  44.426  0.00  0.00    +0.000 C 
ATOM      6  C   UNL     1      14.087  45.798  45.071  0.00  0.00    +0.000 C 
ENDROOT
BRANCH   1   7
ATOM      7  C   UNL     1      13.369  43.696  46.101  0.00  0.00    +0.000 C 
BRANCH   7   8
ATOM      8  C   UNL     1      14.866  43.393  45.892  0.00  0.00    +0.000 C 
BRANCH   8  22
ATOM      9  O   UNL     1      14.406  42.692  42.517  0.00  0.00    +0.000 OA
ATOM     10  S   UNL     1      15.552  42.550  43.384  0.00  0.00    +0.000 S 
ATOM     11  O   UNL     1      16.645  43.497  43.424  0.00  0.00    +0.000 OA
ATOM     12  C   UNL     1      16.242  40.959  43.182  0.00  0.00    +0.000 A 
ATOM     13  C   UNL     1      16.780  40.401  42.040  0.00  0.00    +0.000 A 
ATOM     14  C   UNL     1      17.329  39.118  42.150  0.00  0.00    +0.000 A 
ATOM     15  C   UNL     1      17.333  38.435  43.386  0.00  0.00    +0.000 A 
ATOM     16  C   UNL     1      16.774  39.027  44.539  0.00  0.00    +0.000 A 
ATOM     17  C   UNL     1      16.708  38.460  45.824  0.00  0.00    +0.000 A 
ATOM     18  C   UNL     1      16.096  39.163  46.880  0.00  0.00    +0.000 A 
ATOM     19  C   UNL     1      15.542  40.437  46.679  0.00  0.00    +0.000 A 
ATOM     20  C   UNL     1      15.635  41.014  45.422  0.00  0.00    +0.000 A 
ATOM     21  C   UNL     1      16.225  40.301  44.390  0.00  0.00    +0.000 A 
ATOM     22  N   UNL     1      15.005  42.235  44.987  0.00  0.00    +0.000 N 
ENDBRANCH   8  22
ENDBRANCH   7   8
ENDBRANCH   1   7
BRANCH   4  23
ATOM     23  C   UNL     1      12.252  49.264  44.884  0.00  0.00    +0.000 C 
BRANCH  23  24
ATOM     24  C   UNL     1      13.067  50.282  45.624  0.00  0.00    +0.000 A 
ATOM     25  C   UNL     1      12.687  50.958  46.769  0.00  0.00    +0.000 A 
ATOM     26  N   UNL     1      13.706  51.792  47.139  0.00  0.00    +0.000 N 
ATOM     27  C   UNL     1      14.757  51.680  46.260  0.00  0.00    +0.000 A 
ATOM     28  C   UNL     1      15.995  52.335  46.249  0.00  0.00    +0.000 A 
ATOM     29  C   UNL     1      16.884  52.016  45.219  0.00  0.00    +0.000 A 
ATOM     30  C   UNL     1      16.537  51.082  44.252  0.00  0.00    +0.000 A 
ATOM     31  F   UNL     1      17.409  50.796  43.277  0.00  0.00    +0.000 F 
ATOM     32  C   UNL     1      15.303  50.432  44.271  0.00  0.00    +0.000 A 
ATOM     33  C   UNL     1      14.387  50.736  45.298  0.00  0.00    +0.000 A 
ATOM     34  H   UNL     1      13.694  52.402  47.944  0.00  0.00    +0.000 HD
ENDBRANCH  23  24
ENDBRANCH   4  23
TORSDOF 5
ENDMDL
MODEL 3
REMARK VINA RESULT:    -6.806      5.191      8.085
REMARK INTER + INTRA:          -9.917
REMARK INTER:                  -8.796
REMARK INTRA:                  -1.122
REMARK UNBOUND:                -1.122
REMARK  Name = 
REMARK  5 active torsions:
REMARK  status: ('A' for Active; 'I' for Inactive)
REMARK    1  A    between atoms: N_14  and  C_15
REMARK    2  A    between atoms: C_15  and  C_16
REMARK    3  A    between atoms: C_16  and  N_17
REMARK    4  A    between atoms: C_20  and  C_21
REMARK    5  A    between atoms: C_21  and  C_22
REMARK                            x       y       z     vdW  Elec       q    Type
REMARK                         _______ _______ _______ _____ _____    ______ ____
ROOT
ATOM      1  N   UNL     1      12.960  46.414  45.307  0.00  0.00    +0.000 NA
ATOM      2  C   UNL     1      14.367  46.806  45.508  0.00  0.00    +0.000 C 
ATOM      3  C   UNL     1      14.654  48.232  45.130  0.00  0.00    +0.000 C 
ATOM      4  C   UNL     1      13.832  48.985  44.375  0.00  0.00    +0.000 C 
ATOM      5  C   UNL     1      12.549  48.385  43.851  0.00  0.00    +0.000 C 
ATOM      6  C   UNL     1      12.506  46.851  43.978  0.00  0.00    +0.000 C 
ENDROOT
BRANCH   1   7
ATOM      7  C   UNL     1      12.816  44.959  45.501  0.00  0.00    +0.000 C 
BRANCH   7   8
ATOM      8  C   UNL     1      14.133  44.249  45.869  0.00  0.00    +0.000 C 
BRANCH   8  22
ATOM      9  O   UNL     1      13.633  43.427  42.528  0.00  0.00    +0.000 OA
ATOM     10  S   UNL     1      14.805  43.372  43.369  0.00  0.00    +0.000 S 
ATOM     11  O   UNL     1      15.847  44.376  43.356  0.00  0.00    +0.000 OA
ATOM     12  C   UNL     1      15.575  41.814  43.194  0.00  0.00    +0.000 A 
ATOM     13  C   UNL     1      16.116  41.253  42.054  0.00  0.00    +0.000 A 
ATOM     14  C   UNL     1      16.735  40.005  42.186  0.00  0.00    +0.000 A 
ATOM     15  C   UNL     1      16.805  39.359  43.440  0.00  0.00    +0.000 A 
ATOM     16  C   UNL     1      16.242  39.953  44.589  0.00  0.00    +0.000 A 
ATOM     17  C   UNL     1      16.236  39.421  45.891  0.00  0.00    +0.000 A 
ATOM     18  C   UNL     1      15.612  40.121  46.943  0.00  0.00    +0.000 A 
ATOM     19  C   UNL     1      14.986  41.357  46.720  0.00  0.00    +0.000 A 
ATOM     20  C   UNL     1      15.019  41.902  45.446  0.00  0.00    +0.000 A 
ATOM     21  C   UNL     1      15.621  41.192  44.420  0.00  0.00    +0.000 A 
ATOM     22  N   UNL     1      14.314  43.074  44.993  0.00  0.00    +0.000 N 
ENDBRANCH   8  22
ENDBRANCH   7   8
ENDBRANCH   1   7
BRANCH   4  23
ATOM     23  C   UNL     1      14.112  50.433  44.056  0.00  0.00    +0.000 C 
BRANCH  23  24
ATOM     24  C   UNL     1      14.654  51.200  45.224  0.00  0.00    +0.000 A 
ATOM     25  C   UNL     1      15.936  51.704  45.347  0.00  0.00    +0.000 A 
ATOM     26  N   UNL     1      16.037  52.346  46.550  0.00  0.00    +0.000 N 
ATOM     27  C   UNL     1      14.842  52.278  47.228  0.00  0.00    +0.000 A 
ATOM     28  C   UNL     1      14.488  52.791  48.484  0.00  0.00    +0.000 A 
ATOM     29  C   UNL     1      13.183  52.569  48.925  0.00  0.00    +0.000 A 
ATOM     30  C   UNL     1      12.281  51.865  48.137  0.00  0.00    +0.000 A 
ATOM     31  F   UNL     1      11.035  51.667  48.588  0.00  0.00    +0.000 F 
ATOM     32  C   UNL     1      12.640  51.358  46.889  0.00  0.00    +0.000 A 
ATOM     33  C   UNL     1      13.953  51.567  46.419  0.00  0.00    +0.000 A 
ATOM     34  H   UNL     1      16.866  52.808  46.896  0.00  0.00    +0.000 HD
ENDBRANCH  23  24
ENDBRANCH   4  23
TORSDOF 5
ENDMDL
