MODEL 1
REMARK VINA RESULT:    -5.345      0.000      0.000
REMARK INTER + INTRA:          -9.986
REMARK INTER:                  -8.851
REMARK INTRA:                  -1.135
REMARK UNBOUND:                -3.079
REMARK  Name = 
REMARK  5 active torsions:
REMARK  status: ('A' for Active; 'I' for Inactive)
REMARK    1  A    between atoms: C_2  and  C_4
REMARK    2  A    between atoms: C_7  and  C_8
REMARK    3  A    between atoms: C_8  and  N_9
REMARK    4  A    between atoms: C_10  and  C_12
REMARK    5  A    between atoms: C_16  and  C_17
REMARK                            x       y       z     vdW  Elec       q    Type
REMARK                         _______ _______ _______ _____ _____    ______ ____
ROOT
ATOM      1  N   UNL     1      15.668  39.665  49.229  0.00  0.00    +0.000 N 
ATOM      2  C   UNL     1      16.076  40.058  50.483  0.00  0.00    +0.000 C 
ATOM      3  O   UNL     1      15.513  40.957  51.105  0.00  0.00    +0.000 OA
ATOM      4  H   UNL     1      16.102  38.866  48.789  0.00  0.00    +0.000 HD
ENDROOT
BRANCH   2   5
ATOM      5  C   UNL     1      17.287  39.321  51.059  0.00  0.00    +0.000 C 
ATOM      6  C   UNL     1      17.880  39.979  52.315  0.00  0.00    +0.000 C 
ATOM      7  C   UNL     1      17.494  39.089  53.504  0.00  0.00    +0.000 C 
ATOM      8  C   UNL     1      17.069  37.813  52.862  0.00  0.00    +0.000 C 
ATOM      9  C   UNL     1      16.924  37.950  51.536  0.00  0.00    +0.000 C 
BRANCH   9  10
ATOM     10  C   UNL     1      16.690  36.854  50.576  0.00  0.00    +0.000 C 
ATOM     11  O   UNL     1      15.518  36.555  50.334  0.00  0.00    +0.000 OA
ATOM     12  N   UNL     1      17.743  36.250  49.932  0.00  0.00    +0.000 N 
ATOM     13  C   UNL     1      17.472  35.375  48.782  0.00  0.00    +0.000 C 
ATOM     14  C   UNL     1      18.816  35.068  48.123  0.00  0.00    +0.000 C 
ATOM     15  C   UNL     1      19.768  35.450  49.212  0.00  0.00    +0.000 A 
ATOM     16  C   UNL     1      21.132  35.201  49.253  0.00  0.00    +0.000 A 
ATOM     17  C   UNL     1      21.852  35.647  50.359  0.00  0.00    +0.000 A 
ATOM     18  C   UNL     1      21.202  36.325  51.398  0.00  0.00    +0.000 A 
ATOM     19  C   UNL     1      19.825  36.576  51.340  0.00  0.00    +0.000 A 
ATOM     20  C   UNL     1      19.115  36.153  50.231  0.00  0.00    +0.000 A 
ENDBRANCH   9  10
ENDBRANCH   2   5
BRANCH   1  21
ATOM     21  C   UNL     1      14.501  40.225  48.586  0.00  0.00    +0.000 C 
BRANCH  21  25
ATOM     22  C   UNL     1      15.636  41.901  44.780  0.00  0.00    +0.000 A 
ATOM     23  C   UNL     1      16.028  40.603  45.118  0.00  0.00    +0.000 A 
ATOM     24  C   UNL     1      15.649  40.061  46.347  0.00  0.00    +0.000 A 
ATOM     25  C   UNL     1      14.877  40.811  47.249  0.00  0.00    +0.000 A 
ATOM     26  C   UNL     1      14.495  42.115  46.902  0.00  0.00    +0.000 A 
ATOM     27  C   UNL     1      14.869  42.658  45.670  0.00  0.00    +0.000 A 
BRANCH  22  29
ATOM     28  N   UNL     1      15.609  41.993  42.348  0.00  0.00    +0.000 NA
ATOM     29  C   UNL     1      16.044  42.473  43.470  0.00  0.00    +0.000 C 
ATOM     30  N   UNL     1      16.900  43.528  43.406  0.00  0.00    +0.000 N 
ATOM     31  H   UNL     1      14.992  41.192  42.507  0.00  0.00    +0.000 HD
ATOM     32  H   UNL     1      17.543  43.700  44.165  0.00  0.00    +0.000 HD
ATOM     33  H   UNL     1      17.280  43.672  42.477  0.00  0.00    +0.000 HD
ENDBRANCH  22  29
ENDBRANCH  21  25
ENDBRANCH   1  21
TORSDOF 5
ENDMDL
MODEL 2
REMARK VINA RESULT:    -5.319      2.985      7.685
REMARK INTER + INTRA:          -9.953
REMARK INTER:                  -8.916
REMARK INTRA:                  -1.038
REMARK UNBOUND:                -3.079
REMARK  Name = 
REMARK  5 active torsions:
REMARK  status: ('A' for Active; 'I' for Inactive)
REMARK    1  A    between atoms: C_2  and  C_4
REMARK    2  A    between atoms: C_7  and  C_8
REMARK    3  A    between atoms: C_8  and  N_9
REMARK    4  A    between atoms: C_10  and  C_12
REMARK    5  A    between atoms: C_16  and  C_17
REMARK                            x       y       z     vdW  Elec       q    Type
REMARK                         _______ _______ _______ _____ _____    ______ ____
ROOT
ATOM      1  N   UNL     1      16.262  39.294  49.595  0.00  0.00    +0.000 N 
ATOM      2  C   UNL     1      17.040  38.453  48.833  0.00  0.00    +0.000 C 
ATOM      3  O   UNL     1      17.671  37.518  49.322  0.00  0.00    +0.000 OA
ATOM      4  H   UNL     1      15.693  39.995  49.144  0.00  0.00    +0.000 HD
ENDROOT
BRANCH   2   5
ATOM      5  C   UNL     1      17.091  38.757  47.334  0.00  0.00    +0.000 C 
ATOM      6  C   UNL     1      17.866  37.715  46.511  0.00  0.00    +0.000 C 
ATOM      7  C   UNL     1      16.824  36.906  45.729  0.00  0.00    +0.000 C 
ATOM      8  C   UNL     1      15.592  37.741  45.819  0.00  0.00    +0.000 C 
ATOM      9  C   UNL     1      15.728  38.727  46.718  0.00  0.00    +0.000 C 
BRANCH   9  10
ATOM     10  C   UNL     1      14.779  39.838  46.930  0.00  0.00    +0.000 C 
ATOM     11  O   UNL     1      13.909  39.681  47.789  0.00  0.00    +0.000 OA
ATOM     12  N   UNL     1      14.918  41.019  46.241  0.00  0.00    +0.000 N 
ATOM     13  C   UNL     1      14.149  42.195  46.675  0.00  0.00    +0.000 C 
ATOM     14  C   UNL     1      14.695  43.398  45.907  0.00  0.00    +0.000 C 
ATOM     15  C   UNL     1      15.435  42.722  44.796  0.00  0.00    +0.000 A 
ATOM     16  C   UNL     1      15.975  43.323  43.668  0.00  0.00    +0.000 A 
ATOM     17  C   UNL     1      16.638  42.518  42.745  0.00  0.00    +0.000 A 
ATOM     18  C   UNL     1      16.746  41.137  42.960  0.00  0.00    +0.000 A 
ATOM     19  C   UNL     1      16.202  40.546  44.108  0.00  0.00    +0.000 A 
ATOM     20  C   UNL     1      15.564  41.349  45.035  0.00  0.00    +0.000 A 
ENDBRANCH   9  10
ENDBRANCH   2   5
BRANCH   1  21
ATOM     21  C   UNL     1      16.067  39.090  51.012  0.00  0.00    +0.000 C 
BRANCH  21  25
ATOM     22  C   UNL     1      14.971  42.783  52.950  0.00  0.00    +0.000 A 
ATOM     23  C   UNL     1      16.298  42.556  52.576  0.00  0.00    +0.000 A 
ATOM     24  C   UNL     1      16.645  41.362  51.940  0.00  0.00    +0.000 A 
ATOM     25  C   UNL     1      15.672  40.387  51.672  0.00  0.00    +0.000 A 
ATOM     26  C   UNL     1      14.344  40.623  52.058  0.00  0.00    +0.000 A 
ATOM     27  C   UNL     1      13.993  41.818  52.691  0.00  0.00    +0.000 A 
BRANCH  22  29
ATOM     28  N   UNL     1      13.423  44.254  54.117  0.00  0.00    +0.000 NA
ATOM     29  C   UNL     1      14.607  44.053  53.629  0.00  0.00    +0.000 C 
ATOM     30  N   UNL     1      15.512  45.059  53.758  0.00  0.00    +0.000 N 
ATOM     31  H   UNL     1      12.815  43.448  53.948  0.00  0.00    +0.000 HD
ATOM     32  H   UNL     1      16.282  45.129  53.110  0.00  0.00    +0.000 HD
ATOM     33  H   UNL     1      15.087  45.942  54.020  0.00  0.00    +0.000 HD
ENDBRANCH  22  29
ENDBRANCH  21  25
ENDBRANCH   1  21
TORSDOF 5
ENDMDL
MODEL 3
REMARK VINA RESULT:    -4.877      5.428      9.998
REMARK INTER + INTRA:          -9.382
REMARK INTER:                  -6.303
REMARK INTRA:                  -3.079
REMARK UNBOUND:                -3.079
REMARK  Name = 
REMARK  5 active torsions:
REMARK  status: ('A' for Active; 'I' for Inactive)
REMARK    1  A    between atoms: C_2  and  C_4
REMARK    2  A    between atoms: C_7  and  C_8
REMARK    3  A    between atoms: C_8  and  N_9
REMARK    4  A    between atoms: C_10  and  C_12
REMARK    5  A    between atoms: C_16  and  C_17
REMARK                            x       y       z     vdW  Elec       q    Type
REMARK                         _______ _______ _______ _____ _____    ______ ____
ROOT
ATOM      1  N   UNL     1      15.804  43.215  42.471  0.00  0.00    +0.000 N 
ATOM      2  C   UNL     1      14.881  43.176  41.450  0.00  0.00    +0.000 C 
ATOM      3  O   UNL     1      14.655  42.154  40.806  0.00  0.00    +0.000 OA
ATOM      4  H   UNL     1      15.896  44.050  43.030  0.00  0.00    +0.000 HD
ENDROOT
BRANCH   2   5
ATOM      5  C   UNL     1      14.158  44.491  41.146  0.00  0.00    +0.000 C 
ATOM      6  C   UNL     1      13.568  44.567  39.729  0.00  0.00    +0.000 C 
ATOM      7  C   UNL     1      12.048  44.428  39.875  0.00  0.00    +0.000 C 
ATOM      8  C   UNL     1      11.811  44.677  41.326  0.00  0.00    +0.000 C 
ATOM      9  C   UNL     1      12.958  44.676  42.021  0.00  0.00    +0.000 C 
BRANCH   9  10
ATOM     10  C   UNL     1      13.109  45.064  43.437  0.00  0.00    +0.000 C 
ATOM     11  O   UNL     1      13.641  46.152  43.671  0.00  0.00    +0.000 OA
ATOM     12  N   UNL     1      12.607  44.269  44.439  0.00  0.00    +0.000 N 
ATOM     13  C   UNL     1      12.513  44.810  45.803  0.00  0.00    +0.000 C 
ATOM     14  C   UNL     1      11.692  43.818  46.625  0.00  0.00    +0.000 C 
ATOM     15  C   UNL     1      11.759  42.599  45.760  0.00  0.00    +0.000 A 
ATOM     16  C   UNL     1      11.352  41.315  46.096  0.00  0.00    +0.000 A 
ATOM     17  C   UNL     1      11.491  40.308  45.143  0.00  0.00    +0.000 A 
ATOM     18  C   UNL     1      12.032  40.598  43.883  0.00  0.00    +0.000 A 
ATOM     19  C   UNL     1      12.431  41.900  43.557  0.00  0.00    +0.000 A 
ATOM     20  C   UNL     1      12.272  42.903  44.494  0.00  0.00    +0.000 A 
ENDBRANCH   9  10
ENDBRANCH   2   5
BRANCH   1  21
ATOM     21  C   UNL     1      16.514  42.036  42.912  0.00  0.00    +0.000 C 
BRANCH  21  25
ATOM     22  C   UNL     1      15.050  40.761  46.761  0.00  0.00    +0.000 A 
ATOM     23  C   UNL     1      15.155  42.123  46.469  0.00  0.00    +0.000 A 
ATOM     24  C   UNL     1      15.620  42.530  45.217  0.00  0.00    +0.000 A 
ATOM     25  C   UNL     1      15.984  41.582  44.248  0.00  0.00    +0.000 A 
ATOM     26  C   UNL     1      15.881  40.218  44.555  0.00  0.00    +0.000 A 
ATOM     27  C   UNL     1      15.411  39.807  45.805  0.00  0.00    +0.000 A 
BRANCH  22  29
ATOM     28  N   UNL     1      13.558  39.516  48.227  0.00  0.00    +0.000 NA
ATOM     29  C   UNL     1      14.556  40.332  48.096  0.00  0.00    +0.000 C 
ATOM     30  N   UNL     1      15.138  40.792  49.235  0.00  0.00    +0.000 N 
ATOM     31  H   UNL     1      13.181  39.250  47.314  0.00  0.00    +0.000 HD
ATOM     32  H   UNL     1      15.635  41.671  49.227  0.00  0.00    +0.000 HD
ATOM     33  H   UNL     1      14.577  40.622  50.062  0.00  0.00    +0.000 HD
ENDBRANCH  22  29
ENDBRANCH  21  25
ENDBRANCH   1  21
TORSDOF 5
ENDMDL
