MODEL 1
REMARK VINA RESULT:    -7.201      0.000      0.000
REMARK INTER + INTRA:         -10.092
REMARK INTER:                  -9.149
REMARK INTRA:                  -0.943
REMARK UNBOUND:                -1.207
REMARK  Name = 
REMARK  7 active torsions:
REMARK  status: ('A' for Active; 'I' for Inactive)
REMARK    1  A    between atoms: C_1  and  C_2
REMARK    2  A    between atoms: C_10  and  C_11
REMARK    3  A    between atoms: C_15  and  C_16
REMARK    4  A    between atoms: N_18  and  C_19
REMARK    5  A    between atoms: C_21  and  C_22
REMARK    6  A    between atoms: C_28  and  C_29
REMARK    7  A    between atoms: C_33  and  C_34
REMARK                            x       y       z     vdW  Elec       q    Type
REMARK                         _______ _______ _______ _____ _____    ______ ____
ROOT
ATOM      1  C   UNL     1      17.421  38.008  48.735  0.00  0.00    +0.000 C 
ATOM      2  C   UNL     1      17.144  37.943  47.258  0.00  0.00    +0.000 C 
ATOM      3  C   UNL     1      16.244  38.689  46.572  0.00  0.00    +0.000 C 
ATOM      4  N   UNL     1      15.491  39.703  47.160  0.00  0.00    +0.000 N 
ATOM      5  C   UNL     1      15.205  40.983  46.516  0.00  0.00    +0.000 C 
ATOM      6  C   UNL     1      15.801  41.031  45.101  0.00  0.00    +0.000 C 
ATOM      7  C   UNL     1      15.348  39.746  44.389  0.00  0.00    +0.000 C 
ATOM      8  C   UNL     1      15.519  39.884  42.877  0.00  0.00    +0.000 C 
ATOM      9  C   UNL     1      14.653  41.006  42.292  0.00  0.00    +0.000 C 
ATOM     10  C   UNL     1      14.373  42.217  43.238  0.00  0.00    +0.000 C 
ATOM     11  C   UNL     1      12.943  42.097  43.800  0.00  0.00    +0.000 C 
ATOM     12  C   UNL     1      15.426  42.335  44.361  0.00  0.00    +0.000 C 
ATOM     13  C   UNL     1      16.637  42.974  43.651  0.00  0.00    +0.000 C 
ATOM     14  C   UNL     1      16.086  43.798  42.483  0.00  0.00    +0.000 C 
ATOM     15  C   UNL     1      14.572  43.545  42.442  0.00  0.00    +0.000 C 
ATOM     16  C   UNL     1      16.014  38.478  45.049  0.00  0.00    +0.000 C 
ATOM     17  C   UNL     1      15.035  37.289  44.863  0.00  0.00    +0.000 C 
ATOM     18  C   UNL     1      17.377  38.145  44.408  0.00  0.00    +0.000 C 
ATOM     19  C   UNL     1      18.028  36.921  45.032  0.00  0.00    +0.000 C 
ATOM     20  C   UNL     1      18.010  36.950  46.539  0.00  0.00    +0.000 C 
ATOM     21  O   UNL     1      18.707  36.160  47.178  0.00  0.00    +0.000 OA
ATOM     22  H   UNL     1      15.618  39.805  48.162  0.00  0.00    +0.000 HD
ENDROOT
BRANCH  15  23
ATOM     23  C   UNL     1      13.729  44.746  42.917  0.00  0.00    +0.000 C 
ATOM     24  O   UNL     1      12.675  45.006  42.341  0.00  0.00    +0.000 OA
ATOM     25  N   UNL     1      14.221  45.410  44.026  0.00  0.00    +0.000 N 
ATOM     26  H   UNL     1      15.178  45.184  44.276  0.00  0.00    +0.000 HD
BRANCH  25  27
ATOM     27  C   UNL     1      13.605  46.437  44.785  0.00  0.00    +0.000 A 
ATOM     28  C   UNL     1      13.782  47.796  44.483  0.00  0.00    +0.000 A 
ATOM     29  C   UNL     1      13.156  48.810  45.235  0.00  0.00    +0.000 A 
ATOM     30  C   UNL     1      12.324  48.449  46.298  0.00  0.00    +0.000 A 
ATOM     31  C   UNL     1      12.126  47.105  46.603  0.00  0.00    +0.000 A 
ATOM     32  C   UNL     1      12.764  46.088  45.863  0.00  0.00    +0.000 A 
BRANCH  29  33
ATOM     33  C   UNL     1      13.394  50.259  44.882  0.00  0.00    +0.000 C 
ATOM     34  F   UNL     1      14.067  50.413  43.710  0.00  0.00    +0.000 F 
ATOM     35  F   UNL     1      12.241  50.973  44.742  0.00  0.00    +0.000 F 
ATOM     36  F   UNL     1      14.123  50.915  45.826  0.00  0.00    +0.000 F 
ENDBRANCH  29  33
BRANCH  32  37
ATOM     37  C   UNL     1      12.475  44.658  46.254  0.00  0.00    +0.000 C 
ATOM     38  F   UNL     1      11.723  43.985  45.329  0.00  0.00    +0.000 F 
ATOM     39  F   UNL     1      11.777  44.565  47.422  0.00  0.00    +0.000 F 
ATOM     40  F   UNL     1      13.600  43.909  46.425  0.00  0.00    +0.000 F 
ENDBRANCH  32  37
ENDBRANCH  25  27
ENDBRANCH  15  23
TORSDOF 4
ENDMDL
MODEL 2
REMARK VINA RESULT:    -6.957      2.678      4.100
REMARK INTER + INTRA:          -9.790
REMARK INTER:                  -9.120
REMARK INTRA:                  -0.671
REMARK UNBOUND:                -1.207
REMARK  Name = 
REMARK  7 active torsions:
REMARK  status: ('A' for Active; 'I' for Inactive)
REMARK    1  A    between atoms: C_1  and  C_2
REMARK    2  A    between atoms: C_10  and  C_11
REMARK    3  A    between atoms: C_15  and  C_16
REMARK    4  A    between atoms: N_18  and  C_19
REMARK    5  A    between atoms: C_21  and  C_22
REMARK    6  A    between atoms: C_28  and  C_29
REMARK    7  A    between atoms: C_33  and  C_34
REMARK                            x       y       z     vdW  Elec       q    Type
REMARK                         _______ _______ _______ _____ _____    ______ ____
ROOT
ATOM      1  C   UNL     1      14.428  37.523  38.788  0.00  0.00    +0.000 C 
ATOM      2  C   UNL     1      14.938  37.652  40.197  0.00  0.00    +0.000 C 
ATOM      3  C   UNL     1      15.296  38.799  40.824  0.00  0.00    +0.000 C 
ATOM      4  N   UNL     1      15.155  40.058  40.245  0.00  0.00    +0.000 N 
ATOM      5  C   UNL     1      14.705  41.244  40.970  0.00  0.00    +0.000 C 
ATOM      6  C   UNL     1      14.460  40.920  42.452  0.00  0.00    +0.000 C 
ATOM      7  C   UNL     1      15.719  40.197  42.958  0.00  0.00    +0.000 C 
ATOM      8  C   UNL     1      15.763  40.208  44.485  0.00  0.00    +0.000 C 
ATOM      9  C   UNL     1      15.847  41.629  45.056  0.00  0.00    +0.000 C 
ATOM     10  C   UNL     1      15.159  42.747  44.210  0.00  0.00    +0.000 C 
ATOM     11  C   UNL     1      16.240  43.536  43.445  0.00  0.00    +0.000 C 
ATOM     12  C   UNL     1      14.080  42.181  43.262  0.00  0.00    +0.000 C 
ATOM     13  C   UNL     1      12.877  41.935  44.196  0.00  0.00    +0.000 C 
ATOM     14  C   UNL     1      13.001  42.930  45.354  0.00  0.00    +0.000 C 
ATOM     15  C   UNL     1      14.332  43.670  45.158  0.00  0.00    +0.000 C 
ATOM     16  C   UNL     1      15.864  38.785  42.270  0.00  0.00    +0.000 C 
ATOM     17  C   UNL     1      17.380  38.460  42.196  0.00  0.00    +0.000 C 
ATOM     18  C   UNL     1      15.126  37.683  43.058  0.00  0.00    +0.000 C 
ATOM     19  C   UNL     1      15.264  36.315  42.408  0.00  0.00    +0.000 C 
ATOM     20  C   UNL     1      15.000  36.340  40.924  0.00  0.00    +0.000 C 
ATOM     21  O   UNL     1      14.834  35.285  40.311  0.00  0.00    +0.000 OA
ATOM     22  H   UNL     1      14.822  40.054  39.286  0.00  0.00    +0.000 HD
ENDROOT
BRANCH  15  23
ATOM     23  C   UNL     1      14.166  45.132  44.695  0.00  0.00    +0.000 C 
ATOM     24  O   UNL     1      13.667  45.363  43.596  0.00  0.00    +0.000 OA
ATOM     25  N   UNL     1      14.553  46.090  45.616  0.00  0.00    +0.000 N 
ATOM     26  H   UNL     1      15.099  45.742  46.397  0.00  0.00    +0.000 HD
BRANCH  25  27
ATOM     27  C   UNL     1      14.381  47.496  45.552  0.00  0.00    +0.000 A 
ATOM     28  C   UNL     1      15.409  48.354  45.134  0.00  0.00    +0.000 A 
ATOM     29  C   UNL     1      15.225  49.750  45.063  0.00  0.00    +0.000 A 
ATOM     30  C   UNL     1      13.981  50.287  45.399  0.00  0.00    +0.000 A 
ATOM     31  C   UNL     1      12.945  49.449  45.803  0.00  0.00    +0.000 A 
ATOM     32  C   UNL     1      13.130  48.053  45.892  0.00  0.00    +0.000 A 
BRANCH  29  33
ATOM     33  C   UNL     1      16.369  50.634  44.625  0.00  0.00    +0.000 C 
ATOM     34  F   UNL     1      17.566  49.988  44.630  0.00  0.00    +0.000 F 
ATOM     35  F   UNL     1      16.217  51.120  43.361  0.00  0.00    +0.000 F 
ATOM     36  F   UNL     1      16.524  51.724  45.425  0.00  0.00    +0.000 F 
ENDBRANCH  29  33
BRANCH  32  37
ATOM     37  C   UNL     1      11.945  47.221  46.321  0.00  0.00    +0.000 C 
ATOM     38  F   UNL     1      12.282  46.184  47.148  0.00  0.00    +0.000 F 
ATOM     39  F   UNL     1      11.300  46.645  45.266  0.00  0.00    +0.000 F 
ATOM     40  F   UNL     1      11.002  47.935  46.997  0.00  0.00    +0.000 F 
ENDBRANCH  32  37
ENDBRANCH  25  27
ENDBRANCH  15  23
TORSDOF 4
ENDMDL
MODEL 3
REMARK VINA RESULT:    -6.634      3.841      9.264
REMARK INTER + INTRA:          -9.393
REMARK INTER:                  -8.186
REMARK INTRA:                  -1.207
REMARK UNBOUND:                -1.207
REMARK  Name = 
REMARK  7 active torsions:
REMARK  status: ('A' for Active; 'I' for Inactive)
REMARK    1  A    between atoms: C_1  and  C_2
REMARK    2  A    between atoms: C_10  and  C_11
REMARK    3  A    between atoms: C_15  and  C_16
REMARK    4  A    between atoms: N_18  and  C_19
REMARK    5  A    between atoms: C_21  and  C_22
REMARK    6  A    between atoms: C_28  and  C_29
REMARK    7  A    between atoms: C_33  and  C_34
REMARK                            x       y       z     vdW  Elec       q    Type
REMARK                         _______ _______ _______ _____ _____    ______ ____
ROOT
ATOM      1  C   UNL     1      10.670  45.911  47.555  0.00  0.00    +0.000 C 
ATOM      2  C   UNL     1      11.126  46.081  46.132  0.00  0.00    +0.000 C 
ATOM      3  C   UNL     1      12.262  45.585  45.583  0.00  0.00    +0.000 C 
ATOM      4  N   UNL     1      13.142  44.756  46.276  0.00  0.00    +0.000 N 
ATOM      5  C   UNL     1      13.805  43.597  45.685  0.00  0.00    +0.000 C 
ATOM      6  C   UNL     1      13.438  43.453  44.199  0.00  0.00    +0.000 C 
ATOM      7  C   UNL     1      13.672  44.828  43.553  0.00  0.00    +0.000 C 
ATOM      8  C   UNL     1      13.749  44.698  42.033  0.00  0.00    +0.000 C 
ATOM      9  C   UNL     1      14.926  43.824  41.581  0.00  0.00    +0.000 C 
ATOM     10  C   UNL     1      15.347  42.685  42.562  0.00  0.00    +0.000 C 
ATOM     11  C   UNL     1      16.618  43.117  43.319  0.00  0.00    +0.000 C 
ATOM     12  C   UNL     1      14.207  42.293  43.526  0.00  0.00    +0.000 C 
ATOM     13  C   UNL     1      13.289  41.411  42.655  0.00  0.00    +0.000 C 
ATOM     14  C   UNL     1      14.173  40.772  41.580  0.00  0.00    +0.000 C 
ATOM     15  C   UNL     1      15.577  41.370  41.751  0.00  0.00    +0.000 C 
ATOM     16  C   UNL     1      12.643  45.886  44.107  0.00  0.00    +0.000 C 
ATOM     17  C   UNL     1      13.333  47.275  44.056  0.00  0.00    +0.000 C 
ATOM     18  C   UNL     1      11.342  45.913  43.279  0.00  0.00    +0.000 C 
ATOM     19  C   UNL     1      10.343  46.934  43.799  0.00  0.00    +0.000 C 
ATOM     20  C   UNL     1      10.159  46.866  45.294  0.00  0.00    +0.000 C 
ATOM     21  O   UNL     1       9.216  47.454  45.825  0.00  0.00    +0.000 OA
ATOM     22  H   UNL     1      12.905  44.599  47.250  0.00  0.00    +0.000 HD
ENDROOT
BRANCH  15  23
ATOM     23  C   UNL     1      16.603  40.385  42.346  0.00  0.00    +0.000 C 
ATOM     24  O   UNL     1      17.750  40.371  41.904  0.00  0.00    +0.000 OA
ATOM     25  N   UNL     1      16.142  39.618  43.401  0.00  0.00    +0.000 N 
ATOM     26  H   UNL     1      15.136  39.623  43.532  0.00  0.00    +0.000 HD
BRANCH  25  27
ATOM     27  C   UNL     1      16.876  38.749  44.247  0.00  0.00    +0.000 A 
ATOM     28  C   UNL     1      17.774  37.798  43.740  0.00  0.00    +0.000 A 
ATOM     29  C   UNL     1      18.509  36.946  44.590  0.00  0.00    +0.000 A 
ATOM     30  C   UNL     1      18.350  37.067  45.972  0.00  0.00    +0.000 A 
ATOM     31  C   UNL     1      17.473  38.015  46.494  0.00  0.00    +0.000 A 
ATOM     32  C   UNL     1      16.724  38.858  45.646  0.00  0.00    +0.000 A 
BRANCH  29  33
ATOM     33  C   UNL     1      19.449  35.925  43.994  0.00  0.00    +0.000 C 
ATOM     34  F   UNL     1      19.557  36.033  42.642  0.00  0.00    +0.000 F 
ATOM     35  F   UNL     1      20.720  36.022  44.475  0.00  0.00    +0.000 F 
ATOM     36  F   UNL     1      19.056  34.645  44.241  0.00  0.00    +0.000 F 
ENDBRANCH  29  33
BRANCH  32  37
ATOM     37  C   UNL     1      15.813  39.868  46.301  0.00  0.00    +0.000 C 
ATOM     38  F   UNL     1      16.116  41.163  45.975  0.00  0.00    +0.000 F 
ATOM     39  F   UNL     1      15.867  39.818  47.663  0.00  0.00    +0.000 F 
ATOM     40  F   UNL     1      14.501  39.706  45.968  0.00  0.00    +0.000 F 
ENDBRANCH  32  37
ENDBRANCH  25  27
ENDBRANCH  15  23
TORSDOF 4
ENDMDL
