MODEL 1
REMARK VINA RESULT:    -7.095      0.000      0.000
REMARK INTER + INTRA:         -10.573
REMARK INTER:                  -9.232
REMARK INTRA:                  -1.341
REMARK UNBOUND:                -1.198
REMARK  Name = 
REMARK  6 active torsions:
REMARK  status: ('A' for Active; 'I' for Inactive)
REMARK    1  A    between atoms: C_2  and  C_17
REMARK    2  A    between atoms: N_3  and  C_4
REMARK    3  A    between atoms: C_9  and  C_10
REMARK    4  A    between atoms: C_13  and  O_14
REMARK    5  A    between atoms: C_17  and  C_18
REMARK    6  A    between atoms: C_17  and  C_24
REMARK                            x       y       z     vdW  Elec       q    Type
REMARK                         _______ _______ _______ _____ _____    ______ ____
ROOT
ATOM      1  O   UNL     1      18.091  39.368  51.593  0.00  0.00    +0.000 OA
ATOM      2  C   UNL     1      17.275  38.444  51.573  0.00  0.00    +0.000 C 
ATOM      3  N   UNL     1      15.951  38.658  51.251  0.00  0.00    +0.000 N 
ATOM      4  H   UNL     1      15.302  37.884  51.329  0.00  0.00    +0.000 HD
ENDROOT
BRANCH   3   5
ATOM      5  C   UNL     1      15.406  39.992  50.976  0.00  0.00    +0.000 C 
ATOM      6  C   UNL     1      14.722  39.989  49.604  0.00  0.00    +0.000 C 
ATOM      7  C   UNL     1      13.466  39.113  49.554  0.00  0.00    +0.000 C 
ATOM      8  C   UNL     1      12.726  39.022  50.889  0.00  0.00    +0.000 C 
ATOM      9  C   UNL     1      12.942  40.272  51.733  0.00  0.00    +0.000 C 
ATOM     10  C   UNL     1      14.432  40.451  52.105  0.00  0.00    +0.000 C 
BRANCH  10  11
ATOM     11  C   UNL     1      14.739  41.867  52.580  0.00  0.00    +0.000 A 
ATOM     12  C   UNL     1      16.011  42.448  52.441  0.00  0.00    +0.000 A 
ATOM     13  C   UNL     1      16.258  43.746  52.894  0.00  0.00    +0.000 A 
ATOM     14  C   UNL     1      15.236  44.468  53.502  0.00  0.00    +0.000 A 
ATOM     15  C   UNL     1      13.977  43.909  53.669  0.00  0.00    +0.000 A 
ATOM     16  C   UNL     1      13.731  42.612  53.215  0.00  0.00    +0.000 A 
BRANCH  14  17
ATOM     17  O   UNL     1      15.434  45.737  53.958  0.00  0.00    +0.000 OA
ATOM     18  H   UNL     1      15.836  45.689  54.842  0.00  0.00    +0.000 HD
ENDBRANCH  14  17
ENDBRANCH  10  11
ENDBRANCH   3   5
BRANCH   2  19
ATOM     19  C   UNL     1      17.683  36.998  51.943  0.00  0.00    +0.000 C 
BRANCH  19  20
ATOM     20  C   UNL     1      17.772  36.740  53.452  0.00  0.00    +0.000 A 
ATOM     21  C   UNL     1      18.318  35.557  53.981  0.00  0.00    +0.000 A 
ATOM     22  C   UNL     1      18.431  35.378  55.362  0.00  0.00    +0.000 A 
ATOM     23  C   UNL     1      18.006  36.379  56.233  0.00  0.00    +0.000 A 
ATOM     24  C   UNL     1      17.468  37.560  55.726  0.00  0.00    +0.000 A 
ATOM     25  C   UNL     1      17.354  37.742  54.345  0.00  0.00    +0.000 A 
ENDBRANCH  19  20
BRANCH  19  26
ATOM     26  C   UNL     1      18.898  36.492  51.161  0.00  0.00    +0.000 A 
ATOM     27  C   UNL     1      20.215  36.645  51.626  0.00  0.00    +0.000 A 
ATOM     28  C   UNL     1      21.294  36.147  50.893  0.00  0.00    +0.000 A 
ATOM     29  C   UNL     1      21.074  35.480  49.690  0.00  0.00    +0.000 A 
ATOM     30  C   UNL     1      19.776  35.310  49.218  0.00  0.00    +0.000 A 
ATOM     31  C   UNL     1      18.695  35.810  49.948  0.00  0.00    +0.000 A 
ENDBRANCH  19  26
ENDBRANCH   2  19
TORSDOF 6
ENDMDL
MODEL 2
REMARK VINA RESULT:    -6.707      8.172     10.820
REMARK INTER + INTRA:         -10.061
REMARK INTER:                  -8.757
REMARK INTRA:                  -1.304
REMARK UNBOUND:                -1.198
REMARK  Name = 
REMARK  6 active torsions:
REMARK  status: ('A' for Active; 'I' for Inactive)
REMARK    1  A    between atoms: C_2  and  C_17
REMARK    2  A    between atoms: N_3  and  C_4
REMARK    3  A    between atoms: C_9  and  C_10
REMARK    4  A    between atoms: C_13  and  O_14
REMARK    5  A    between atoms: C_17  and  C_18
REMARK    6  A    between atoms: C_17  and  C_24
REMARK                            x       y       z     vdW  Elec       q    Type
REMARK                         _______ _______ _______ _____ _____    ______ ____
ROOT
ATOM      1  O   UNL     1      14.536  44.288  42.711  0.00  0.00    +0.000 OA
ATOM      2  C   UNL     1      14.664  44.148  43.929  0.00  0.00    +0.000 C 
ATOM      3  N   UNL     1      14.305  45.146  44.813  0.00  0.00    +0.000 N 
ATOM      4  H   UNL     1      14.506  45.017  45.796  0.00  0.00    +0.000 HD
ENDROOT
BRANCH   3   5
ATOM      5  C   UNL     1      13.815  46.457  44.372  0.00  0.00    +0.000 C 
ATOM      6  C   UNL     1      12.345  46.335  43.954  0.00  0.00    +0.000 C 
ATOM      7  C   UNL     1      11.406  46.017  45.123  0.00  0.00    +0.000 C 
ATOM      8  C   UNL     1      11.880  46.580  46.462  0.00  0.00    +0.000 C 
ATOM      9  C   UNL     1      12.720  47.837  46.275  0.00  0.00    +0.000 C 
ATOM     10  C   UNL     1      14.012  47.538  45.479  0.00  0.00    +0.000 C 
BRANCH  10  11
ATOM     11  C   UNL     1      14.653  48.807  44.927  0.00  0.00    +0.000 A 
ATOM     12  C   UNL     1      13.939  49.733  44.150  0.00  0.00    +0.000 A 
ATOM     13  C   UNL     1      14.562  50.883  43.655  0.00  0.00    +0.000 A 
ATOM     14  C   UNL     1      15.908  51.104  43.924  0.00  0.00    +0.000 A 
ATOM     15  C   UNL     1      16.640  50.194  44.672  0.00  0.00    +0.000 A 
ATOM     16  C   UNL     1      16.017  49.046  45.168  0.00  0.00    +0.000 A 
BRANCH  14  17
ATOM     17  O   UNL     1      16.554  52.212  43.462  0.00  0.00    +0.000 OA
ATOM     18  H   UNL     1      17.490  52.152  43.715  0.00  0.00    +0.000 HD
ENDBRANCH  14  17
ENDBRANCH  10  11
ENDBRANCH   3   5
BRANCH   2  19
ATOM     19  C   UNL     1      15.266  42.857  44.536  0.00  0.00    +0.000 C 
BRANCH  19  20
ATOM     20  C   UNL     1      15.566  41.763  43.505  0.00  0.00    +0.000 A 
ATOM     21  C   UNL     1      16.862  41.528  43.015  0.00  0.00    +0.000 A 
ATOM     22  C   UNL     1      17.107  40.487  42.115  0.00  0.00    +0.000 A 
ATOM     23  C   UNL     1      16.062  39.666  41.695  0.00  0.00    +0.000 A 
ATOM     24  C   UNL     1      14.772  39.881  42.175  0.00  0.00    +0.000 A 
ATOM     25  C   UNL     1      14.525  40.921  43.076  0.00  0.00    +0.000 A 
ENDBRANCH  19  20
BRANCH  19  26
ATOM     26  C   UNL     1      14.503  42.352  45.764  0.00  0.00    +0.000 A 
ATOM     27  C   UNL     1      13.162  42.690  46.013  0.00  0.00    +0.000 A 
ATOM     28  C   UNL     1      12.495  42.186  47.132  0.00  0.00    +0.000 A 
ATOM     29  C   UNL     1      13.153  41.332  48.013  0.00  0.00    +0.000 A 
ATOM     30  C   UNL     1      14.479  40.979  47.777  0.00  0.00    +0.000 A 
ATOM     31  C   UNL     1      15.149  41.482  46.660  0.00  0.00    +0.000 A 
ENDBRANCH  19  26
ENDBRANCH   2  19
TORSDOF 6
ENDMDL
MODEL 3
REMARK VINA RESULT:    -6.546      3.087      4.808
REMARK INTER + INTRA:          -9.848
REMARK INTER:                  -8.651
REMARK INTRA:                  -1.198
REMARK UNBOUND:                -1.198
REMARK  Name = 
REMARK  6 active torsions:
REMARK  status: ('A' for Active; 'I' for Inactive)
REMARK    1  A    between atoms: C_2  and  C_17
REMARK    2  A    between atoms: N_3  and  C_4
REMARK    3  A    between atoms: C_9  and  C_10
REMARK    4  A    between atoms: C_13  and  O_14
REMARK    5  A    between atoms: C_17  and  C_18
REMARK    6  A    between atoms: C_17  and  C_24
REMARK                            x       y       z     vdW  Elec       q    Type
REMARK                         _______ _______ _______ _____ _____    ______ ____
ROOT
ATOM      1  O   UNL     1      17.522  37.926  48.352  0.00  0.00    +0.000 OA
ATOM      2  C   UNL     1      16.862  37.693  49.366  0.00  0.00    +0.000 C 
ATOM      3  N   UNL     1      15.502  37.926  49.411  0.00  0.00    +0.000 N 
ATOM      4  H   UNL     1      15.018  37.798  50.291  0.00  0.00    +0.000 HD
ENDROOT
BRANCH   3   5
ATOM      5  C   UNL     1      14.762  38.524  48.294  0.00  0.00    +0.000 C 
ATOM      6  C   UNL     1      13.313  38.020  48.318  0.00  0.00    +0.000 C 
ATOM      7  C   UNL     1      12.519  38.515  49.532  0.00  0.00    +0.000 C 
ATOM      8  C   UNL     1      12.967  39.884  50.043  0.00  0.00    +0.000 C 
ATOM      9  C   UNL     1      13.558  40.733  48.924  0.00  0.00    +0.000 C 
ATOM     10  C   UNL     1      14.831  40.081  48.336  0.00  0.00    +0.000 C 
BRANCH  10  11
ATOM     11  C   UNL     1      15.203  40.670  46.979  0.00  0.00    +0.000 A 
ATOM     12  C   UNL     1      14.921  42.002  46.634  0.00  0.00    +0.000 A 
ATOM     13  C   UNL     1      15.270  42.506  45.378  0.00  0.00    +0.000 A 
ATOM     14  C   UNL     1      15.893  41.675  44.454  0.00  0.00    +0.000 A 
ATOM     15  C   UNL     1      16.165  40.350  44.763  0.00  0.00    +0.000 A 
ATOM     16  C   UNL     1      15.817  39.848  46.019  0.00  0.00    +0.000 A 
BRANCH  14  17
ATOM     17  O   UNL     1      16.252  42.126  43.218  0.00  0.00    +0.000 OA
ATOM     18  H   UNL     1      16.114  43.087  43.189  0.00  0.00    +0.000 HD
ENDBRANCH  14  17
ENDBRANCH  10  11
ENDBRANCH   3   5
BRANCH   2  19
ATOM     19  C   UNL     1      17.525  37.159  50.658  0.00  0.00    +0.000 C 
BRANCH  19  20
ATOM     20  C   UNL     1      17.504  38.150  51.828  0.00  0.00    +0.000 A 
ATOM     21  C   UNL     1      17.232  37.748  53.147  0.00  0.00    +0.000 A 
ATOM     22  C   UNL     1      17.273  38.670  54.196  0.00  0.00    +0.000 A 
ATOM     23  C   UNL     1      17.590  40.003  53.943  0.00  0.00    +0.000 A 
ATOM     24  C   UNL     1      17.869  40.416  52.643  0.00  0.00    +0.000 A 
ATOM     25  C   UNL     1      17.829  39.497  51.592  0.00  0.00    +0.000 A 
ENDBRANCH  19  20
BRANCH  19  26
ATOM     26  C   UNL     1      18.898  36.523  50.416  0.00  0.00    +0.000 A 
ATOM     27  C   UNL     1      19.170  35.716  49.299  0.00  0.00    +0.000 A 
ATOM     28  C   UNL     1      20.444  35.176  49.103  0.00  0.00    +0.000 A 
ATOM     29  C   UNL     1      21.464  35.441  50.012  0.00  0.00    +0.000 A 
ATOM     30  C   UNL     1      21.215  36.246  51.120  0.00  0.00    +0.000 A 
ATOM     31  C   UNL     1      19.942  36.786  51.320  0.00  0.00    +0.000 A 
ENDBRANCH  19  26
ENDBRANCH   2  19
TORSDOF 6
ENDMDL
