MODEL 1
REMARK VINA RESULT:    -6.956      0.000      0.000
REMARK INTER + INTRA:          -8.403
REMARK INTER:                  -8.172
REMARK INTRA:                  -0.231
REMARK UNBOUND:                -0.227
REMARK  Name = 
REMARK  5 active torsions:
REMARK  status: ('A' for Active; 'I' for Inactive)
REMARK    1  A    between atoms: C_1  and  C_2
REMARK    2  A    between atoms: C_2  and  C_3
REMARK    3  A    between atoms: C_10  and  C_11
REMARK    4  A    between atoms: C_11  and  C_12
REMARK    5  A    between atoms: C_12  and  N_13
REMARK                            x       y       z     vdW  Elec       q    Type
REMARK                         _______ _______ _______ _____ _____    ______ ____
ROOT
ATOM      1  C   UNL     1      18.523  37.752  51.906  0.00  0.00    +0.000 C 
ENDROOT
BRANCH   1   2
ATOM      2  N   UNL     1      17.346  38.603  51.660  0.00  0.00    +0.000 NA
ATOM      3  C   UNL     1      16.329  38.443  52.731  0.00  0.00    +0.000 C 
ATOM      4  C   UNL     1      16.346  39.558  53.797  0.00  0.00    +0.000 C 
ATOM      5  N   UNL     1      16.083  40.890  53.200  0.00  0.00    +0.000 N 
ATOM      6  C   UNL     1      14.846  41.445  53.441  0.00  0.00    +0.000 A 
ATOM      7  N   UNL     1      13.750  40.725  53.670  0.00  0.00    +0.000 NA
ATOM      8  S   UNL     1      12.456  41.724  53.864  0.00  0.00    +0.000 S 
ATOM      9  C   UNL     1      13.315  43.196  53.687  0.00  0.00    +0.000 A 
ATOM     10  C   UNL     1      12.840  44.518  53.747  0.00  0.00    +0.000 A 
ATOM     11  C   UNL     1      13.755  45.561  53.590  0.00  0.00    +0.000 A 
ATOM     12  C   UNL     1      15.103  45.295  53.386  0.00  0.00    +0.000 A 
ATOM     13  C   UNL     1      15.563  43.975  53.325  0.00  0.00    +0.000 A 
ATOM     14  C   UNL     1      14.659  42.890  53.464  0.00  0.00    +0.000 A 
ATOM     15  C   UNL     1      16.555  41.008  51.796  0.00  0.00    +0.000 C 
ATOM     16  C   UNL     1      17.714  40.030  51.499  0.00  0.00    +0.000 C 
ENDBRANCH   1   2
BRANCH   1  17
ATOM     17  C   UNL     1      18.722  36.662  50.838  0.00  0.00    +0.000 C 
BRANCH  17  27
ATOM     18  C   UNL     1      21.058  32.633  54.028  0.00  0.00    +0.000 C 
ATOM     19  C   UNL     1      21.962  33.806  53.652  0.00  0.00    +0.000 C 
ATOM     20  C   UNL     1      22.214  34.729  54.843  0.00  0.00    +0.000 C 
ATOM     21  C   UNL     1      23.311  33.273  53.109  0.00  0.00    +0.000 C 
ATOM     22  O   UNL     1      24.127  32.590  53.707  0.00  0.00    +0.000 OA
ATOM     23  N   UNL     1      23.439  33.714  51.797  0.00  0.00    +0.000 N 
ATOM     24  C   UNL     1      22.346  34.468  51.407  0.00  0.00    +0.000 A 
ATOM     25  C   UNL     1      22.134  35.059  50.181  0.00  0.00    +0.000 A 
ATOM     26  C   UNL     1      20.949  35.778  50.011  0.00  0.00    +0.000 A 
ATOM     27  C   UNL     1      20.007  35.895  51.060  0.00  0.00    +0.000 A 
ATOM     28  C   UNL     1      20.253  35.275  52.295  0.00  0.00    +0.000 A 
ATOM     29  C   UNL     1      21.431  34.564  52.455  0.00  0.00    +0.000 A 
ATOM     30  H   UNL     1      24.239  33.495  51.225  0.00  0.00    +0.000 HD
ENDBRANCH  17  27
ENDBRANCH   1  17
TORSDOF 3
ENDMDL
MODEL 2
REMARK VINA RESULT:    -6.639      1.215      2.278
REMARK INTER + INTRA:          -8.031
REMARK INTER:                  -7.803
REMARK INTRA:                  -0.227
REMARK UNBOUND:                -0.227
REMARK  Name = 
REMARK  5 active torsions:
REMARK  status: ('A' for Active; 'I' for Inactive)
REMARK    1  A    between atoms: C_1  and  C_2
REMARK    2  A    between atoms: C_2  and  C_3
REMARK    3  A    between atoms: C_10  and  C_11
REMARK    4  A    between atoms: C_11  and  C_12
REMARK    5  A    between atoms: C_12  and  N_13
REMARK                            x       y       z     vdW  Elec       q    Type
REMARK                         _______ _______ _______ _____ _____    ______ ____
ROOT
ATOM      1  C   UNL     1      18.467  37.042  52.318  0.00  0.00    +0.000 C 
ENDROOT
BRANCH   1   2
ATOM      2  N   UNL     1      17.336  37.936  52.014  0.00  0.00    +0.000 NA
ATOM      3  C   UNL     1      16.301  37.880  53.078  0.00  0.00    +0.000 C 
ATOM      4  C   UNL     1      16.361  39.046  54.086  0.00  0.00    +0.000 C 
ATOM      5  N   UNL     1      16.170  40.357  53.420  0.00  0.00    +0.000 N 
ATOM      6  C   UNL     1      14.960  40.983  53.616  0.00  0.00    +0.000 A 
ATOM      7  N   UNL     1      13.827  40.329  53.867  0.00  0.00    +0.000 NA
ATOM      8  S   UNL     1      12.582  41.398  53.993  0.00  0.00    +0.000 S 
ATOM      9  C   UNL     1      13.514  42.816  53.754  0.00  0.00    +0.000 A 
ATOM     10  C   UNL     1      13.104  44.162  53.741  0.00  0.00    +0.000 A 
ATOM     11  C   UNL     1      14.072  45.149  53.544  0.00  0.00    +0.000 A 
ATOM     12  C   UNL     1      15.406  44.808  53.372  0.00  0.00    +0.000 A 
ATOM     13  C   UNL     1      15.802  43.466  53.384  0.00  0.00    +0.000 A 
ATOM     14  C   UNL     1      14.844  42.435  53.565  0.00  0.00    +0.000 A 
ATOM     15  C   UNL     1      16.663  40.380  52.018  0.00  0.00    +0.000 C 
ATOM     16  C   UNL     1      17.775  39.333  51.786  0.00  0.00    +0.000 C 
ENDBRANCH   1   2
BRANCH   1  17
ATOM     17  C   UNL     1      19.569  37.066  51.245  0.00  0.00    +0.000 C 
BRANCH  17  27
ATOM     18  C   UNL     1      24.586  35.154  49.504  0.00  0.00    +0.000 C 
ATOM     19  C   UNL     1      23.525  34.094  49.799  0.00  0.00    +0.000 C 
ATOM     20  C   UNL     1      22.977  33.473  48.516  0.00  0.00    +0.000 C 
ATOM     21  C   UNL     1      24.128  32.988  50.700  0.00  0.00    +0.000 C 
ATOM     22  O   UNL     1      25.062  32.250  50.435  0.00  0.00    +0.000 OA
ATOM     23  N   UNL     1      23.408  32.979  51.889  0.00  0.00    +0.000 N 
ATOM     24  C   UNL     1      22.409  33.937  51.886  0.00  0.00    +0.000 A 
ATOM     25  C   UNL     1      21.510  34.210  52.893  0.00  0.00    +0.000 A 
ATOM     26  C   UNL     1      20.583  35.231  52.668  0.00  0.00    +0.000 A 
ATOM     27  C   UNL     1      20.571  35.951  51.451  0.00  0.00    +0.000 A 
ATOM     28  C   UNL     1      21.506  35.650  50.448  0.00  0.00    +0.000 A 
ATOM     29  C   UNL     1      22.421  34.636  50.680  0.00  0.00    +0.000 A 
ATOM     30  H   UNL     1      23.611  32.341  52.643  0.00  0.00    +0.000 HD
ENDBRANCH  17  27
ENDBRANCH   1  17
TORSDOF 3
ENDMDL
MODEL 3
REMARK VINA RESULT:    -6.621      9.728     14.938
REMARK INTER + INTRA:          -8.009
REMARK INTER:                  -7.699
REMARK INTRA:                  -0.310
REMARK UNBOUND:                -0.227
REMARK  Name = 
REMARK  5 active torsions:
REMARK  status: ('A' for Active; 'I' for Inactive)
REMARK    1  A    between atoms: C_1  and  C_2
REMARK    2  A    between atoms: C_2  and  C_3
REMARK    3  A    between atoms: C_10  and  C_11
REMARK    4  A    between atoms: C_11  and  C_12
REMARK    5  A    between atoms: C_12  and  N_13
REMARK                            x       y       z     vdW  Elec       q    Type
REMARK                         _______ _______ _______ _____ _____    ______ ____
ROOT
ATOM      1  C   UNL     1      13.677  45.376  43.859  0.00  0.00    +0.000 C 
ENDROOT
BRANCH   1   2
ATOM      2  N   UNL     1      13.739  43.915  43.673  0.00  0.00    +0.000 NA
ATOM      3  C   UNL     1      14.888  43.527  42.815  0.00  0.00    +0.000 C 
ATOM      4  C   UNL     1      16.122  43.024  43.593  0.00  0.00    +0.000 C 
ATOM      5  N   UNL     1      15.807  41.819  44.399  0.00  0.00    +0.000 N 
ATOM      6  C   UNL     1      16.301  40.619  43.939  0.00  0.00    +0.000 A 
ATOM      7  N   UNL     1      16.541  40.367  42.653  0.00  0.00    +0.000 NA
ATOM      8  S   UNL     1      17.073  38.820  42.477  0.00  0.00    +0.000 S 
ATOM      9  C   UNL     1      17.047  38.412  44.141  0.00  0.00    +0.000 A 
ATOM     10  C   UNL     1      17.400  37.203  44.768  0.00  0.00    +0.000 A 
ATOM     11  C   UNL     1      17.311  37.126  46.160  0.00  0.00    +0.000 A 
ATOM     12  C   UNL     1      16.890  38.221  46.904  0.00  0.00    +0.000 A 
ATOM     13  C   UNL     1      16.539  39.417  46.268  0.00  0.00    +0.000 A 
ATOM     14  C   UNL     1      16.602  39.526  44.855  0.00  0.00    +0.000 A 
ATOM     15  C   UNL     1      14.397  41.776  44.863  0.00  0.00    +0.000 C 
ATOM     16  C   UNL     1      13.785  43.191  44.965  0.00  0.00    +0.000 C 
ENDBRANCH   1   2
BRANCH   1  17
ATOM     17  C   UNL     1      14.056  45.826  45.281  0.00  0.00    +0.000 C 
BRANCH  17  27
ATOM     18  C   UNL     1      14.222  51.187  43.523  0.00  0.00    +0.000 C 
ATOM     19  C   UNL     1      14.194  50.973  45.035  0.00  0.00    +0.000 C 
ATOM     20  C   UNL     1      15.551  51.265  45.672  0.00  0.00    +0.000 C 
ATOM     21  C   UNL     1      13.112  51.881  45.671  0.00  0.00    +0.000 C 
ATOM     22  O   UNL     1      13.071  53.100  45.653  0.00  0.00    +0.000 OA
ATOM     23  N   UNL     1      12.176  51.053  46.280  0.00  0.00    +0.000 N 
ATOM     24  C   UNL     1      12.503  49.717  46.126  0.00  0.00    +0.000 A 
ATOM     25  C   UNL     1      11.804  48.627  46.595  0.00  0.00    +0.000 A 
ATOM     26  C   UNL     1      12.326  47.361  46.317  0.00  0.00    +0.000 A 
ATOM     27  C   UNL     1      13.527  47.211  45.585  0.00  0.00    +0.000 A 
ATOM     28  C   UNL     1      14.211  48.344  45.118  0.00  0.00    +0.000 A 
ATOM     29  C   UNL     1      13.686  49.595  45.398  0.00  0.00    +0.000 A 
ATOM     30  H   UNL     1      11.369  51.411  46.767  0.00  0.00    +0.000 HD
ENDBRANCH  17  27
ENDBRANCH   1  17
TORSDOF 3
ENDMDL
