MODEL 1
REMARK VINA RESULT:    -6.461      0.000      0.000
REMARK INTER + INTRA:          -6.461
REMARK INTER:                  -6.461
REMARK INTRA:                   0.000
REMARK UNBOUND:                 0.000
REMARK  Name = 
REMARK  2 active torsions:
REMARK  status: ('A' for Active; 'I' for Inactive)
REMARK    1  A    between atoms: C_1  and  C_2
REMARK    2  A    between atoms: C_15  and  C_16
REMARK                            x       y       z     vdW  Elec       q    Type
REMARK                         _______ _______ _______ _____ _____    ______ ____
ROOT
ATOM      1  C   UNL     1      22.016  33.860  48.124  0.00  0.00    +0.000 C 
ATOM      2  C   UNL     1      22.189  34.429  49.556  0.00  0.00    +0.000 C 
ATOM      3  C   UNL     1      23.506  35.197  49.516  0.00  0.00    +0.000 C 
ATOM      4  C   UNL     1      24.596  34.878  50.227  0.00  0.00    +0.000 C 
ATOM      5  C   UNL     1      24.590  33.720  51.142  0.00  0.00    +0.000 C 
ATOM      6  O   UNL     1      25.588  33.411  51.781  0.00  0.00    +0.000 OA
ATOM      7  C   UNL     1      23.333  32.952  51.261  0.00  0.00    +0.000 C 
ATOM      8  C   UNL     1      22.239  33.267  50.545  0.00  0.00    +0.000 C 
ATOM      9  C   UNL     1      20.956  32.492  50.714  0.00  0.00    +0.000 C 
ATOM     10  C   UNL     1      19.819  33.433  51.098  0.00  0.00    +0.000 C 
ATOM     11  C   UNL     1      19.647  34.599  50.104  0.00  0.00    +0.000 C 
ATOM     12  C   UNL     1      20.979  35.386  49.902  0.00  0.00    +0.000 C 
ATOM     13  C   UNL     1      21.201  36.338  51.061  0.00  0.00    +0.000 C 
ATOM     14  C   UNL     1      20.221  36.832  51.833  0.00  0.00    +0.000 C 
ATOM     15  C   UNL     1      18.737  36.500  51.716  0.00  0.00    +0.000 C 
ATOM     16  C   UNL     1      18.334  35.846  53.053  0.00  0.00    +0.000 C 
ATOM     17  C   UNL     1      18.469  35.533  50.499  0.00  0.00    +0.000 C 
ATOM     18  C   UNL     1      18.115  36.453  49.338  0.00  0.00    +0.000 C 
ATOM     19  C   UNL     1      16.722  36.970  49.134  0.00  0.00    +0.000 C 
ATOM     20  C   UNL     1      17.749  37.798  49.874  0.00  0.00    +0.000 C 
ATOM     21  C   UNL     1      17.852  37.789  51.384  0.00  0.00    +0.000 C 
ATOM     22  C   UNL     1      16.460  37.896  52.007  0.00  0.00    +0.000 C 
ATOM     23  C   UNL     1      16.665  38.716  53.255  0.00  0.00    +0.000 C 
ATOM     24  C   UNL     1      17.898  39.496  52.928  0.00  0.00    +0.000 C 
ATOM     25  O   UNL     1      18.324  40.439  53.573  0.00  0.00    +0.000 OA
ATOM     26  O   UNL     1      18.501  38.997  51.815  0.00  0.00    +0.000 OA
ENDROOT
TORSDOF 0
ENDMDL
MODEL 2
REMARK VINA RESULT:    -6.251     10.478     13.361
REMARK INTER + INTRA:          -6.251
REMARK INTER:                  -6.251
REMARK INTRA:                   0.000
REMARK UNBOUND:                 0.000
REMARK  Name = 
REMARK  2 active torsions:
REMARK  status: ('A' for Active; 'I' for Inactive)
REMARK    1  A    between atoms: C_1  and  C_2
REMARK    2  A    between atoms: C_15  and  C_16
REMARK                            x       y       z     vdW  Elec       q    Type
REMARK                         _______ _______ _______ _____ _____    ______ ____
ROOT
ATOM      1  C   UNL     1      12.409  41.032  44.977  0.00  0.00    +0.000 C 
ATOM      2  C   UNL     1      13.277  42.010  44.143  0.00  0.00    +0.000 C 
ATOM      3  C   UNL     1      12.961  41.672  42.689  0.00  0.00    +0.000 C 
ATOM      4  C   UNL     1      13.846  41.184  41.810  0.00  0.00    +0.000 C 
ATOM      5  C   UNL     1      15.248  40.939  42.204  0.00  0.00    +0.000 C 
ATOM      6  O   UNL     1      16.059  40.476  41.412  0.00  0.00    +0.000 OA
ATOM      7  C   UNL     1      15.636  41.282  43.589  0.00  0.00    +0.000 C 
ATOM      8  C   UNL     1      14.748  41.768  44.475  0.00  0.00    +0.000 C 
ATOM      9  C   UNL     1      15.177  42.146  45.870  0.00  0.00    +0.000 C 
ATOM     10  C   UNL     1      14.830  43.604  46.151  0.00  0.00    +0.000 C 
ATOM     11  C   UNL     1      13.339  43.919  45.914  0.00  0.00    +0.000 C 
ATOM     12  C   UNL     1      12.881  43.502  44.483  0.00  0.00    +0.000 C 
ATOM     13  C   UNL     1      13.317  44.546  43.473  0.00  0.00    +0.000 C 
ATOM     14  C   UNL     1      13.556  45.832  43.770  0.00  0.00    +0.000 C 
ATOM     15  C   UNL     1      13.479  46.459  45.159  0.00  0.00    +0.000 C 
ATOM     16  C   UNL     1      14.895  46.979  45.477  0.00  0.00    +0.000 C 
ATOM     17  C   UNL     1      13.000  45.403  46.228  0.00  0.00    +0.000 C 
ATOM     18  C   UNL     1      11.491  45.591  46.316  0.00  0.00    +0.000 C 
ATOM     19  C   UNL     1      10.873  46.642  47.190  0.00  0.00    +0.000 C 
ATOM     20  C   UNL     1      11.128  46.912  45.724  0.00  0.00    +0.000 C 
ATOM     21  C   UNL     1      12.379  47.615  45.242  0.00  0.00    +0.000 C 
ATOM     22  C   UNL     1      12.668  48.834  46.117  0.00  0.00    +0.000 C 
ATOM     23  C   UNL     1      13.248  49.853  45.169  0.00  0.00    +0.000 C 
ATOM     24  C   UNL     1      12.681  49.427  43.854  0.00  0.00    +0.000 C 
ATOM     25  O   UNL     1      12.724  50.082  42.826  0.00  0.00    +0.000 OA
ATOM     26  O   UNL     1      12.123  48.190  43.949  0.00  0.00    +0.000 OA
ENDROOT
TORSDOF 0
ENDMDL
MODEL 3
REMARK VINA RESULT:    -6.213      2.632      4.324
REMARK INTER + INTRA:          -6.213
REMARK INTER:                  -6.213
REMARK INTRA:                   0.000
REMARK UNBOUND:                 0.000
REMARK  Name = 
REMARK  2 active torsions:
REMARK  status: ('A' for Active; 'I' for Inactive)
REMARK    1  A    between atoms: C_1  and  C_2
REMARK    2  A    between atoms: C_15  and  C_16
REMARK                            x       y       z     vdW  Elec       q    Type
REMARK                         _______ _______ _______ _____ _____    ______ ____
ROOT
ATOM      1  C   UNL     1      18.034  35.236  49.707  0.00  0.00    +0.000 C 
ATOM      2  C   UNL     1      18.434  36.097  50.934  0.00  0.00    +0.000 C 
ATOM      3  C   UNL     1      19.903  36.442  50.707  0.00  0.00    +0.000 C 
ATOM      4  C   UNL     1      20.909  36.042  51.496  0.00  0.00    +0.000 C 
ATOM      5  C   UNL     1      20.652  35.214  52.691  0.00  0.00    +0.000 C 
ATOM      6  O   UNL     1      21.568  34.830  53.407  0.00  0.00    +0.000 OA
ATOM      7  C   UNL     1      19.246  34.874  52.994  0.00  0.00    +0.000 C 
ATOM      8  C   UNL     1      18.233  35.270  52.202  0.00  0.00    +0.000 C 
ATOM      9  C   UNL     1      16.804  34.944  52.553  0.00  0.00    +0.000 C 
ATOM     10  C   UNL     1      15.980  36.223  52.649  0.00  0.00    +0.000 C 
ATOM     11  C   UNL     1      16.064  37.084  51.373  0.00  0.00    +0.000 C 
ATOM     12  C   UNL     1      17.541  37.400  50.986  0.00  0.00    +0.000 C 
ATOM     13  C   UNL     1      18.074  38.530  51.847  0.00  0.00    +0.000 C 
ATOM     14  C   UNL     1      17.305  39.456  52.440  0.00  0.00    +0.000 C 
ATOM     15  C   UNL     1      15.782  39.517  52.393  0.00  0.00    +0.000 C 
ATOM     16  C   UNL     1      15.299  39.376  53.851  0.00  0.00    +0.000 C 
ATOM     17  C   UNL     1      15.199  38.371  51.480  0.00  0.00    +0.000 C 
ATOM     18  C   UNL     1      15.033  39.010  50.108  0.00  0.00    +0.000 C 
ATOM     19  C   UNL     1      13.815  39.810  49.748  0.00  0.00    +0.000 C 
ATOM     20  C   UNL     1      15.066  40.495  50.252  0.00  0.00    +0.000 C 
ATOM     21  C   UNL     1      15.250  40.861  51.709  0.00  0.00    +0.000 C 
ATOM     22  C   UNL     1      13.975  41.500  52.257  0.00  0.00    +0.000 C 
ATOM     23  C   UNL     1      14.461  42.537  53.239  0.00  0.00    +0.000 C 
ATOM     24  C   UNL     1      15.834  42.839  52.732  0.00  0.00    +0.000 C 
ATOM     25  O   UNL     1      16.530  43.769  53.104  0.00  0.00    +0.000 OA
ATOM     26  O   UNL     1      16.218  41.919  51.807  0.00  0.00    +0.000 OA
ENDROOT
TORSDOF 0
ENDMDL
