MODEL 1
REMARK VINA RESULT:    -6.444      0.000      0.000
REMARK INTER + INTRA:          -6.632
REMARK INTER:                  -6.632
REMARK INTRA:                   0.000
REMARK UNBOUND:                 0.000
REMARK  Name = 
REMARK  5 active torsions:
REMARK  status: ('A' for Active; 'I' for Inactive)
REMARK    1  A    between atoms: C_1  and  C_2
REMARK    2  A    between atoms: C_17  and  O_18
REMARK    3  A    between atoms: C_21  and  C_22
REMARK    4  A    between atoms: C_26  and  C_27
REMARK    5  A    between atoms: C_29  and  C_30
REMARK                            x       y       z     vdW  Elec       q    Type
REMARK                         _______ _______ _______ _____ _____    ______ ____
ROOT
ATOM      1  C   UNL     1      13.431  44.555  39.639  0.00  0.00    +0.000 C 
ATOM      2  C   UNL     1      14.488  43.636  40.244  0.00  0.00    +0.000 C 
ATOM      3  C   UNL     1      14.069  42.158  40.190  0.00  0.00    +0.000 C 
ATOM      4  C   UNL     1      13.614  41.656  41.553  0.00  0.00    +0.000 C 
ATOM      5  C   UNL     1      14.661  41.918  42.652  0.00  0.00    +0.000 C 
ATOM      6  O   UNL     1      15.516  43.024  42.339  0.00  0.00    +0.000 OA
ATOM      7  C   UNL     1      14.824  44.074  41.673  0.00  0.00    +0.000 C 
ATOM      8  O   UNL     1      13.963  42.176  43.890  0.00  0.00    +0.000 OA
ATOM      9  C   UNL     1      14.940  42.029  44.917  0.00  0.00    +0.000 C 
ATOM     10  C   UNL     1      14.358  41.588  46.261  0.00  0.00    +0.000 C 
ATOM     11  C   UNL     1      15.438  40.634  46.761  0.00  0.00    +0.000 C 
ATOM     12  C   UNL     1      15.173  39.777  48.002  0.00  0.00    +0.000 C 
ATOM     13  C   UNL     1      14.797  40.639  49.216  0.00  0.00    +0.000 C 
ATOM     14  C   UNL     1      14.656  39.815  50.494  0.00  0.00    +0.000 C 
ATOM     15  C   UNL     1      15.921  38.993  50.764  0.00  0.00    +0.000 C 
ATOM     16  C   UNL     1      15.840  38.272  52.116  0.00  0.00    +0.000 C 
ATOM     17  C   UNL     1      17.142  37.530  52.424  0.00  0.00    +0.000 C 
ATOM     18  C   UNL     1      17.568  36.599  51.294  0.00  0.00    +0.000 C 
ATOM     19  C   UNL     1      17.603  37.309  49.938  0.00  0.00    +0.000 C 
ATOM     20  C   UNL     1      16.271  38.031  49.582  0.00  0.00    +0.000 C 
ATOM     21  C   UNL     1      15.176  36.954  49.365  0.00  0.00    +0.000 C 
ATOM     22  C   UNL     1      16.446  38.917  48.294  0.00  0.00    +0.000 C 
ATOM     23  C   UNL     1      16.932  38.140  47.041  0.00  0.00    +0.000 C 
ATOM     24  C   UNL     1      17.059  39.020  45.784  0.00  0.00    +0.000 C 
ATOM     25  C   UNL     1      15.765  39.797  45.500  0.00  0.00    +0.000 C 
ATOM     26  C   UNL     1      14.643  38.795  45.125  0.00  0.00    +0.000 C 
ATOM     27  C   UNL     1      15.924  40.936  44.449  0.00  0.00    +0.000 C 
ATOM     28  C   UNL     1      15.526  40.684  42.990  0.00  0.00    +0.000 C 
ATOM     29  C   UNL     1      16.739  40.459  42.094  0.00  0.00    +0.000 C 
ENDROOT
BRANCH  17  30
ATOM     30  O   UNL     1      16.991  36.782  53.626  0.00  0.00    +0.000 OA
ATOM     31  H   UNL     1      16.124  36.342  53.600  0.00  0.00    +0.000 HD
ENDBRANCH  17  30
TORSDOF 1
ENDMDL
MODEL 2
REMARK VINA RESULT:    -6.440      5.624      8.366
REMARK INTER + INTRA:          -6.628
REMARK INTER:                  -6.628
REMARK INTRA:                   0.000
REMARK UNBOUND:                 0.000
REMARK  Name = 
REMARK  5 active torsions:
REMARK  status: ('A' for Active; 'I' for Inactive)
REMARK    1  A    between atoms: C_1  and  C_2
REMARK    2  A    between atoms: C_17  and  O_18
REMARK    3  A    between atoms: C_21  and  C_22
REMARK    4  A    between atoms: C_26  and  C_27
REMARK    5  A    between atoms: C_29  and  C_30
REMARK                            x       y       z     vdW  Elec       q    Type
REMARK                         _______ _______ _______ _____ _____    ______ ____
ROOT
ATOM      1  C   UNL     1      12.926  42.987  54.416  0.00  0.00    +0.000 C 
ATOM      2  C   UNL     1      13.367  42.423  53.069  0.00  0.00    +0.000 C 
ATOM      3  C   UNL     1      12.736  41.051  52.782  0.00  0.00    +0.000 C 
ATOM      4  C   UNL     1      13.738  39.922  52.985  0.00  0.00    +0.000 C 
ATOM      5  C   UNL     1      15.034  40.139  52.182  0.00  0.00    +0.000 C 
ATOM      6  O   UNL     1      15.281  41.524  51.907  0.00  0.00    +0.000 OA
ATOM      7  C   UNL     1      14.896  42.368  52.985  0.00  0.00    +0.000 C 
ATOM      8  O   UNL     1      16.134  39.589  52.940  0.00  0.00    +0.000 OA
ATOM      9  C   UNL     1      17.212  39.468  52.016  0.00  0.00    +0.000 C 
ATOM     10  C   UNL     1      18.193  38.345  52.359  0.00  0.00    +0.000 C 
ATOM     11  C   UNL     1      18.530  37.802  50.974  0.00  0.00    +0.000 C 
ATOM     12  C   UNL     1      19.332  36.504  50.847  0.00  0.00    +0.000 C 
ATOM     13  C   UNL     1      20.675  36.594  51.586  0.00  0.00    +0.000 C 
ATOM     14  C   UNL     1      21.547  35.361  51.364  0.00  0.00    +0.000 C 
ATOM     15  C   UNL     1      21.750  35.091  49.868  0.00  0.00    +0.000 C 
ATOM     16  C   UNL     1      22.736  33.938  49.639  0.00  0.00    +0.000 C 
ATOM     17  C   UNL     1      23.009  33.734  48.148  0.00  0.00    +0.000 C 
ATOM     18  C   UNL     1      21.729  33.575  47.334  0.00  0.00    +0.000 C 
ATOM     19  C   UNL     1      20.728  34.701  47.599  0.00  0.00    +0.000 C 
ATOM     20  C   UNL     1      20.399  34.895  49.108  0.00  0.00    +0.000 C 
ATOM     21  C   UNL     1      19.629  33.642  49.603  0.00  0.00    +0.000 C 
ATOM     22  C   UNL     1      19.544  36.197  49.328  0.00  0.00    +0.000 C 
ATOM     23  C   UNL     1      18.215  36.238  48.528  0.00  0.00    +0.000 C 
ATOM     24  C   UNL     1      17.380  37.504  48.788  0.00  0.00    +0.000 C 
ATOM     25  C   UNL     1      17.142  37.731  50.289  0.00  0.00    +0.000 C 
ATOM     26  C   UNL     1      16.248  36.590  50.839  0.00  0.00    +0.000 C 
ATOM     27  C   UNL     1      16.591  39.145  50.640  0.00  0.00    +0.000 C 
ATOM     28  C   UNL     1      15.086  39.339  50.862  0.00  0.00    +0.000 C 
ATOM     29  C   UNL     1      14.409  39.993  49.663  0.00  0.00    +0.000 C 
ENDROOT
BRANCH  17  30
ATOM     30  O   UNL     1      23.835  32.588  47.966  0.00  0.00    +0.000 OA
ATOM     31  H   UNL     1      23.496  31.879  48.540  0.00  0.00    +0.000 HD
ENDBRANCH  17  30
TORSDOF 1
ENDMDL
MODEL 3
REMARK VINA RESULT:    -6.366      3.556      5.331
REMARK INTER + INTRA:          -6.552
REMARK INTER:                  -6.552
REMARK INTRA:                   0.000
REMARK UNBOUND:                 0.000
REMARK  Name = 
REMARK  5 active torsions:
REMARK  status: ('A' for Active; 'I' for Inactive)
REMARK    1  A    between atoms: C_1  and  C_2
REMARK    2  A    between atoms: C_17  and  O_18
REMARK    3  A    between atoms: C_21  and  C_22
REMARK    4  A    between atoms: C_26  and  C_27
REMARK    5  A    between atoms: C_29  and  C_30
REMARK                            x       y       z     vdW  Elec       q    Type
REMARK                         _______ _______ _______ _____ _____    ______ ____
ROOT
ATOM      1  C   UNL     1      11.537  48.163  46.274  0.00  0.00    +0.000 C 
ATOM      2  C   UNL     1      12.364  47.409  45.236  0.00  0.00    +0.000 C 
ATOM      3  C   UNL     1      11.528  46.363  44.480  0.00  0.00    +0.000 C 
ATOM      4  C   UNL     1      11.826  44.951  44.968  0.00  0.00    +0.000 C 
ATOM      5  C   UNL     1      13.331  44.625  44.929  0.00  0.00    +0.000 C 
ATOM      6  O   UNL     1      14.148  45.799  45.016  0.00  0.00    +0.000 OA
ATOM      7  C   UNL     1      13.598  46.778  45.889  0.00  0.00    +0.000 C 
ATOM      8  O   UNL     1      13.632  43.739  46.030  0.00  0.00    +0.000 OA
ATOM      9  C   UNL     1      14.905  43.176  45.730  0.00  0.00    +0.000 C 
ATOM     10  C   UNL     1      15.120  41.785  46.330  0.00  0.00    +0.000 C 
ATOM     11  C   UNL     1      15.889  41.088  45.213  0.00  0.00    +0.000 C 
ATOM     12  C   UNL     1      16.136  39.578  45.294  0.00  0.00    +0.000 C 
ATOM     13  C   UNL     1      16.862  39.192  46.591  0.00  0.00    +0.000 C 
ATOM     14  C   UNL     1      17.234  37.712  46.633  0.00  0.00    +0.000 C 
ATOM     15  C   UNL     1      18.048  37.312  45.397  0.00  0.00    +0.000 C 
ATOM     16  C   UNL     1      18.542  35.863  45.500  0.00  0.00    +0.000 C 
ATOM     17  C   UNL     1      19.433  35.499  44.311  0.00  0.00    +0.000 C 
ATOM     18  C   UNL     1      18.770  35.793  42.970  0.00  0.00    +0.000 C 
ATOM     19  C   UNL     1      18.237  37.225  42.887  0.00  0.00    +0.000 C 
ATOM     20  C   UNL     1      17.289  37.602  44.062  0.00  0.00    +0.000 C 
ATOM     21  C   UNL     1      15.995  36.758  43.934  0.00  0.00    +0.000 C 
ATOM     22  C   UNL     1      16.957  39.140  44.037  0.00  0.00    +0.000 C 
ATOM     23  C   UNL     1      16.318  39.638  42.713  0.00  0.00    +0.000 C 
ATOM     24  C   UNL     1      15.967  41.137  42.726  0.00  0.00    +0.000 C 
ATOM     25  C   UNL     1      15.108  41.510  43.944  0.00  0.00    +0.000 C 
ATOM     26  C   UNL     1      13.726  40.819  43.820  0.00  0.00    +0.000 C 
ATOM     27  C   UNL     1      14.989  43.043  44.193  0.00  0.00    +0.000 C 
ATOM     28  C   UNL     1      13.754  43.800  43.693  0.00  0.00    +0.000 C 
ATOM     29  C   UNL     1      14.044  44.602  42.429  0.00  0.00    +0.000 C 
ENDROOT
BRANCH  17  30
ATOM     30  O   UNL     1      19.779  34.119  44.379  0.00  0.00    +0.000 OA
ATOM     31  H   UNL     1      19.057  33.651  44.835  0.00  0.00    +0.000 HD
ENDBRANCH  17  30
TORSDOF 1
ENDMDL
