MODEL 1
REMARK VINA RESULT:    -5.956      0.000      0.000
REMARK INTER + INTRA:          -8.479
REMARK INTER:                  -6.820
REMARK INTRA:                  -1.659
REMARK UNBOUND:                -1.131
REMARK  Name = 
REMARK  6 active torsions:
REMARK  status: ('A' for Active; 'I' for Inactive)
REMARK    1  A    between atoms: C_1  and  C_2
REMARK    2  A    between atoms: C_5  and  N_6
REMARK    3  A    between atoms: N_9  and  C_10
REMARK    4  A    between atoms: C_10  and  C_11
REMARK    5  A    between atoms: C_11  and  C_12
REMARK    6  A    between atoms: C_25  and  C_26
REMARK                            x       y       z     vdW  Elec       q    Type
REMARK                         _______ _______ _______ _____ _____    ______ ____
ROOT
ATOM      1  N   UNL     1      15.151  43.332  44.746  0.00  0.00    +0.000 N 
ATOM      2  C   UNL     1      14.648  41.940  44.775  0.00  0.00    +0.000 C 
ATOM      3  C   UNL     1      15.774  40.937  44.421  0.00  0.00    +0.000 C 
ATOM      4  N   UNL     1      16.515  41.210  43.164  0.00  0.00    +0.000 NA
ATOM      5  C   UNL     1      16.983  42.618  43.220  0.00  0.00    +0.000 C 
ATOM      6  C   UNL     1      15.882  43.667  43.509  0.00  0.00    +0.000 C 
ENDROOT
BRANCH   1  11
ATOM      7  C   UNL     1      11.388  47.081  46.976  0.00  0.00    +0.000 C 
ATOM      8  C   UNL     1      12.385  46.134  46.373  0.00  0.00    +0.000 A 
ATOM      9  C   UNL     1      12.302  44.769  46.662  0.00  0.00    +0.000 A 
ATOM     10  C   UNL     1      13.220  43.864  46.118  0.00  0.00    +0.000 A 
ATOM     11  C   UNL     1      14.249  44.279  45.261  0.00  0.00    +0.000 A 
ATOM     12  C   UNL     1      14.332  45.654  44.996  0.00  0.00    +0.000 A 
ATOM     13  C   UNL     1      13.419  46.585  45.534  0.00  0.00    +0.000 A 
ATOM     14  C   UNL     1      13.570  48.044  45.195  0.00  0.00    +0.000 C 
ENDBRANCH   1  11
BRANCH   4  15
ATOM     15  C   UNL     1      15.716  40.962  41.955  0.00  0.00    +0.000 C 
BRANCH  15  16
ATOM     16  C   UNL     1      14.203  40.914  42.214  0.00  0.00    +0.000 C 
BRANCH  16  17
ATOM     17  C   UNL     1      13.385  41.764  41.240  0.00  0.00    +0.000 C 
ATOM     18  N   UNL     1      14.225  42.586  40.385  0.00  0.00    +0.000 N 
ATOM     19  C   UNL     1      13.908  43.925  40.435  0.00  0.00    +0.000 C 
ATOM     20  O   UNL     1      14.377  44.813  39.753  0.00  0.00    +0.000 OA
ATOM     21  C   UNL     1      12.868  44.073  41.455  0.00  0.00    +0.000 A 
ATOM     22  C   UNL     1      12.247  45.225  41.901  0.00  0.00    +0.000 A 
ATOM     23  C   UNL     1      11.265  45.082  42.883  0.00  0.00    +0.000 A 
ATOM     24  C   UNL     1      10.930  43.809  43.380  0.00  0.00    +0.000 A 
ATOM     25  C   UNL     1      11.570  42.657  42.906  0.00  0.00    +0.000 A 
ATOM     26  C   UNL     1      12.551  42.803  41.939  0.00  0.00    +0.000 A 
ATOM     27  H   UNL     1      14.773  42.226  39.614  0.00  0.00    +0.000 HD
ENDBRANCH  16  17
ENDBRANCH  15  16
ENDBRANCH   4  15
TORSDOF 4
ENDMDL
MODEL 2
REMARK VINA RESULT:    -5.941      5.117      7.706
REMARK INTER + INTRA:          -8.461
REMARK INTER:                  -7.839
REMARK INTRA:                  -0.622
REMARK UNBOUND:                -1.131
REMARK  Name = 
REMARK  6 active torsions:
REMARK  status: ('A' for Active; 'I' for Inactive)
REMARK    1  A    between atoms: C_1  and  C_2
REMARK    2  A    between atoms: C_5  and  N_6
REMARK    3  A    between atoms: N_9  and  C_10
REMARK    4  A    between atoms: C_10  and  C_11
REMARK    5  A    between atoms: C_11  and  C_12
REMARK    6  A    between atoms: C_25  and  C_26
REMARK                            x       y       z     vdW  Elec       q    Type
REMARK                         _______ _______ _______ _____ _____    ______ ____
ROOT
ATOM      1  N   UNL     1      13.855  42.447  45.702  0.00  0.00    +0.000 N 
ATOM      2  C   UNL     1      15.219  42.358  45.134  0.00  0.00    +0.000 C 
ATOM      3  C   UNL     1      15.548  40.906  44.705  0.00  0.00    +0.000 C 
ATOM      4  N   UNL     1      15.330  39.861  45.736  0.00  0.00    +0.000 NA
ATOM      5  C   UNL     1      13.945  40.020  46.248  0.00  0.00    +0.000 C 
ATOM      6  C   UNL     1      13.587  41.441  46.748  0.00  0.00    +0.000 C 
ENDROOT
BRANCH   1  11
ATOM      7  C   UNL     1      11.885  47.768  46.701  0.00  0.00    +0.000 C 
ATOM      8  C   UNL     1      12.430  46.397  46.419  0.00  0.00    +0.000 A 
ATOM      9  C   UNL     1      11.704  45.271  46.820  0.00  0.00    +0.000 A 
ATOM     10  C   UNL     1      12.189  43.982  46.575  0.00  0.00    +0.000 A 
ATOM     11  C   UNL     1      13.407  43.762  45.917  0.00  0.00    +0.000 A 
ATOM     12  C   UNL     1      14.133  44.901  45.538  0.00  0.00    +0.000 A 
ATOM     13  C   UNL     1      13.665  46.210  45.776  0.00  0.00    +0.000 A 
ATOM     14  C   UNL     1      14.500  47.381  45.331  0.00  0.00    +0.000 C 
ENDBRANCH   1  11
BRANCH   4  15
ATOM     15  C   UNL     1      16.310  39.913  46.830  0.00  0.00    +0.000 C 
BRANCH  15  16
ATOM     16  C   UNL     1      16.811  38.532  47.277  0.00  0.00    +0.000 C 
BRANCH  16  17
ATOM     17  C   UNL     1      16.356  38.138  48.684  0.00  0.00    +0.000 C 
ATOM     18  N   UNL     1      15.955  39.289  49.476  0.00  0.00    +0.000 N 
ATOM     19  C   UNL     1      16.622  39.382  50.676  0.00  0.00    +0.000 C 
ATOM     20  O   UNL     1      16.415  40.179  51.569  0.00  0.00    +0.000 OA
ATOM     21  C   UNL     1      17.620  38.310  50.688  0.00  0.00    +0.000 A 
ATOM     22  C   UNL     1      18.560  38.008  51.656  0.00  0.00    +0.000 A 
ATOM     23  C   UNL     1      19.388  36.909  51.421  0.00  0.00    +0.000 A 
ATOM     24  C   UNL     1      19.251  36.148  50.246  0.00  0.00    +0.000 A 
ATOM     25  C   UNL     1      18.286  36.472  49.284  0.00  0.00    +0.000 A 
ATOM     26  C   UNL     1      17.473  37.568  49.515  0.00  0.00    +0.000 A 
ATOM     27  H   UNL     1      15.093  39.800  49.337  0.00  0.00    +0.000 HD
ENDBRANCH  16  17
ENDBRANCH  15  16
ENDBRANCH   4  15
TORSDOF 4
ENDMDL
MODEL 3
REMARK VINA RESULT:    -5.816      2.037      3.141
REMARK INTER + INTRA:          -8.307
REMARK INTER:                  -7.176
REMARK INTRA:                  -1.131
REMARK UNBOUND:                -1.131
REMARK  Name = 
REMARK  6 active torsions:
REMARK  status: ('A' for Active; 'I' for Inactive)
REMARK    1  A    between atoms: C_1  and  C_2
REMARK    2  A    between atoms: C_5  and  N_6
REMARK    3  A    between atoms: N_9  and  C_10
REMARK    4  A    between atoms: C_10  and  C_11
REMARK    5  A    between atoms: C_11  and  C_12
REMARK    6  A    between atoms: C_25  and  C_26
REMARK                            x       y       z     vdW  Elec       q    Type
REMARK                         _______ _______ _______ _____ _____    ______ ____
ROOT
ATOM      1  N   UNL     1      13.513  42.210  46.226  0.00  0.00    +0.000 N 
ATOM      2  C   UNL     1      13.470  41.618  44.869  0.00  0.00    +0.000 C 
ATOM      3  C   UNL     1      13.656  40.082  44.929  0.00  0.00    +0.000 C 
ATOM      4  N   UNL     1      14.840  39.601  45.683  0.00  0.00    +0.000 NA
ATOM      5  C   UNL     1      14.804  40.237  47.024  0.00  0.00    +0.000 C 
ATOM      6  C   UNL     1      14.682  41.781  47.017  0.00  0.00    +0.000 C 
ENDROOT
BRANCH   1  11
ATOM      7  C   UNL     1      11.851  47.717  46.543  0.00  0.00    +0.000 C 
ATOM      8  C   UNL     1      12.317  46.293  46.438  0.00  0.00    +0.000 A 
ATOM      9  C   UNL     1      11.518  45.267  46.953  0.00  0.00    +0.000 A 
ATOM     10  C   UNL     1      11.929  43.932  46.873  0.00  0.00    +0.000 A 
ATOM     11  C   UNL     1      13.141  43.565  46.273  0.00  0.00    +0.000 A 
ATOM     12  C   UNL     1      13.941  44.606  45.779  0.00  0.00    +0.000 A 
ATOM     13  C   UNL     1      13.548  45.960  45.849  0.00  0.00    +0.000 A 
ATOM     14  C   UNL     1      14.459  47.019  45.288  0.00  0.00    +0.000 C 
ENDBRANCH   1  11
BRANCH   4  15
ATOM     15  C   UNL     1      16.113  39.873  44.999  0.00  0.00    +0.000 C 
BRANCH  15  16
ATOM     16  C   UNL     1      16.116  39.470  43.517  0.00  0.00    +0.000 C 
BRANCH  16  17
ATOM     17  C   UNL     1      16.558  40.592  42.575  0.00  0.00    +0.000 C 
ATOM     18  N   UNL     1      16.758  41.851  43.273  0.00  0.00    +0.000 N 
ATOM     19  C   UNL     1      16.031  42.891  42.739  0.00  0.00    +0.000 C 
ATOM     20  O   UNL     1      16.085  44.062  43.058  0.00  0.00    +0.000 OA
ATOM     21  C   UNL     1      15.193  42.320  41.682  0.00  0.00    +0.000 A 
ATOM     22  C   UNL     1      14.261  42.948  40.876  0.00  0.00    +0.000 A 
ATOM     23  C   UNL     1      13.606  42.164  39.926  0.00  0.00    +0.000 A 
ATOM     24  C   UNL     1      13.901  40.793  39.803  0.00  0.00    +0.000 A 
ATOM     25  C   UNL     1      14.854  40.182  40.628  0.00  0.00    +0.000 A 
ATOM     26  C   UNL     1      15.495  40.961  41.577  0.00  0.00    +0.000 A 
ATOM     27  H   UNL     1      17.546  42.045  43.877  0.00  0.00    +0.000 HD
ENDBRANCH  16  17
ENDBRANCH  15  16
ENDBRANCH   4  15
TORSDOF 4
ENDMDL
