MODEL 1
REMARK VINA RESULT:    -7.555      0.000      0.000
REMARK INTER + INTRA:         -11.757
REMARK INTER:                 -10.245
REMARK INTRA:                  -1.512
REMARK UNBOUND:                -1.552
REMARK  Name = 
REMARK  6 active torsions:
REMARK  status: ('A' for Active; 'I' for Inactive)
REMARK    1  A    between atoms: C_2  and  C_3
REMARK    2  A    between atoms: C_13  and  C_14
REMARK    3  A    between atoms: C_13  and  C_31
REMARK    4  A    between atoms: C_14  and  C_15
REMARK    5  A    between atoms: C_15  and  C_16
REMARK    6  A    between atoms: C_16  and  N_17
REMARK                            x       y       z     vdW  Elec       q    Type
REMARK                         _______ _______ _______ _____ _____    ______ ____
ROOT
ATOM      1  O   UNL     1      19.486  32.955  53.933  0.00  0.00    +0.000 OA
ATOM      2  C   UNL     1      20.299  33.755  53.476  0.00  0.00    +0.000 C 
ATOM      3  N   UNL     1      19.979  34.691  52.486  0.00  0.00    +0.000 N 
ATOM      4  C   UNL     1      20.777  35.879  52.200  0.00  0.00    +0.000 C 
ATOM      5  C   UNL     1      20.762  36.248  50.721  0.00  0.00    +0.000 C 
ATOM      6  C   UNL     1      19.487  35.828  49.985  0.00  0.00    +0.000 C 
ATOM      7  C   UNL     1      18.234  35.727  50.909  0.00  0.00    +0.000 C 
ATOM      8  C   UNL     1      18.598  34.653  51.985  0.00  0.00    +0.000 C 
ENDROOT
BRANCH   7   9
ATOM      9  C   UNL     1      17.868  37.127  51.450  0.00  0.00    +0.000 A 
ATOM     10  C   UNL     1      17.691  38.244  50.615  0.00  0.00    +0.000 A 
ATOM     11  C   UNL     1      17.381  39.505  51.140  0.00  0.00    +0.000 A 
ATOM     12  C   UNL     1      17.243  39.684  52.516  0.00  0.00    +0.000 A 
ATOM     13 CL   UNL     1      16.869  41.267  53.091  0.00  0.00    +0.000 Cl
ATOM     14  C   UNL     1      17.414  38.593  53.369  0.00  0.00    +0.000 A 
ATOM     15 CL   UNL     1      17.271  38.727  55.087  0.00  0.00    +0.000 Cl
ATOM     16  C   UNL     1      17.721  37.333  52.839  0.00  0.00    +0.000 A 
ENDBRANCH   7   9
BRANCH   2  17
ATOM     17  C   UNL     1      21.678  33.706  54.003  0.00  0.00    +0.000 A 
ATOM     18  C   UNL     1      21.953  34.130  55.308  0.00  0.00    +0.000 A 
ATOM     19  C   UNL     1      23.265  34.097  55.780  0.00  0.00    +0.000 A 
ATOM     20  C   UNL     1      24.295  33.654  54.947  0.00  0.00    +0.000 A 
ATOM     21  C   UNL     1      24.020  33.257  53.636  0.00  0.00    +0.000 A 
ATOM     22  C   UNL     1      22.710  33.291  53.157  0.00  0.00    +0.000 A 
ENDBRANCH   2  17
BRANCH   7  23
ATOM     23  C   UNL     1      17.055  35.173  50.033  0.00  0.00    +0.000 C 
BRANCH  23  24
ATOM     24  C   UNL     1      17.137  35.380  48.508  0.00  0.00    +0.000 C 
BRANCH  24  25
ATOM     25  C   UNL     1      15.782  35.645  47.833  0.00  0.00    +0.000 C 
BRANCH  25  26
ATOM     26  N   UNL     1      15.678  37.014  47.306  0.00  0.00    +0.000 NA
ATOM     27  C   UNL     1      16.971  37.613  46.973  0.00  0.00    +0.000 C 
ATOM     28  C   UNL     1      16.813  39.121  46.716  0.00  0.00    +0.000 C 
ATOM     29  C   UNL     1      15.500  39.476  45.975  0.00  0.00    +0.000 C 
ATOM     30  C   UNL     1      14.420  40.024  46.958  0.00  0.00    +0.000 C 
ATOM     31  C   UNL     1      14.661  41.533  47.090  0.00  0.00    +0.000 C 
ATOM     32  C   UNL     1      15.212  41.851  45.737  0.00  0.00    +0.000 A 
ATOM     33  C   UNL     1      15.312  43.097  45.140  0.00  0.00    +0.000 A 
ATOM     34  C   UNL     1      15.890  43.181  43.872  0.00  0.00    +0.000 A 
ATOM     35  C   UNL     1      16.367  42.031  43.228  0.00  0.00    +0.000 A 
ATOM     36  C   UNL     1      16.274  40.780  43.844  0.00  0.00    +0.000 A 
ATOM     37  C   UNL     1      15.691  40.697  45.101  0.00  0.00    +0.000 A 
ATOM     38  C   UNL     1      14.984  38.247  45.216  0.00  0.00    +0.000 C 
ATOM     39  C   UNL     1      14.761  37.050  46.151  0.00  0.00    +0.000 C 
ENDBRANCH  25  26
ENDBRANCH  24  25
ENDBRANCH  23  24
ENDBRANCH   7  23
TORSDOF 6
ENDMDL
MODEL 2
REMARK VINA RESULT:    -7.105      5.249     11.971
REMARK INTER + INTRA:         -11.149
REMARK INTER:                  -9.942
REMARK INTRA:                  -1.207
REMARK UNBOUND:                -1.552
REMARK  Name = 
REMARK  6 active torsions:
REMARK  status: ('A' for Active; 'I' for Inactive)
REMARK    1  A    between atoms: C_2  and  C_3
REMARK    2  A    between atoms: C_13  and  C_14
REMARK    3  A    between atoms: C_13  and  C_31
REMARK    4  A    between atoms: C_14  and  C_15
REMARK    5  A    between atoms: C_15  and  C_16
REMARK    6  A    between atoms: C_16  and  N_17
REMARK                            x       y       z     vdW  Elec       q    Type
REMARK                         _______ _______ _______ _____ _____    ______ ____
ROOT
ATOM      1  O   UNL     1      16.208  42.383  42.347  0.00  0.00    +0.000 OA
ATOM      2  C   UNL     1      14.995  42.409  42.151  0.00  0.00    +0.000 C 
ATOM      3  N   UNL     1      14.055  42.467  43.185  0.00  0.00    +0.000 N 
ATOM      4  C   UNL     1      12.666  42.879  43.002  0.00  0.00    +0.000 C 
ATOM      5  C   UNL     1      11.711  42.135  43.928  0.00  0.00    +0.000 C 
ATOM      6  C   UNL     1      12.344  41.686  45.248  0.00  0.00    +0.000 C 
ATOM      7  C   UNL     1      13.544  42.573  45.701  0.00  0.00    +0.000 C 
ATOM      8  C   UNL     1      14.597  42.467  44.551  0.00  0.00    +0.000 C 
ENDROOT
BRANCH   7   9
ATOM      9  C   UNL     1      13.046  43.998  46.032  0.00  0.00    +0.000 A 
ATOM     10  C   UNL     1      11.839  44.246  46.709  0.00  0.00    +0.000 A 
ATOM     11  C   UNL     1      11.407  45.551  46.974  0.00  0.00    +0.000 A 
ATOM     12  C   UNL     1      12.168  46.646  46.564  0.00  0.00    +0.000 A 
ATOM     13 CL   UNL     1      11.567  48.224  46.917  0.00  0.00    +0.000 Cl
ATOM     14  C   UNL     1      13.370  46.429  45.890  0.00  0.00    +0.000 A 
ATOM     15 CL   UNL     1      14.370  47.727  45.338  0.00  0.00    +0.000 Cl
ATOM     16  C   UNL     1      13.800  45.121  45.630  0.00  0.00    +0.000 A 
ENDBRANCH   7   9
BRANCH   2  17
ATOM     17  C   UNL     1      14.526  42.367  40.751  0.00  0.00    +0.000 A 
ATOM     18  C   UNL     1      14.488  43.535  39.982  0.00  0.00    +0.000 A 
ATOM     19  C   UNL     1      14.022  43.479  38.668  0.00  0.00    +0.000 A 
ATOM     20  C   UNL     1      13.584  42.265  38.135  0.00  0.00    +0.000 A 
ATOM     21  C   UNL     1      13.598  41.106  38.916  0.00  0.00    +0.000 A 
ATOM     22  C   UNL     1      14.061  41.157  40.230  0.00  0.00    +0.000 A 
ENDBRANCH   2  17
BRANCH   7  23
ATOM     23  C   UNL     1      14.148  41.911  46.991  0.00  0.00    +0.000 C 
BRANCH  23  24
ATOM     24  C   UNL     1      15.292  40.896  46.808  0.00  0.00    +0.000 C 
BRANCH  24  25
ATOM     25  C   UNL     1      15.048  39.540  47.486  0.00  0.00    +0.000 C 
BRANCH  25  26
ATOM     26  N   UNL     1      15.503  39.523  48.885  0.00  0.00    +0.000 NA
ATOM     27  C   UNL     1      14.517  38.971  49.814  0.00  0.00    +0.000 C 
ATOM     28  C   UNL     1      14.932  39.254  51.267  0.00  0.00    +0.000 C 
ATOM     29  C   UNL     1      16.460  39.149  51.493  0.00  0.00    +0.000 C 
ATOM     30  C   UNL     1      17.129  40.558  51.539  0.00  0.00    +0.000 C 
ATOM     31  C   UNL     1      17.028  41.053  52.988  0.00  0.00    +0.000 C 
ATOM     32  C   UNL     1      17.084  39.758  53.734  0.00  0.00    +0.000 A 
ATOM     33  C   UNL     1      17.365  39.573  55.078  0.00  0.00    +0.000 A 
ATOM     34  C   UNL     1      17.338  38.274  55.588  0.00  0.00    +0.000 A 
ATOM     35  C   UNL     1      17.021  37.189  54.759  0.00  0.00    +0.000 A 
ATOM     36  C   UNL     1      16.726  37.387  53.408  0.00  0.00    +0.000 A 
ATOM     37  C   UNL     1      16.763  38.678  52.901  0.00  0.00    +0.000 A 
ATOM     38  C   UNL     1      17.087  38.275  50.401  0.00  0.00    +0.000 C 
ATOM     39  C   UNL     1      16.794  38.818  48.995  0.00  0.00    +0.000 C 
ENDBRANCH  25  26
ENDBRANCH  24  25
ENDBRANCH  23  24
ENDBRANCH   7  23
TORSDOF 6
ENDMDL
MODEL 3
REMARK VINA RESULT:    -7.031      8.279     12.763
REMARK INTER + INTRA:         -11.049
REMARK INTER:                  -9.498
REMARK INTRA:                  -1.552
REMARK UNBOUND:                -1.552
REMARK  Name = 
REMARK  6 active torsions:
REMARK  status: ('A' for Active; 'I' for Inactive)
REMARK    1  A    between atoms: C_2  and  C_3
REMARK    2  A    between atoms: C_13  and  C_14
REMARK    3  A    between atoms: C_13  and  C_31
REMARK    4  A    between atoms: C_14  and  C_15
REMARK    5  A    between atoms: C_15  and  C_16
REMARK    6  A    between atoms: C_16  and  N_17
REMARK                            x       y       z     vdW  Elec       q    Type
REMARK                         _______ _______ _______ _____ _____    ______ ____
ROOT
ATOM      1  O   UNL     1      15.571  44.127  40.928  0.00  0.00    +0.000 OA
ATOM      2  C   UNL     1      14.346  44.177  41.015  0.00  0.00    +0.000 C 
ATOM      3  N   UNL     1      13.666  44.207  42.237  0.00  0.00    +0.000 N 
ATOM      4  C   UNL     1      12.282  44.646  42.389  0.00  0.00    +0.000 C 
ATOM      5  C   UNL     1      11.545  43.880  43.482  0.00  0.00    +0.000 C 
ATOM      6  C   UNL     1      12.451  43.369  44.606  0.00  0.00    +0.000 C 
ATOM      7  C   UNL     1      13.742  44.221  44.805  0.00  0.00    +0.000 C 
ATOM      8  C   UNL     1      14.504  44.145  43.443  0.00  0.00    +0.000 C 
ENDROOT
BRANCH   7   9
ATOM      9  C   UNL     1      13.365  45.638  45.291  0.00  0.00    +0.000 A 
ATOM     10  C   UNL     1      12.322  45.880  46.202  0.00  0.00    +0.000 A 
ATOM     11  C   UNL     1      11.991  47.180  46.605  0.00  0.00    +0.000 A 
ATOM     12  C   UNL     1      12.693  48.275  46.103  0.00  0.00    +0.000 A 
ATOM     13 CL   UNL     1      12.224  49.848  46.637  0.00  0.00    +0.000 Cl
ATOM     14  C   UNL     1      13.733  48.066  45.197  0.00  0.00    +0.000 A 
ATOM     15 CL   UNL     1      14.648  49.366  44.518  0.00  0.00    +0.000 Cl
ATOM     16  C   UNL     1      14.062  46.763  44.799  0.00  0.00    +0.000 A 
ENDBRANCH   7   9
BRANCH   2  17
ATOM     17  C   UNL     1      13.571  44.197  39.758  0.00  0.00    +0.000 A 
ATOM     18  C   UNL     1      13.469  43.046  38.970  0.00  0.00    +0.000 A 
ATOM     19  C   UNL     1      12.751  43.091  37.775  0.00  0.00    +0.000 A 
ATOM     20  C   UNL     1      12.152  44.284  37.365  0.00  0.00    +0.000 A 
ATOM     21  C   UNL     1      12.280  45.439  38.142  0.00  0.00    +0.000 A 
ATOM     22  C   UNL     1      12.998  45.401  39.336  0.00  0.00    +0.000 A 
ENDBRANCH   2  17
BRANCH   7  23
ATOM     23  C   UNL     1      14.607  43.500  45.900  0.00  0.00    +0.000 C 
BRANCH  23  24
ATOM     24  C   UNL     1      14.311  42.015  46.186  0.00  0.00    +0.000 C 
BRANCH  24  25
ATOM     25  C   UNL     1      15.540  41.098  46.098  0.00  0.00    +0.000 C 
BRANCH  25  26
ATOM     26  N   UNL     1      15.717  40.525  44.755  0.00  0.00    +0.000 NA
ATOM     27  C   UNL     1      16.437  41.406  43.834  0.00  0.00    +0.000 C 
ATOM     28  C   UNL     1      16.326  40.881  42.394  0.00  0.00    +0.000 C 
ATOM     29  C   UNL     1      16.380  39.337  42.305  0.00  0.00    +0.000 C 
ATOM     30  C   UNL     1      14.958  38.724  42.121  0.00  0.00    +0.000 C 
ATOM     31  C   UNL     1      14.663  38.723  40.616  0.00  0.00    +0.000 C 
ATOM     32  C   UNL     1      16.040  38.550  40.058  0.00  0.00    +0.000 A 
ATOM     33  C   UNL     1      16.386  38.149  38.778  0.00  0.00    +0.000 A 
ATOM     34  C   UNL     1      17.740  38.079  38.447  0.00  0.00    +0.000 A 
ATOM     35  C   UNL     1      18.722  38.421  39.388  0.00  0.00    +0.000 A 
ATOM     36  C   UNL     1      18.363  38.837  40.673  0.00  0.00    +0.000 A 
ATOM     37  C   UNL     1      17.017  38.897  41.002  0.00  0.00    +0.000 A 
ATOM     38  C   UNL     1      17.070  38.769  43.551  0.00  0.00    +0.000 C 
ATOM     39  C   UNL     1      16.363  39.202  44.843  0.00  0.00    +0.000 C 
ENDBRANCH  25  26
ENDBRANCH  24  25
ENDBRANCH  23  24
ENDBRANCH   7  23
TORSDOF 6
ENDMDL
