MODEL 1
REMARK VINA RESULT:    -6.479      0.000      0.000
REMARK INTER + INTRA:         -10.557
REMARK INTER:                  -9.535
REMARK INTRA:                  -1.021
REMARK UNBOUND:                -1.426
REMARK  Name = 
REMARK  8 active torsions:
REMARK  status: ('A' for Active; 'I' for Inactive)
REMARK    1  A    between atoms: C_1  and  C_2
REMARK    2  A    between atoms: C_4  and  C_5
REMARK    3  A    between atoms: C_12  and  C_13
REMARK    4  A    between atoms: C_13  and  C_14
REMARK    5  A    between atoms: C_14  and  O_15
REMARK    6  A    between atoms: O_15  and  C_16
REMARK    7  A    between atoms: C_19  and  C_20
REMARK    8  A    between atoms: C_21  and  C_22
REMARK                            x       y       z     vdW  Elec       q    Type
REMARK                         _______ _______ _______ _____ _____    ______ ____
ROOT
ATOM      1  C   UNL     1      12.527  47.578  46.265  0.00  0.00    +0.000 A 
ATOM      2  C   UNL     1      12.021  46.328  46.613  0.00  0.00    +0.000 A 
ATOM      3  C   UNL     1      12.643  45.161  46.150  0.00  0.00    +0.000 A 
ATOM      4  C   UNL     1      13.784  45.229  45.341  0.00  0.00    +0.000 A 
ATOM      5  C   UNL     1      14.275  46.488  44.979  0.00  0.00    +0.000 A 
ATOM      6  C   UNL     1      13.652  47.651  45.442  0.00  0.00    +0.000 A 
ENDROOT
BRANCH   4   7
ATOM      7  C   UNL     1      14.447  44.029  44.812  0.00  0.00    +0.000 C 
ATOM      8  C   UNL     1      15.465  44.058  43.937  0.00  0.00    +0.000 C 
BRANCH   8   9
ATOM      9  C   UNL     1      16.092  42.854  43.428  0.00  0.00    +0.000 C 
ATOM     10  C   UNL     1      15.647  42.089  42.423  0.00  0.00    +0.000 C 
ATOM     11  S   UNL     1      14.234  42.299  41.457  0.00  0.00    +0.000 S 
ATOM     12  C   UNL     1      14.565  40.862  40.513  0.00  0.00    +0.000 C 
ATOM     13  O   UNL     1      13.863  40.462  39.601  0.00  0.00    +0.000 OA
ATOM     14  N   UNL     1      15.708  40.278  40.952  0.00  0.00    +0.000 N 
ATOM     15  C   UNL     1      16.375  40.867  41.985  0.00  0.00    +0.000 C 
ATOM     16  O   UNL     1      17.415  40.449  42.468  0.00  0.00    +0.000 OA
ATOM     17  H   UNL     1      16.054  39.437  40.522  0.00  0.00    +0.000 HD
ENDBRANCH   8   9
ENDBRANCH   4   7
BRANCH   1  18
ATOM     18  O   UNL     1      12.018  48.789  46.643  0.00  0.00    +0.000 OA
BRANCH  18  19
ATOM     19  C   UNL     1      12.231  49.891  45.760  0.00  0.00    +0.000 C 
BRANCH  19  20
ATOM     20  C   UNL     1      12.480  51.157  46.580  0.00  0.00    +0.000 C 
BRANCH  20  26
ATOM     21  C   UNL     1      14.330  52.889  48.823  0.00  0.00    +0.000 C 
ATOM     22  C   UNL     1      14.616  52.325  47.493  0.00  0.00    +0.000 A 
ATOM     23  O   UNL     1      15.880  52.506  47.007  0.00  0.00    +0.000 OA
ATOM     24  C   UNL     1      15.865  51.897  45.779  0.00  0.00    +0.000 A 
ATOM     25  N   UNL     1      14.700  51.362  45.463  0.00  0.00    +0.000 NA
ATOM     26  C   UNL     1      13.899  51.612  46.556  0.00  0.00    +0.000 A 
BRANCH  24  27
ATOM     27  C   UNL     1      17.105  51.929  45.008  0.00  0.00    +0.000 A 
ATOM     28  C   UNL     1      18.043  52.945  45.248  0.00  0.00    +0.000 A 
ATOM     29  C   UNL     1      19.238  53.001  44.528  0.00  0.00    +0.000 A 
ATOM     30  C   UNL     1      19.511  52.041  43.555  0.00  0.00    +0.000 A 
ATOM     31  C   UNL     1      18.591  51.025  43.303  0.00  0.00    +0.000 A 
ATOM     32  C   UNL     1      17.395  50.970  44.025  0.00  0.00    +0.000 A 
ENDBRANCH  24  27
ENDBRANCH  20  26
ENDBRANCH  19  20
ENDBRANCH  18  19
ENDBRANCH   1  18
TORSDOF 7
ENDMDL
MODEL 2
REMARK VINA RESULT:    -6.378     13.143     17.830
REMARK INTER + INTRA:         -10.414
REMARK INTER:                  -8.988
REMARK INTRA:                  -1.426
REMARK UNBOUND:                -1.426
REMARK  Name = 
REMARK  8 active torsions:
REMARK  status: ('A' for Active; 'I' for Inactive)
REMARK    1  A    between atoms: C_1  and  C_2
REMARK    2  A    between atoms: C_4  and  C_5
REMARK    3  A    between atoms: C_12  and  C_13
REMARK    4  A    between atoms: C_13  and  C_14
REMARK    5  A    between atoms: C_14  and  O_15
REMARK    6  A    between atoms: O_15  and  C_16
REMARK    7  A    between atoms: C_19  and  C_20
REMARK    8  A    between atoms: C_21  and  C_22
REMARK                            x       y       z     vdW  Elec       q    Type
REMARK                         _______ _______ _______ _____ _____    ______ ____
ROOT
ATOM      1  C   UNL     1      22.168  33.519  49.417  0.00  0.00    +0.000 A 
ATOM      2  C   UNL     1      22.943  34.652  49.650  0.00  0.00    +0.000 A 
ATOM      3  C   UNL     1      22.405  35.744  50.344  0.00  0.00    +0.000 A 
ATOM      4  C   UNL     1      21.089  35.713  50.822  0.00  0.00    +0.000 A 
ATOM      5  C   UNL     1      20.311  34.579  50.568  0.00  0.00    +0.000 A 
ATOM      6  C   UNL     1      20.850  33.491  49.874  0.00  0.00    +0.000 A 
ENDROOT
BRANCH   4   7
ATOM      7  C   UNL     1      20.481  36.849  51.530  0.00  0.00    +0.000 C 
ATOM      8  C   UNL     1      19.170  37.138  51.495  0.00  0.00    +0.000 C 
BRANCH   8   9
ATOM      9  C   UNL     1      18.603  38.272  52.198  0.00  0.00    +0.000 C 
ATOM     10  C   UNL     1      17.574  39.027  51.791  0.00  0.00    +0.000 C 
ATOM     11  S   UNL     1      16.639  38.881  50.350  0.00  0.00    +0.000 S 
ATOM     12  C   UNL     1      15.632  40.252  50.766  0.00  0.00    +0.000 C 
ATOM     13  O   UNL     1      14.715  40.665  50.079  0.00  0.00    +0.000 OA
ATOM     14  N   UNL     1      16.030  40.769  51.956  0.00  0.00    +0.000 N 
ATOM     15  C   UNL     1      17.075  40.174  52.597  0.00  0.00    +0.000 C 
ATOM     16  O   UNL     1      17.525  40.535  53.672  0.00  0.00    +0.000 OA
ATOM     17  H   UNL     1      15.560  41.564  52.354  0.00  0.00    +0.000 HD
ENDBRANCH   8   9
ENDBRANCH   4   7
BRANCH   1  18
ATOM     18  O   UNL     1      22.565  32.392  48.754  0.00  0.00    +0.000 OA
BRANCH  18  19
ATOM     19  C   UNL     1      22.567  31.168  49.490  0.00  0.00    +0.000 C 
BRANCH  19  20
ATOM     20  C   UNL     1      23.950  30.949  50.106  0.00  0.00    +0.000 C 
BRANCH  20  26
ATOM     21  C   UNL     1      26.679  32.816  50.826  0.00  0.00    +0.000 C 
ATOM     22  C   UNL     1      25.384  32.614  51.497  0.00  0.00    +0.000 A 
ATOM     23  O   UNL     1      25.179  33.300  52.661  0.00  0.00    +0.000 OA
ATOM     24  C   UNL     1      23.922  32.928  53.061  0.00  0.00    +0.000 A 
ATOM     25  N   UNL     1      23.336  32.069  52.248  0.00  0.00    +0.000 NA
ATOM     26  C   UNL     1      24.250  31.873  51.236  0.00  0.00    +0.000 A 
BRANCH  24  27
ATOM     27  C   UNL     1      23.421  33.514  54.301  0.00  0.00    +0.000 A 
ATOM     28  C   UNL     1      22.154  34.118  54.320  0.00  0.00    +0.000 A 
ATOM     29  C   UNL     1      21.647  34.687  55.491  0.00  0.00    +0.000 A 
ATOM     30  C   UNL     1      22.404  34.660  56.661  0.00  0.00    +0.000 A 
ATOM     31  C   UNL     1      23.664  34.066  56.661  0.00  0.00    +0.000 A 
ATOM     32  C   UNL     1      24.170  33.497  55.488  0.00  0.00    +0.000 A 
ENDBRANCH  24  27
ENDBRANCH  20  26
ENDBRANCH  19  20
ENDBRANCH  18  19
ENDBRANCH   1  18
TORSDOF 7
ENDMDL
MODEL 3
REMARK VINA RESULT:    -6.332      8.786     11.648
REMARK INTER + INTRA:         -10.349
REMARK INTER:                  -9.475
REMARK INTRA:                  -0.874
REMARK UNBOUND:                -1.426
REMARK  Name = 
REMARK  8 active torsions:
REMARK  status: ('A' for Active; 'I' for Inactive)
REMARK    1  A    between atoms: C_1  and  C_2
REMARK    2  A    between atoms: C_4  and  C_5
REMARK    3  A    between atoms: C_12  and  C_13
REMARK    4  A    between atoms: C_13  and  C_14
REMARK    5  A    between atoms: C_14  and  O_15
REMARK    6  A    between atoms: O_15  and  C_16
REMARK    7  A    between atoms: C_19  and  C_20
REMARK    8  A    between atoms: C_21  and  C_22
REMARK                            x       y       z     vdW  Elec       q    Type
REMARK                         _______ _______ _______ _____ _____    ______ ____
ROOT
ATOM      1  C   UNL     1      15.633  39.448  49.459  0.00  0.00    +0.000 A 
ATOM      2  C   UNL     1      16.762  38.943  50.098  0.00  0.00    +0.000 A 
ATOM      3  C   UNL     1      17.055  39.320  51.416  0.00  0.00    +0.000 A 
ATOM      4  C   UNL     1      16.217  40.199  52.113  0.00  0.00    +0.000 A 
ATOM      5  C   UNL     1      15.095  40.718  51.458  0.00  0.00    +0.000 A 
ATOM      6  C   UNL     1      14.806  40.340  50.143  0.00  0.00    +0.000 A 
ENDROOT
BRANCH   4   7
ATOM      7  C   UNL     1      16.505  40.640  53.486  0.00  0.00    +0.000 C 
ATOM      8  C   UNL     1      15.604  40.631  54.481  0.00  0.00    +0.000 C 
BRANCH   8   9
ATOM      9  C   UNL     1      15.919  41.081  55.823  0.00  0.00    +0.000 C 
ATOM     10  C   UNL     1      16.529  40.369  56.779  0.00  0.00    +0.000 C 
ATOM     11  S   UNL     1      17.110  38.747  56.705  0.00  0.00    +0.000 S 
ATOM     12  C   UNL     1      17.688  38.792  58.357  0.00  0.00    +0.000 C 
ATOM     13  O   UNL     1      18.242  37.862  58.917  0.00  0.00    +0.000 OA
ATOM     14  N   UNL     1      17.425  40.005  58.903  0.00  0.00    +0.000 N 
ATOM     15  C   UNL     1      16.800  40.936  58.128  0.00  0.00    +0.000 C 
ATOM     16  O   UNL     1      16.514  42.065  58.494  0.00  0.00    +0.000 OA
ATOM     17  H   UNL     1      17.691  40.212  59.851  0.00  0.00    +0.000 HD
ENDBRANCH   8   9
ENDBRANCH   4   7
BRANCH   1  18
ATOM     18  O   UNL     1      15.235  39.167  48.182  0.00  0.00    +0.000 OA
BRANCH  18  19
ATOM     19  C   UNL     1      14.623  40.224  47.441  0.00  0.00    +0.000 C 
BRANCH  19  20
ATOM     20  C   UNL     1      15.541  40.631  46.288  0.00  0.00    +0.000 C 
BRANCH  20  26
ATOM     21  C   UNL     1      16.324  42.056  43.320  0.00  0.00    +0.000 C 
ATOM     22  C   UNL     1      15.562  42.513  44.494  0.00  0.00    +0.000 A 
ATOM     23  O   UNL     1      15.032  43.771  44.433  0.00  0.00    +0.000 OA
ATOM     24  C   UNL     1      14.393  43.932  45.634  0.00  0.00    +0.000 A 
ATOM     25  N   UNL     1      14.488  42.886  46.434  0.00  0.00    +0.000 NA
ATOM     26  C   UNL     1      15.216  41.966  45.712  0.00  0.00    +0.000 A 
BRANCH  24  27
ATOM     27  C   UNL     1      13.718  45.208  45.860  0.00  0.00    +0.000 A 
ATOM     28  C   UNL     1      12.477  45.229  46.516  0.00  0.00    +0.000 A 
ATOM     29  C   UNL     1      11.809  46.433  46.746  0.00  0.00    +0.000 A 
ATOM     30  C   UNL     1      12.373  47.635  46.322  0.00  0.00    +0.000 A 
ATOM     31  C   UNL     1      13.604  47.633  45.669  0.00  0.00    +0.000 A 
ATOM     32  C   UNL     1      14.272  46.427  45.439  0.00  0.00    +0.000 A 
ENDBRANCH  24  27
ENDBRANCH  20  26
ENDBRANCH  19  20
ENDBRANCH  18  19
ENDBRANCH   1  18
TORSDOF 7
ENDMDL
