MODEL 1
REMARK VINA RESULT:    -6.913      0.000      0.000
REMARK INTER + INTRA:         -10.540
REMARK INTER:                  -9.414
REMARK INTRA:                  -1.126
REMARK UNBOUND:                -1.203
REMARK  Name = 
REMARK  8 active torsions:
REMARK  status: ('A' for Active; 'I' for Inactive)
REMARK    1  A    between atoms: C_1  and  C_2
REMARK    2  A    between atoms: C_2  and  C_3
REMARK    3  A    between atoms: C_2  and  N_4
REMARK    4  A    between atoms: C_5  and  C_7
REMARK    5  A    between atoms: C_10  and  C_11
REMARK    6  A    between atoms: C_11  and  C_12
REMARK    7  A    between atoms: N_15  and  C_16
REMARK    8  A    between atoms: C_20  and  C_22
REMARK                            x       y       z     vdW  Elec       q    Type
REMARK                         _______ _______ _______ _____ _____    ______ ____
ROOT
ATOM      1  C   UNL     1      14.185  42.847  44.453  0.00  0.00    +0.000 C 
ATOM      2  C   UNL     1      15.662  42.690  44.030  0.00  0.00    +0.000 C 
ATOM      3  C   UNL     1      16.137  41.232  43.976  0.00  0.00    +0.000 C 
ATOM      4  N   UNL     1      15.635  40.493  45.134  0.00  0.00    +0.000 NA
ATOM      5  C   UNL     1      14.170  40.392  45.152  0.00  0.00    +0.000 C 
ATOM      6  C   UNL     1      13.467  41.495  44.348  0.00  0.00    +0.000 C 
ENDROOT
BRANCH   4   7
ATOM      7  C   UNL     1      16.344  39.220  45.371  0.00  0.00    +0.000 C 
ATOM      8  C   UNL     1      15.476  37.948  45.249  0.00  0.00    +0.000 C 
ATOM      9  C   UNL     1      15.538  37.055  46.483  0.00  0.00    +0.000 C 
ATOM     10  N   UNL     1      16.906  36.787  46.911  0.00  0.00    +0.000 N 
ATOM     11  C   UNL     1      17.140  35.612  47.636  0.00  0.00    +0.000 C 
ATOM     12  O   UNL     1      16.228  34.859  47.973  0.00  0.00    +0.000 OA
ATOM     13  C   UNL     1      17.845  37.911  46.900  0.00  0.00    +0.000 C 
ATOM     14  C   UNL     1      17.148  39.251  46.682  0.00  0.00    +0.000 C 
BRANCH  11  15
ATOM     15  C   UNL     1      18.520  35.315  48.007  0.00  0.00    +0.000 A 
ATOM     16  C   UNL     1      19.403  34.613  47.206  0.00  0.00    +0.000 A 
ATOM     17  N   UNL     1      20.601  34.524  47.858  0.00  0.00    +0.000 N 
ATOM     18  C   UNL     1      20.539  35.188  49.061  0.00  0.00    +0.000 A 
ATOM     19  C   UNL     1      21.525  35.375  50.037  0.00  0.00    +0.000 A 
ATOM     20  C   UNL     1      21.189  36.135  51.161  0.00  0.00    +0.000 A 
ATOM     21  C   UNL     1      19.920  36.694  51.296  0.00  0.00    +0.000 A 
ATOM     22  C   UNL     1      18.947  36.496  50.310  0.00  0.00    +0.000 A 
ATOM     23  C   UNL     1      19.250  35.716  49.174  0.00  0.00    +0.000 A 
ATOM     24  H   UNL     1      21.427  34.063  47.500  0.00  0.00    +0.000 HD
ENDBRANCH  11  15
ENDBRANCH   4   7
BRANCH   1  25
ATOM     25  C   UNL     1      14.043  43.435  45.876  0.00  0.00    +0.000 C 
BRANCH  25  29
ATOM     26  C   UNL     1      12.903  47.608  45.912  0.00  0.00    +0.000 A 
ATOM     27  C   UNL     1      12.138  46.661  46.602  0.00  0.00    +0.000 A 
ATOM     28  C   UNL     1      12.503  45.313  46.585  0.00  0.00    +0.000 A 
ATOM     29  C   UNL     1      13.645  44.895  45.891  0.00  0.00    +0.000 A 
ATOM     30  C   UNL     1      14.416  45.849  45.213  0.00  0.00    +0.000 A 
ATOM     31  C   UNL     1      14.052  47.199  45.226  0.00  0.00    +0.000 A 
BRANCH  26  33
ATOM     32  N   UNL     1      13.458  49.976  45.732  0.00  0.00    +0.000 N 
ATOM     33  C   UNL     1      12.476  49.033  45.962  0.00  0.00    +0.000 C 
ATOM     34  O   UNL     1      11.303  49.315  46.176  0.00  0.00    +0.000 OA
ATOM     35  H   UNL     1      14.400  49.679  45.526  0.00  0.00    +0.000 HD
BRANCH  32  37
ATOM     36  C   UNL     1      13.560  51.924  47.215  0.00  0.00    +0.000 C 
ATOM     37  C   UNL     1      13.187  51.403  45.829  0.00  0.00    +0.000 C 
ATOM     38  C   UNL     1      13.952  52.158  44.746  0.00  0.00    +0.000 C 
ENDBRANCH  32  37
ENDBRANCH  26  33
ENDBRANCH  25  29
ENDBRANCH   1  25
TORSDOF 6
ENDMDL
MODEL 2
REMARK VINA RESULT:    -6.688      4.431     11.478
REMARK INTER + INTRA:         -10.237
REMARK INTER:                  -8.990
REMARK INTRA:                  -1.247
REMARK UNBOUND:                -1.203
REMARK  Name = 
REMARK  8 active torsions:
REMARK  status: ('A' for Active; 'I' for Inactive)
REMARK    1  A    between atoms: C_1  and  C_2
REMARK    2  A    between atoms: C_2  and  C_3
REMARK    3  A    between atoms: C_2  and  N_4
REMARK    4  A    between atoms: C_5  and  C_7
REMARK    5  A    between atoms: C_10  and  C_11
REMARK    6  A    between atoms: C_11  and  C_12
REMARK    7  A    between atoms: N_15  and  C_16
REMARK    8  A    between atoms: C_20  and  C_22
REMARK                            x       y       z     vdW  Elec       q    Type
REMARK                         _______ _______ _______ _____ _____    ______ ____
ROOT
ATOM      1  C   UNL     1      16.611  37.889  49.460  0.00  0.00    +0.000 C 
ATOM      2  C   UNL     1      15.174  38.443  49.570  0.00  0.00    +0.000 C 
ATOM      3  C   UNL     1      14.578  38.886  48.226  0.00  0.00    +0.000 C 
ATOM      4  N   UNL     1      15.577  39.619  47.448  0.00  0.00    +0.000 NA
ATOM      5  C   UNL     1      16.727  38.786  47.073  0.00  0.00    +0.000 C 
ATOM      6  C   UNL     1      16.938  37.576  47.994  0.00  0.00    +0.000 C 
ENDROOT
BRANCH   4   7
ATOM      7  C   UNL     1      14.997  40.405  46.341  0.00  0.00    +0.000 C 
ATOM      8  C   UNL     1      15.723  40.269  44.984  0.00  0.00    +0.000 C 
ATOM      9  C   UNL     1      16.140  41.609  44.386  0.00  0.00    +0.000 C 
ATOM     10  N   UNL     1      15.049  42.576  44.368  0.00  0.00    +0.000 N 
ATOM     11  C   UNL     1      15.100  43.594  43.408  0.00  0.00    +0.000 C 
ATOM     12  O   UNL     1      16.058  43.727  42.647  0.00  0.00    +0.000 OA
ATOM     13  C   UNL     1      14.202  42.655  45.561  0.00  0.00    +0.000 C 
ATOM     14  C   UNL     1      14.779  41.875  46.738  0.00  0.00    +0.000 C 
BRANCH  11  15
ATOM     15  C   UNL     1      13.976  44.522  43.351  0.00  0.00    +0.000 A 
ATOM     16  C   UNL     1      12.873  44.353  42.532  0.00  0.00    +0.000 A 
ATOM     17  N   UNL     1      12.018  45.399  42.737  0.00  0.00    +0.000 N 
ATOM     18  C   UNL     1      12.516  46.238  43.707  0.00  0.00    +0.000 A 
ATOM     19  C   UNL     1      11.973  47.409  44.249  0.00  0.00    +0.000 A 
ATOM     20  C   UNL     1      12.691  48.048  45.264  0.00  0.00    +0.000 A 
ATOM     21  C   UNL     1      13.899  47.530  45.724  0.00  0.00    +0.000 A 
ATOM     22  C   UNL     1      14.428  46.358  45.169  0.00  0.00    +0.000 A 
ATOM     23  C   UNL     1      13.735  45.702  44.129  0.00  0.00    +0.000 A 
ATOM     24  H   UNL     1      11.131  45.529  42.268  0.00  0.00    +0.000 HD
ENDBRANCH  11  15
ENDBRANCH   4   7
BRANCH   1  25
ATOM     25  C   UNL     1      17.657  38.856  50.061  0.00  0.00    +0.000 C 
BRANCH  25  29
ATOM     26  C   UNL     1      17.196  39.473  54.318  0.00  0.00    +0.000 A 
ATOM     27  C   UNL     1      17.301  38.177  53.800  0.00  0.00    +0.000 A 
ATOM     28  C   UNL     1      17.444  37.978  52.425  0.00  0.00    +0.000 A 
ATOM     29  C   UNL     1      17.498  39.071  51.550  0.00  0.00    +0.000 A 
ATOM     30  C   UNL     1      17.405  40.367  52.076  0.00  0.00    +0.000 A 
ATOM     31  C   UNL     1      17.261  40.570  53.452  0.00  0.00    +0.000 A 
BRANCH  26  33
ATOM     32  N   UNL     1      17.267  38.507  56.556  0.00  0.00    +0.000 N 
ATOM     33  C   UNL     1      17.048  39.634  55.791  0.00  0.00    +0.000 C 
ATOM     34  O   UNL     1      16.768  40.730  56.263  0.00  0.00    +0.000 OA
ATOM     35  H   UNL     1      17.531  37.640  56.110  0.00  0.00    +0.000 HD
BRANCH  32  37
ATOM     36  C   UNL     1      15.751  37.855  58.367  0.00  0.00    +0.000 C 
ATOM     37  C   UNL     1      17.079  38.512  58.000  0.00  0.00    +0.000 C 
ATOM     38  C   UNL     1      18.241  37.798  58.684  0.00  0.00    +0.000 C 
ENDBRANCH  32  37
ENDBRANCH  26  33
ENDBRANCH  25  29
ENDBRANCH   1  25
TORSDOF 6
ENDMDL
MODEL 3
REMARK VINA RESULT:    -6.592      6.794      7.675
REMARK INTER + INTRA:         -10.106
REMARK INTER:                  -8.904
REMARK INTRA:                  -1.203
REMARK UNBOUND:                -1.203
REMARK  Name = 
REMARK  8 active torsions:
REMARK  status: ('A' for Active; 'I' for Inactive)
REMARK    1  A    between atoms: C_1  and  C_2
REMARK    2  A    between atoms: C_2  and  C_3
REMARK    3  A    between atoms: C_2  and  N_4
REMARK    4  A    between atoms: C_5  and  C_7
REMARK    5  A    between atoms: C_10  and  C_11
REMARK    6  A    between atoms: C_11  and  C_12
REMARK    7  A    between atoms: N_15  and  C_16
REMARK    8  A    between atoms: C_20  and  C_22
REMARK                            x       y       z     vdW  Elec       q    Type
REMARK                         _______ _______ _______ _____ _____    ______ ____
ROOT
ATOM      1  C   UNL     1      15.105  42.424  52.685  0.00  0.00    +0.000 C 
ATOM      2  C   UNL     1      16.477  42.129  53.329  0.00  0.00    +0.000 C 
ATOM      3  C   UNL     1      16.843  40.638  53.346  0.00  0.00    +0.000 C 
ATOM      4  N   UNL     1      15.680  39.836  53.724  0.00  0.00    +0.000 NA
ATOM      5  C   UNL     1      14.587  39.925  52.747  0.00  0.00    +0.000 C 
ATOM      6  C   UNL     1      14.627  41.199  51.893  0.00  0.00    +0.000 C 
ENDROOT
BRANCH   4   7
ATOM      7  C   UNL     1      16.025  38.462  54.140  0.00  0.00    +0.000 C 
ATOM      8  C   UNL     1      16.121  38.238  55.666  0.00  0.00    +0.000 C 
ATOM      9  C   UNL     1      17.450  37.632  56.104  0.00  0.00    +0.000 C 
ATOM     10  N   UNL     1      17.815  36.459  55.320  0.00  0.00    +0.000 N 
ATOM     11  C   UNL     1      18.664  35.518  55.916  0.00  0.00    +0.000 C 
ATOM     12  O   UNL     1      19.152  35.693  57.032  0.00  0.00    +0.000 OA
ATOM     13  C   UNL     1      17.601  36.526  53.872  0.00  0.00    +0.000 C 
ATOM     14  C   UNL     1      17.266  37.936  53.397  0.00  0.00    +0.000 C 
BRANCH  11  15
ATOM     15  C   UNL     1      18.976  34.314  55.153  0.00  0.00    +0.000 A 
ATOM     16  C   UNL     1      18.137  33.218  55.060  0.00  0.00    +0.000 A 
ATOM     17  N   UNL     1      18.737  32.280  54.267  0.00  0.00    +0.000 N 
ATOM     18  C   UNL     1      19.942  32.752  53.801  0.00  0.00    +0.000 A 
ATOM     19  C   UNL     1      20.877  32.149  52.951  0.00  0.00    +0.000 A 
ATOM     20  C   UNL     1      22.015  32.886  52.611  0.00  0.00    +0.000 A 
ATOM     21  C   UNL     1      22.204  34.177  53.095  0.00  0.00    +0.000 A 
ATOM     22  C   UNL     1      21.260  34.764  53.945  0.00  0.00    +0.000 A 
ATOM     23  C   UNL     1      20.110  34.037  54.323  0.00  0.00    +0.000 A 
ATOM     24  H   UNL     1      18.344  31.379  54.029  0.00  0.00    +0.000 HD
ENDBRANCH  11  15
ENDBRANCH   4   7
BRANCH   1  25
ATOM     25  C   UNL     1      14.047  42.847  53.731  0.00  0.00    +0.000 C 
BRANCH  25  29
ATOM     26  C   UNL     1      13.004  47.041  53.543  0.00  0.00    +0.000 A 
ATOM     27  C   UNL     1      14.335  46.639  53.394  0.00  0.00    +0.000 A 
ATOM     28  C   UNL     1      14.673  45.285  53.461  0.00  0.00    +0.000 A 
ATOM     29  C   UNL     1      13.683  44.315  53.663  0.00  0.00    +0.000 A 
ATOM     30  C   UNL     1      12.349  44.723  53.798  0.00  0.00    +0.000 A 
ATOM     31  C   UNL     1      12.008  46.077  53.734  0.00  0.00    +0.000 A 
BRANCH  26  33
ATOM     32  N   UNL     1      13.767  49.342  53.276  0.00  0.00    +0.000 N 
ATOM     33  C   UNL     1      12.693  48.496  53.462  0.00  0.00    +0.000 C 
ATOM     34  O   UNL     1      11.532  48.881  53.537  0.00  0.00    +0.000 OA
ATOM     35  H   UNL     1      14.698  48.961  53.185  0.00  0.00    +0.000 HD
BRANCH  32  37
ATOM     36  C   UNL     1      14.019  51.389  54.600  0.00  0.00    +0.000 C 
ATOM     37  C   UNL     1      13.608  50.789  53.257  0.00  0.00    +0.000 C 
ATOM     38  C   UNL     1      14.429  51.394  52.122  0.00  0.00    +0.000 C 
ENDBRANCH  32  37
ENDBRANCH  26  33
ENDBRANCH  25  29
ENDBRANCH   1  25
TORSDOF 6
ENDMDL
