MODEL 1
REMARK VINA RESULT:    -7.709      0.000      0.000
REMARK INTER + INTRA:         -11.152
REMARK INTER:                  -9.942
REMARK INTRA:                  -1.211
REMARK UNBOUND:                -0.740
REMARK  Name = 
REMARK  6 active torsions:
REMARK  status: ('A' for Active; 'I' for Inactive)
REMARK    1  A    between atoms: C_2  and  C_3
REMARK    2  A    between atoms: C_3  and  N_4
REMARK    3  A    between atoms: N_11  and  C_12
REMARK    4  A    between atoms: C_12  and  C_13
REMARK    5  A    between atoms: C_17  and  C_18
REMARK    6  A    between atoms: C_23  and  N_24
REMARK                            x       y       z     vdW  Elec       q    Type
REMARK                         _______ _______ _______ _____ _____    ______ ____
ROOT
ATOM      1  C   UNL     1      16.145  38.710  49.599  0.00  0.00    +0.000 A 
ATOM      2  C   UNL     1      16.578  37.696  50.430  0.00  0.00    +0.000 A 
ATOM      3  C   UNL     1      17.374  36.831  49.636  0.00  0.00    +0.000 A 
ATOM      4  C   UNL     1      18.100  35.650  49.861  0.00  0.00    +0.000 A 
ATOM      5  C   UNL     1      18.776  35.073  48.771  0.00  0.00    +0.000 A 
ATOM      6  C   UNL     1      18.767  35.664  47.501  0.00  0.00    +0.000 A 
ATOM      7  C   UNL     1      18.051  36.842  47.268  0.00  0.00    +0.000 A 
ATOM      8  C   UNL     1      17.374  37.384  48.360  0.00  0.00    +0.000 A 
ATOM      9  O   UNL     1      16.630  38.524  48.337  0.00  0.00    +0.000 OA
ENDROOT
BRANCH   5  10
ATOM     10  C   UNL     1      19.561  33.840  48.970  0.00  0.00    +0.000 C 
ATOM     11  O   UNL     1      18.956  32.773  48.919  0.00  0.00    +0.000 OA
ATOM     12  N   UNL     1      20.936  33.948  49.197  0.00  0.00    +0.000 N 
ATOM     13  C   UNL     1      21.596  35.172  49.653  0.00  0.00    +0.000 C 
ATOM     14  C   UNL     1      21.805  35.128  51.166  0.00  0.00    +0.000 C 
ATOM     15  C   UNL     1      22.547  33.842  51.573  0.00  0.00    +0.000 C 
ATOM     16  C   UNL     1      21.852  32.581  51.009  0.00  0.00    +0.000 C 
ATOM     17  C   UNL     1      21.666  32.721  49.498  0.00  0.00    +0.000 C 
BRANCH  15  18
ATOM     18  N   UNL     1      22.802  33.769  53.028  0.00  0.00    +0.000 N 
ATOM     19  C   UNL     1      24.000  33.191  53.477  0.00  0.00    +0.000 C 
ATOM     20  O   UNL     1      24.826  32.671  52.732  0.00  0.00    +0.000 OA
ATOM     21  O   UNL     1      24.226  33.164  54.821  0.00  0.00    +0.000 OA
ATOM     22  C   UNL     1      23.594  34.143  55.638  0.00  0.00    +0.000 C 
ATOM     23  C   UNL     1      22.152  34.280  55.296  0.00  0.00    +0.000 A 
ATOM     24  C   UNL     1      21.209  34.645  56.269  0.00  0.00    +0.000 A 
ATOM     25  C   UNL     1      19.877  34.831  55.915  0.00  0.00    +0.000 A 
ATOM     26  C   UNL     1      19.489  34.661  54.590  0.00  0.00    +0.000 A 
ATOM     27  C   UNL     1      20.434  34.310  53.619  0.00  0.00    +0.000 A 
ATOM     28  C   UNL     1      21.781  34.123  53.960  0.00  0.00    +0.000 A 
ENDBRANCH  15  18
ENDBRANCH   5  10
BRANCH   1  29
ATOM     29  C   UNL     1      15.310  39.916  49.822  0.00  0.00    +0.000 C 
BRANCH  29  32
ATOM     30  O   UNL     1      14.106  41.289  51.950  0.00  0.00    +0.000 OA
ATOM     31  C   UNL     1      15.328  41.348  51.824  0.00  0.00    +0.000 C 
ATOM     32  N   UNL     1      16.000  40.775  50.761  0.00  0.00    +0.000 N 
ATOM     33  H   UNL     1      17.004  40.666  50.816  0.00  0.00    +0.000 HD
BRANCH  31  34
ATOM     34  C   UNL     1      16.249  42.076  52.806  0.00  0.00    +0.000 C 
BRANCH  34  35
ATOM     35  N   UNL     1      16.593  41.190  53.889  0.00  0.00    +0.000 N 
ATOM     36  C   UNL     1      15.929  41.118  55.079  0.00  0.00    +0.000 C 
ATOM     37  O   UNL     1      15.024  41.850  55.454  0.00  0.00    +0.000 OA
ATOM     38  C   UNL     1      16.507  39.961  55.878  0.00  0.00    +0.000 C 
ATOM     39  N   UNL     1      17.536  39.506  54.986  0.00  0.00    +0.000 N 
ATOM     40  C   UNL     1      17.527  40.204  53.799  0.00  0.00    +0.000 C 
ATOM     41  O   UNL     1      18.246  39.952  52.848  0.00  0.00    +0.000 OA
ATOM     42  H   UNL     1      18.098  38.671  55.092  0.00  0.00    +0.000 HD
ENDBRANCH  34  35
ENDBRANCH  31  34
ENDBRANCH  29  32
ENDBRANCH   1  29
TORSDOF 6
ENDMDL
MODEL 2
REMARK VINA RESULT:    -7.503      2.205      3.085
REMARK INTER + INTRA:         -10.874
REMARK INTER:                 -10.010
REMARK INTRA:                  -0.865
REMARK UNBOUND:                -0.740
REMARK  Name = 
REMARK  6 active torsions:
REMARK  status: ('A' for Active; 'I' for Inactive)
REMARK    1  A    between atoms: C_2  and  C_3
REMARK    2  A    between atoms: C_3  and  N_4
REMARK    3  A    between atoms: N_11  and  C_12
REMARK    4  A    between atoms: C_12  and  C_13
REMARK    5  A    between atoms: C_17  and  C_18
REMARK    6  A    between atoms: C_23  and  N_24
REMARK                            x       y       z     vdW  Elec       q    Type
REMARK                         _______ _______ _______ _____ _____    ______ ____
ROOT
ATOM      1  C   UNL     1      16.851  40.707  52.528  0.00  0.00    +0.000 A 
ATOM      2  C   UNL     1      17.416  39.551  53.028  0.00  0.00    +0.000 A 
ATOM      3  C   UNL     1      17.410  38.605  51.971  0.00  0.00    +0.000 A 
ATOM      4  C   UNL     1      17.835  37.275  51.813  0.00  0.00    +0.000 A 
ATOM      5  C   UNL     1      17.637  36.663  50.563  0.00  0.00    +0.000 A 
ATOM      6  C   UNL     1      17.067  37.353  49.485  0.00  0.00    +0.000 A 
ATOM      7  C   UNL     1      16.646  38.678  49.631  0.00  0.00    +0.000 A 
ATOM      8  C   UNL     1      16.835  39.257  50.884  0.00  0.00    +0.000 A 
ATOM      9  O   UNL     1      16.498  40.532  51.222  0.00  0.00    +0.000 OA
ENDROOT
BRANCH   5  10
ATOM     10  C   UNL     1      18.083  35.272  50.354  0.00  0.00    +0.000 C 
ATOM     11  O   UNL     1      17.246  34.386  50.492  0.00  0.00    +0.000 OA
ATOM     12  N   UNL     1      19.416  35.039  50.007  0.00  0.00    +0.000 N 
ATOM     13  C   UNL     1      20.498  36.001  50.225  0.00  0.00    +0.000 C 
ATOM     14  C   UNL     1      21.246  35.673  51.517  0.00  0.00    +0.000 C 
ATOM     15  C   UNL     1      21.718  34.208  51.512  0.00  0.00    +0.000 C 
ATOM     16  C   UNL     1      20.555  33.236  51.208  0.00  0.00    +0.000 C 
ATOM     17  C   UNL     1      19.855  33.651  49.914  0.00  0.00    +0.000 C 
BRANCH  15  18
ATOM     18  N   UNL     1      22.477  33.851  52.731  0.00  0.00    +0.000 N 
ATOM     19  C   UNL     1      23.646  33.084  52.600  0.00  0.00    +0.000 C 
ATOM     20  O   UNL     1      24.042  32.624  51.533  0.00  0.00    +0.000 OA
ATOM     21  O   UNL     1      24.344  32.795  53.734  0.00  0.00    +0.000 OA
ATOM     22  C   UNL     1      24.225  33.671  54.849  0.00  0.00    +0.000 C 
ATOM     23  C   UNL     1      22.802  34.012  55.117  0.00  0.00    +0.000 A 
ATOM     24  C   UNL     1      22.358  34.291  56.418  0.00  0.00    +0.000 A 
ATOM     25  C   UNL     1      21.038  34.672  56.638  0.00  0.00    +0.000 A 
ATOM     26  C   UNL     1      20.166  34.781  55.560  0.00  0.00    +0.000 A 
ATOM     27  C   UNL     1      20.616  34.515  54.261  0.00  0.00    +0.000 A 
ATOM     28  C   UNL     1      21.944  34.135  54.024  0.00  0.00    +0.000 A 
ENDBRANCH  15  18
ENDBRANCH   5  10
BRANCH   1  29
ATOM     29  C   UNL     1      16.592  42.044  53.116  0.00  0.00    +0.000 C 
BRANCH  29  32
ATOM     30  O   UNL     1      15.264  44.063  54.538  0.00  0.00    +0.000 OA
ATOM     31  C   UNL     1      14.611  43.343  53.785  0.00  0.00    +0.000 C 
ATOM     32  N   UNL     1      15.162  42.272  53.108  0.00  0.00    +0.000 N 
ATOM     33  H   UNL     1      14.645  41.853  52.347  0.00  0.00    +0.000 HD
BRANCH  31  34
ATOM     34  C   UNL     1      13.115  43.527  53.520  0.00  0.00    +0.000 C 
BRANCH  34  35
ATOM     35  N   UNL     1      12.392  42.391  54.034  0.00  0.00    +0.000 N 
ATOM     36  C   UNL     1      11.819  42.327  55.270  0.00  0.00    +0.000 C 
ATOM     37  O   UNL     1      11.916  43.157  56.164  0.00  0.00    +0.000 OA
ATOM     38  C   UNL     1      11.027  41.031  55.361  0.00  0.00    +0.000 C 
ATOM     39  N   UNL     1      11.301  40.458  54.074  0.00  0.00    +0.000 N 
ATOM     40  C   UNL     1      12.054  41.303  53.290  0.00  0.00    +0.000 C 
ATOM     41  O   UNL     1      12.349  41.082  52.128  0.00  0.00    +0.000 OA
ATOM     42  H   UNL     1      10.871  39.631  53.681  0.00  0.00    +0.000 HD
ENDBRANCH  34  35
ENDBRANCH  31  34
ENDBRANCH  29  32
ENDBRANCH   1  29
TORSDOF 6
ENDMDL
MODEL 3
REMARK VINA RESULT:    -7.173      4.103      6.261
REMARK INTER + INTRA:         -10.429
REMARK INTER:                  -9.689
REMARK INTRA:                  -0.740
REMARK UNBOUND:                -0.740
REMARK  Name = 
REMARK  6 active torsions:
REMARK  status: ('A' for Active; 'I' for Inactive)
REMARK    1  A    between atoms: C_2  and  C_3
REMARK    2  A    between atoms: C_3  and  N_4
REMARK    3  A    between atoms: N_11  and  C_12
REMARK    4  A    between atoms: C_12  and  C_13
REMARK    5  A    between atoms: C_17  and  C_18
REMARK    6  A    between atoms: C_23  and  N_24
REMARK                            x       y       z     vdW  Elec       q    Type
REMARK                         _______ _______ _______ _____ _____    ______ ____
ROOT
ATOM      1  C   UNL     1      16.651  39.016  46.897  0.00  0.00    +0.000 A 
ATOM      2  C   UNL     1      17.313  37.927  46.365  0.00  0.00    +0.000 A 
ATOM      3  C   UNL     1      17.719  37.123  47.461  0.00  0.00    +0.000 A 
ATOM      4  C   UNL     1      18.408  35.908  47.612  0.00  0.00    +0.000 A 
ATOM      5  C   UNL     1      18.628  35.431  48.916  0.00  0.00    +0.000 A 
ATOM      6  C   UNL     1      18.151  36.115  50.042  0.00  0.00    +0.000 A 
ATOM      7  C   UNL     1      17.460  37.323  49.903  0.00  0.00    +0.000 A 
ATOM      8  C   UNL     1      17.272  37.784  48.601  0.00  0.00    +0.000 A 
ATOM      9  O   UNL     1      16.622  38.931  48.259  0.00  0.00    +0.000 OA
ENDROOT
BRANCH   5  10
ATOM     10  C   UNL     1      19.334  34.151  49.115  0.00  0.00    +0.000 C 
ATOM     11  O   UNL     1      18.662  33.125  49.068  0.00  0.00    +0.000 OA
ATOM     12  N   UNL     1      20.713  34.172  49.336  0.00  0.00    +0.000 N 
ATOM     13  C   UNL     1      21.451  35.352  49.788  0.00  0.00    +0.000 C 
ATOM     14  C   UNL     1      21.663  35.297  51.300  0.00  0.00    +0.000 C 
ATOM     15  C   UNL     1      22.323  33.967  51.706  0.00  0.00    +0.000 C 
ATOM     16  C   UNL     1      21.548  32.752  51.147  0.00  0.00    +0.000 C 
ATOM     17  C   UNL     1      21.366  32.902  49.637  0.00  0.00    +0.000 C 
BRANCH  15  18
ATOM     18  N   UNL     1      22.578  33.880  53.161  0.00  0.00    +0.000 N 
ATOM     19  C   UNL     1      23.770  33.283  53.604  0.00  0.00    +0.000 C 
ATOM     20  O   UNL     1      24.588  32.758  52.855  0.00  0.00    +0.000 OA
ATOM     21  O   UNL     1      23.997  33.243  54.948  0.00  0.00    +0.000 OA
ATOM     22  C   UNL     1      23.378  34.224  55.773  0.00  0.00    +0.000 C 
ATOM     23  C   UNL     1      21.938  34.382  55.433  0.00  0.00    +0.000 A 
ATOM     24  C   UNL     1      21.001  34.752  56.410  0.00  0.00    +0.000 A 
ATOM     25  C   UNL     1      19.670  34.959  56.058  0.00  0.00    +0.000 A 
ATOM     26  C   UNL     1      19.279  34.803  54.733  0.00  0.00    +0.000 A 
ATOM     27  C   UNL     1      20.219  34.448  53.758  0.00  0.00    +0.000 A 
ATOM     28  C   UNL     1      21.563  34.240  54.097  0.00  0.00    +0.000 A 
ENDBRANCH  15  18
ENDBRANCH   5  10
BRANCH   1  29
ATOM     29  C   UNL     1      15.979  40.190  46.288  0.00  0.00    +0.000 C 
BRANCH  29  32
ATOM     30  O   UNL     1      14.170  40.160  44.146  0.00  0.00    +0.000 OA
ATOM     31  C   UNL     1      15.368  40.297  43.906  0.00  0.00    +0.000 C 
ATOM     32  N   UNL     1      16.339  40.240  44.887  0.00  0.00    +0.000 N 
ATOM     33  H   UNL     1      17.271  40.570  44.674  0.00  0.00    +0.000 HD
BRANCH  31  34
ATOM     34  C   UNL     1      15.931  40.523  42.502  0.00  0.00    +0.000 C 
BRANCH  34  35
ATOM     35  N   UNL     1      15.589  41.850  42.053  0.00  0.00    +0.000 N 
ATOM     36  C   UNL     1      14.703  42.130  41.054  0.00  0.00    +0.000 C 
ATOM     37  O   UNL     1      14.151  41.322  40.320  0.00  0.00    +0.000 OA
ATOM     38  C   UNL     1      14.510  43.638  40.998  0.00  0.00    +0.000 C 
ATOM     39  N   UNL     1      15.412  44.062  42.032  0.00  0.00    +0.000 N 
ATOM     40  C   UNL     1      15.987  42.991  42.678  0.00  0.00    +0.000 C 
ATOM     41  O   UNL     1      16.723  43.086  43.645  0.00  0.00    +0.000 OA
ATOM     42  H   UNL     1      15.508  45.001  42.397  0.00  0.00    +0.000 HD
ENDBRANCH  34  35
ENDBRANCH  31  34
ENDBRANCH  29  32
ENDBRANCH   1  29
TORSDOF 6
ENDMDL
