MODEL 1
REMARK VINA RESULT:    -6.460      0.000      0.000
REMARK INTER + INTRA:          -8.859
REMARK INTER:                  -8.068
REMARK INTRA:                  -0.792
REMARK UNBOUND:                -1.077
REMARK  Name = 
REMARK  5 active torsions:
REMARK  status: ('A' for Active; 'I' for Inactive)
REMARK    1  A    between atoms: C_1  and  C_2
REMARK    2  A    between atoms: C_5  and  C_6
REMARK    3  A    between atoms: C_8  and  C_9
REMARK    4  A    between atoms: C_15  and  O_16
REMARK    5  A    between atoms: C_19  and  C_21
REMARK                            x       y       z     vdW  Elec       q    Type
REMARK                         _______ _______ _______ _____ _____    ______ ____
ROOT
ATOM      1  C   UNL     1      14.907  38.986  50.299  0.00  0.00    +0.000 C 
ATOM      2  C   UNL     1      14.443  39.382  48.902  0.00  0.00    +0.000 C 
ATOM      3  C   UNL     1      15.730  39.199  48.139  0.00  0.00    +0.000 C 
ATOM      4  N   UNL     1      16.671  38.570  48.783  0.00  0.00    +0.000 NA
ATOM      5  N   UNL     1      16.181  38.317  50.040  0.00  0.00    +0.000 N 
ATOM      6  C   UNL     1      16.842  37.564  51.002  0.00  0.00    +0.000 C 
ATOM      7  O   UNL     1      16.397  37.381  52.135  0.00  0.00    +0.000 OA
ENDROOT
BRANCH   1  12
ATOM      8  C   UNL     1      15.284  43.700  53.737  0.00  0.00    +0.000 C 
ATOM      9  C   UNL     1      15.193  42.506  52.834  0.00  0.00    +0.000 A 
ATOM     10  C   UNL     1      16.340  41.984  52.230  0.00  0.00    +0.000 A 
ATOM     11  C   UNL     1      16.261  40.849  51.419  0.00  0.00    +0.000 A 
ATOM     12  C   UNL     1      15.035  40.202  51.205  0.00  0.00    +0.000 A 
ATOM     13  C   UNL     1      13.889  40.723  51.826  0.00  0.00    +0.000 A 
ATOM     14  C   UNL     1      13.970  41.858  52.638  0.00  0.00    +0.000 A 
ENDBRANCH   1  12
BRANCH   3  15
ATOM     15  C   UNL     1      15.901  39.666  46.742  0.00  0.00    +0.000 A 
ATOM     16  C   UNL     1      15.525  40.964  46.377  0.00  0.00    +0.000 A 
ATOM     17  C   UNL     1      15.694  41.390  45.058  0.00  0.00    +0.000 A 
ATOM     18 CL   UNL     1      15.228  42.987  44.616  0.00  0.00    +0.000 Cl
ATOM     19  C   UNL     1      16.233  40.540  44.095  0.00  0.00    +0.000 A 
ATOM     20  C   UNL     1      16.607  39.245  44.452  0.00  0.00    +0.000 A 
ATOM     21  C   UNL     1      16.442  38.812  45.767  0.00  0.00    +0.000 A 
BRANCH  21  22
ATOM     22  O   UNL     1      16.835  37.526  46.024  0.00  0.00    +0.000 OA
ATOM     23  H   UNL     1      16.672  36.984  45.221  0.00  0.00    +0.000 HD
ENDBRANCH  21  22
ENDBRANCH   3  15
BRANCH   6  24
ATOM     24  C   UNL     1      18.155  36.963  50.659  0.00  0.00    +0.000 A 
ATOM     25  C   UNL     1      18.332  36.175  49.516  0.00  0.00    +0.000 A 
ATOM     26  C   UNL     1      19.583  35.614  49.244  0.00  0.00    +0.000 A 
ATOM     27  C   UNL     1      20.648  35.827  50.118  0.00  0.00    +0.000 A 
ATOM     28  C   UNL     1      20.468  36.592  51.271  0.00  0.00    +0.000 A 
ATOM     29  C   UNL     1      19.221  37.154  51.546  0.00  0.00    +0.000 A 
ENDBRANCH   6  24
TORSDOF 4
ENDMDL
MODEL 2
REMARK VINA RESULT:    -6.192      6.277      9.434
REMARK INTER + INTRA:          -8.536
REMARK INTER:                  -7.424
REMARK INTRA:                  -1.111
REMARK UNBOUND:                -1.077
REMARK  Name = 
REMARK  5 active torsions:
REMARK  status: ('A' for Active; 'I' for Inactive)
REMARK    1  A    between atoms: C_1  and  C_2
REMARK    2  A    between atoms: C_5  and  C_6
REMARK    3  A    between atoms: C_8  and  C_9
REMARK    4  A    between atoms: C_15  and  O_16
REMARK    5  A    between atoms: C_19  and  C_21
REMARK                            x       y       z     vdW  Elec       q    Type
REMARK                         _______ _______ _______ _____ _____    ______ ____
ROOT
ATOM      1  C   UNL     1      15.625  43.732  42.985  0.00  0.00    +0.000 C 
ATOM      2  C   UNL     1      16.625  42.719  43.532  0.00  0.00    +0.000 C 
ATOM      3  C   UNL     1      16.180  41.485  42.788  0.00  0.00    +0.000 C 
ATOM      4  N   UNL     1      15.344  41.700  41.813  0.00  0.00    +0.000 NA
ATOM      5  N   UNL     1      15.076  43.045  41.816  0.00  0.00    +0.000 N 
ATOM      6  C   UNL     1      14.309  43.695  40.858  0.00  0.00    +0.000 C 
ATOM      7  O   UNL     1      14.054  44.898  40.903  0.00  0.00    +0.000 OA
ENDROOT
BRANCH   1  12
ATOM      8  C   UNL     1      11.670  45.201  47.032  0.00  0.00    +0.000 C 
ATOM      9  C   UNL     1      12.699  44.812  46.013  0.00  0.00    +0.000 A 
ATOM     10  C   UNL     1      12.839  43.478  45.620  0.00  0.00    +0.000 A 
ATOM     11  C   UNL     1      13.771  43.120  44.642  0.00  0.00    +0.000 A 
ATOM     12  C   UNL     1      14.576  44.091  44.026  0.00  0.00    +0.000 A 
ATOM     13  C   UNL     1      14.419  45.430  44.415  0.00  0.00    +0.000 A 
ATOM     14  C   UNL     1      13.486  45.787  45.392  0.00  0.00    +0.000 A 
ENDBRANCH   1  12
BRANCH   3  15
ATOM     15  C   UNL     1      16.685  40.131  43.117  0.00  0.00    +0.000 A 
ATOM     16  C   UNL     1      16.512  39.601  44.402  0.00  0.00    +0.000 A 
ATOM     17  C   UNL     1      16.992  38.324  44.696  0.00  0.00    +0.000 A 
ATOM     18 CL   UNL     1      16.777  37.680  46.278  0.00  0.00    +0.000 Cl
ATOM     19  C   UNL     1      17.644  37.564  43.727  0.00  0.00    +0.000 A 
ATOM     20  C   UNL     1      17.822  38.088  42.447  0.00  0.00    +0.000 A 
ATOM     21  C   UNL     1      17.345  39.363  42.145  0.00  0.00    +0.000 A 
BRANCH  21  22
ATOM     22  O   UNL     1      17.566  39.793  40.865  0.00  0.00    +0.000 OA
ATOM     23  H   UNL     1      18.506  40.068  40.786  0.00  0.00    +0.000 HD
ENDBRANCH  21  22
ENDBRANCH   3  15
BRANCH   6  24
ATOM     24  C   UNL     1      13.754  42.902  39.733  0.00  0.00    +0.000 A 
ATOM     25  C   UNL     1      14.225  43.046  38.422  0.00  0.00    +0.000 A 
ATOM     26  C   UNL     1      13.659  42.291  37.392  0.00  0.00    +0.000 A 
ATOM     27  C   UNL     1      12.615  41.407  37.666  0.00  0.00    +0.000 A 
ATOM     28  C   UNL     1      12.127  41.280  38.967  0.00  0.00    +0.000 A 
ATOM     29  C   UNL     1      12.690  42.032  39.999  0.00  0.00    +0.000 A 
ENDBRANCH   6  24
TORSDOF 4
ENDMDL
MODEL 3
REMARK VINA RESULT:    -5.924      5.268      8.711
REMARK INTER + INTRA:          -8.213
REMARK INTER:                  -7.136
REMARK INTRA:                  -1.077
REMARK UNBOUND:                -1.077
REMARK  Name = 
REMARK  5 active torsions:
REMARK  status: ('A' for Active; 'I' for Inactive)
REMARK    1  A    between atoms: C_1  and  C_2
REMARK    2  A    between atoms: C_5  and  C_6
REMARK    3  A    between atoms: C_8  and  C_9
REMARK    4  A    between atoms: C_15  and  O_16
REMARK    5  A    between atoms: C_19  and  C_21
REMARK                            x       y       z     vdW  Elec       q    Type
REMARK                         _______ _______ _______ _____ _____    ______ ____
ROOT
ATOM      1  C   UNL     1      14.357  44.413  45.226  0.00  0.00    +0.000 C 
ATOM      2  C   UNL     1      15.311  43.398  45.845  0.00  0.00    +0.000 C 
ATOM      3  C   UNL     1      15.194  42.282  44.839  0.00  0.00    +0.000 C 
ATOM      4  N   UNL     1      14.588  42.599  43.731  0.00  0.00    +0.000 NA
ATOM      5  N   UNL     1      14.176  43.900  43.869  0.00  0.00    +0.000 N 
ATOM      6  C   UNL     1      13.583  44.647  42.858  0.00  0.00    +0.000 C 
ATOM      7  O   UNL     1      13.190  45.802  43.018  0.00  0.00    +0.000 OA
ENDROOT
BRANCH   1  12
ATOM      8  C   UNL     1       9.420  44.885  48.321  0.00  0.00    +0.000 C 
ATOM      9  C   UNL     1      10.699  44.755  47.549  0.00  0.00    +0.000 A 
ATOM     10  C   UNL     1      11.225  43.494  47.253  0.00  0.00    +0.000 A 
ATOM     11  C   UNL     1      12.396  43.372  46.501  0.00  0.00    +0.000 A 
ATOM     12  C   UNL     1      13.061  44.509  46.017  0.00  0.00    +0.000 A 
ATOM     13  C   UNL     1      12.520  45.771  46.305  0.00  0.00    +0.000 A 
ATOM     14  C   UNL     1      11.348  45.892  47.056  0.00  0.00    +0.000 A 
ENDBRANCH   1  12
BRANCH   3  15
ATOM     15  C   UNL     1      15.759  40.932  45.076  0.00  0.00    +0.000 A 
ATOM     16  C   UNL     1      15.825  40.408  46.373  0.00  0.00    +0.000 A 
ATOM     17  C   UNL     1      16.359  39.135  46.580  0.00  0.00    +0.000 A 
ATOM     18 CL   UNL     1      16.438  38.497  48.177  0.00  0.00    +0.000 Cl
ATOM     19  C   UNL     1      16.830  38.374  45.512  0.00  0.00    +0.000 A 
ATOM     20  C   UNL     1      16.770  38.892  44.219  0.00  0.00    +0.000 A 
ATOM     21  C   UNL     1      16.238  40.163  44.003  0.00  0.00    +0.000 A 
BRANCH  21  22
ATOM     22  O   UNL     1      16.221  40.588  42.702  0.00  0.00    +0.000 OA
ATOM     23  H   UNL     1      17.048  41.087  42.527  0.00  0.00    +0.000 HD
ENDBRANCH  21  22
ENDBRANCH   3  15
BRANCH   6  24
ATOM     24  C   UNL     1      13.398  44.021  41.525  0.00  0.00    +0.000 A 
ATOM     25  C   UNL     1      12.236  43.316  41.192  0.00  0.00    +0.000 A 
ATOM     26  C   UNL     1      12.115  42.728  39.931  0.00  0.00    +0.000 A 
ATOM     27  C   UNL     1      13.158  42.828  39.011  0.00  0.00    +0.000 A 
ATOM     28  C   UNL     1      14.328  43.509  39.349  0.00  0.00    +0.000 A 
ATOM     29  C   UNL     1      14.453  44.099  40.607  0.00  0.00    +0.000 A 
ENDBRANCH   6  24
TORSDOF 4
ENDMDL
