MODEL 1
REMARK VINA RESULT:    -7.154      0.000      0.000
REMARK INTER + INTRA:         -10.112
REMARK INTER:                  -8.746
REMARK INTRA:                  -1.367
REMARK UNBOUND:                -1.285
REMARK  Name = 
REMARK  5 active torsions:
REMARK  status: ('A' for Active; 'I' for Inactive)
REMARK    1  A    between atoms: C_1  and  C_2
REMARK    2  A    between atoms: N_4  and  C_5
REMARK    3  A    between atoms: C_5  and  C_6
REMARK    4  A    between atoms: C_18  and  C_19
REMARK    5  A    between atoms: N_21  and  C_22
REMARK                            x       y       z     vdW  Elec       q    Type
REMARK                         _______ _______ _______ _____ _____    ______ ____
ROOT
ATOM      1  C   UNL     1      17.120  38.963  58.897  0.00  0.00    +0.000 C 
ATOM      2  C   UNL     1      17.263  38.196  57.634  0.00  0.00    +0.000 A 
ATOM      3  C   UNL     1      17.474  36.836  57.517  0.00  0.00    +0.000 A 
ATOM      4  N   UNL     1      17.556  36.520  56.183  0.00  0.00    +0.000 N 
ATOM      5  C   UNL     1      17.384  37.661  55.420  0.00  0.00    +0.000 A 
ATOM      6  C   UNL     1      17.381  37.850  54.029  0.00  0.00    +0.000 A 
ATOM      7  C   UNL     1      17.255  39.154  53.529  0.00  0.00    +0.000 A 
ATOM      8  C   UNL     1      17.058  40.229  54.397  0.00  0.00    +0.000 A 
ATOM      9  C   UNL     1      17.032  40.026  55.784  0.00  0.00    +0.000 A 
ATOM     10  C   UNL     1      17.213  38.727  56.308  0.00  0.00    +0.000 A 
ENDROOT
BRANCH   7  11
ATOM     11  C   UNL     1      17.328  39.402  52.060  0.00  0.00    +0.000 C 
ATOM     12  O   UNL     1      18.056  40.286  51.623  0.00  0.00    +0.000 OA
ATOM     13  N   UNL     1      16.606  38.504  51.290  0.00  0.00    +0.000 N 
ATOM     14  H   UNL     1      16.536  37.568  51.683  0.00  0.00    +0.000 HD
BRANCH  13  15
ATOM     15  C   UNL     1      16.481  38.583  49.876  0.00  0.00    +0.000 A 
ATOM     16  C   UNL     1      17.304  37.755  49.097  0.00  0.00    +0.000 A 
ATOM     17 CL   UNL     1      18.460  36.687  49.812  0.00  0.00    +0.000 Cl
ATOM     18  C   UNL     1      17.209  37.816  47.713  0.00  0.00    +0.000 A 
ATOM     19  N   UNL     1      16.345  38.619  47.053  0.00  0.00    +0.000 NA
ATOM     20  C   UNL     1      15.529  39.380  47.822  0.00  0.00    +0.000 A 
ATOM     21  C   UNL     1      15.542  39.390  49.215  0.00  0.00    +0.000 A 
ATOM     22 CL   UNL     1      14.267  40.245  50.010  0.00  0.00    +0.000 Cl
ENDBRANCH  13  15
ENDBRANCH   7  11
BRANCH   4  23
ATOM     23  C   UNL     1      17.764  35.165  55.672  0.00  0.00    +0.000 C 
BRANCH  23  24
ATOM     24  C   UNL     1      19.203  34.887  55.300  0.00  0.00    +0.000 A 
ATOM     25  C   UNL     1      19.618  34.878  53.963  0.00  0.00    +0.000 A 
ATOM     26  C   UNL     1      20.944  34.578  53.634  0.00  0.00    +0.000 A 
ATOM     27  C   UNL     1      21.885  34.286  54.633  0.00  0.00    +0.000 A 
ATOM     28  C   UNL     1      23.216  33.968  54.316  0.00  0.00    +0.000 A 
ATOM     29  C   UNL     1      24.138  33.674  55.322  0.00  0.00    +0.000 A 
ATOM     30  C   UNL     1      23.742  33.697  56.657  0.00  0.00    +0.000 A 
ATOM     31  C   UNL     1      22.425  34.016  56.989  0.00  0.00    +0.000 A 
ATOM     32  C   UNL     1      21.484  34.313  55.988  0.00  0.00    +0.000 A 
ATOM     33  C   UNL     1      20.152  34.628  56.305  0.00  0.00    +0.000 A 
ENDBRANCH  23  24
ENDBRANCH   4  23
TORSDOF 4
ENDMDL
MODEL 2
REMARK VINA RESULT:    -7.026     11.733     15.054
REMARK INTER + INTRA:          -9.954
REMARK INTER:                  -8.669
REMARK INTRA:                  -1.285
REMARK UNBOUND:                -1.285
REMARK  Name = 
REMARK  5 active torsions:
REMARK  status: ('A' for Active; 'I' for Inactive)
REMARK    1  A    between atoms: C_1  and  C_2
REMARK    2  A    between atoms: N_4  and  C_5
REMARK    3  A    between atoms: C_5  and  C_6
REMARK    4  A    between atoms: C_18  and  C_19
REMARK    5  A    between atoms: N_21  and  C_22
REMARK                            x       y       z     vdW  Elec       q    Type
REMARK                         _______ _______ _______ _____ _____    ______ ____
ROOT
ATOM      1  C   UNL     1      12.083  42.155  47.324  0.00  0.00    +0.000 C 
ATOM      2  C   UNL     1      12.913  43.040  46.468  0.00  0.00    +0.000 A 
ATOM      3  C   UNL     1      13.945  42.649  45.639  0.00  0.00    +0.000 A 
ATOM      4  N   UNL     1      14.460  43.766  45.027  0.00  0.00    +0.000 N 
ATOM      5  C   UNL     1      13.763  44.888  45.436  0.00  0.00    +0.000 A 
ATOM      6  C   UNL     1      13.909  46.242  45.094  0.00  0.00    +0.000 A 
ATOM      7  C   UNL     1      13.093  47.187  45.733  0.00  0.00    +0.000 A 
ATOM      8  C   UNL     1      12.106  46.778  46.630  0.00  0.00    +0.000 A 
ATOM      9  C   UNL     1      11.948  45.420  46.943  0.00  0.00    +0.000 A 
ATOM     10  C   UNL     1      12.797  44.459  46.352  0.00  0.00    +0.000 A 
ENDROOT
BRANCH   7  11
ATOM     11  C   UNL     1      13.275  48.641  45.455  0.00  0.00    +0.000 C 
ATOM     12  O   UNL     1      12.947  49.471  46.295  0.00  0.00    +0.000 OA
ATOM     13  N   UNL     1      13.915  48.921  44.258  0.00  0.00    +0.000 N 
ATOM     14  H   UNL     1      14.592  48.219  43.965  0.00  0.00    +0.000 HD
BRANCH  13  15
ATOM     15  C   UNL     1      14.140  50.232  43.758  0.00  0.00    +0.000 A 
ATOM     16  C   UNL     1      15.403  50.807  43.970  0.00  0.00    +0.000 A 
ATOM     17 CL   UNL     1      16.649  49.977  44.832  0.00  0.00    +0.000 Cl
ATOM     18  C   UNL     1      15.648  52.090  43.500  0.00  0.00    +0.000 A 
ATOM     19  N   UNL     1      14.744  52.829  42.820  0.00  0.00    +0.000 NA
ATOM     20  C   UNL     1      13.545  52.240  42.588  0.00  0.00    +0.000 A 
ATOM     21  C   UNL     1      13.199  50.960  43.013  0.00  0.00    +0.000 A 
ATOM     22 CL   UNL     1      11.718  50.302  42.414  0.00  0.00    +0.000 Cl
ENDBRANCH  13  15
ENDBRANCH   7  11
BRANCH   4  23
ATOM     23  C   UNL     1      15.564  43.739  44.066  0.00  0.00    +0.000 C 
BRANCH  23  24
ATOM     24  C   UNL     1      15.117  43.398  42.662  0.00  0.00    +0.000 A 
ATOM     25  C   UNL     1      14.746  44.397  41.755  0.00  0.00    +0.000 A 
ATOM     26  C   UNL     1      14.294  44.061  40.475  0.00  0.00    +0.000 A 
ATOM     27  C   UNL     1      14.210  42.720  40.070  0.00  0.00    +0.000 A 
ATOM     28  C   UNL     1      13.743  42.368  38.793  0.00  0.00    +0.000 A 
ATOM     29  C   UNL     1      13.659  41.028  38.408  0.00  0.00    +0.000 A 
ATOM     30  C   UNL     1      14.042  40.025  39.295  0.00  0.00    +0.000 A 
ATOM     31  C   UNL     1      14.512  40.358  40.566  0.00  0.00    +0.000 A 
ATOM     32  C   UNL     1      14.601  41.702  40.969  0.00  0.00    +0.000 A 
ATOM     33  C   UNL     1      15.065  42.055  42.248  0.00  0.00    +0.000 A 
ENDBRANCH  23  24
ENDBRANCH   4  23
TORSDOF 4
ENDMDL
MODEL 3
REMARK VINA RESULT:    -7.004      5.517      8.734
REMARK INTER + INTRA:          -9.926
REMARK INTER:                  -8.740
REMARK INTRA:                  -1.187
REMARK UNBOUND:                -1.285
REMARK  Name = 
REMARK  5 active torsions:
REMARK  status: ('A' for Active; 'I' for Inactive)
REMARK    1  A    between atoms: C_1  and  C_2
REMARK    2  A    between atoms: N_4  and  C_5
REMARK    3  A    between atoms: C_5  and  C_6
REMARK    4  A    between atoms: C_18  and  C_19
REMARK    5  A    between atoms: N_21  and  C_22
REMARK                            x       y       z     vdW  Elec       q    Type
REMARK                         _______ _______ _______ _____ _____    ______ ____
ROOT
ATOM      1  C   UNL     1      19.023  35.856  49.335  0.00  0.00    +0.000 C 
ATOM      2  C   UNL     1      17.850  36.766  49.334  0.00  0.00    +0.000 A 
ATOM      3  C   UNL     1      16.981  36.989  50.384  0.00  0.00    +0.000 A 
ATOM      4  N   UNL     1      16.029  37.892  49.978  0.00  0.00    +0.000 N 
ATOM      5  C   UNL     1      16.275  38.278  48.673  0.00  0.00    +0.000 A 
ATOM      6  C   UNL     1      15.593  39.170  47.830  0.00  0.00    +0.000 A 
ATOM      7  C   UNL     1      16.035  39.312  46.507  0.00  0.00    +0.000 A 
ATOM      8  C   UNL     1      17.174  38.638  46.064  0.00  0.00    +0.000 A 
ATOM      9  C   UNL     1      17.865  37.772  46.923  0.00  0.00    +0.000 A 
ATOM     10  C   UNL     1      17.403  37.573  48.243  0.00  0.00    +0.000 A 
ENDROOT
BRANCH   7  11
ATOM     11  C   UNL     1      15.288  40.189  45.560  0.00  0.00    +0.000 C 
ATOM     12  O   UNL     1      14.177  39.857  45.163  0.00  0.00    +0.000 OA
ATOM     13  N   UNL     1      15.911  41.396  45.283  0.00  0.00    +0.000 N 
ATOM     14  H   UNL     1      16.473  41.768  46.046  0.00  0.00    +0.000 HD
BRANCH  13  15
ATOM     15  C   UNL     1      15.415  42.360  44.363  0.00  0.00    +0.000 A 
ATOM     16  C   UNL     1      15.812  42.251  43.021  0.00  0.00    +0.000 A 
ATOM     17 CL   UNL     1      16.891  41.011  42.487  0.00  0.00    +0.000 Cl
ATOM     18  C   UNL     1      15.349  43.183  42.102  0.00  0.00    +0.000 A 
ATOM     19  N   UNL     1      14.508  44.195  42.414  0.00  0.00    +0.000 NA
ATOM     20  C   UNL     1      14.103  44.258  43.705  0.00  0.00    +0.000 A 
ATOM     21  C   UNL     1      14.504  43.372  44.703  0.00  0.00    +0.000 A 
ATOM     22 CL   UNL     1      13.692  43.477  46.224  0.00  0.00    +0.000 Cl
ENDBRANCH  13  15
ENDBRANCH   7  11
BRANCH   4  23
ATOM     23  C   UNL     1      14.945  38.379  50.832  0.00  0.00    +0.000 C 
BRANCH  23  24
ATOM     24  C   UNL     1      15.222  39.747  51.417  0.00  0.00    +0.000 A 
ATOM     25  C   UNL     1      16.522  40.261  51.478  0.00  0.00    +0.000 A 
ATOM     26  C   UNL     1      16.765  41.508  52.060  0.00  0.00    +0.000 A 
ATOM     27  C   UNL     1      15.714  42.274  52.588  0.00  0.00    +0.000 A 
ATOM     28  C   UNL     1      15.945  43.521  53.190  0.00  0.00    +0.000 A 
ATOM     29  C   UNL     1      14.888  44.267  53.716  0.00  0.00    +0.000 A 
ATOM     30  C   UNL     1      13.587  43.775  53.645  0.00  0.00    +0.000 A 
ATOM     31  C   UNL     1      13.340  42.539  53.046  0.00  0.00    +0.000 A 
ATOM     32  C   UNL     1      14.393  41.776  52.514  0.00  0.00    +0.000 A 
ATOM     33  C   UNL     1      14.162  40.526  51.915  0.00  0.00    +0.000 A 
ENDBRANCH  23  24
ENDBRANCH   4  23
TORSDOF 4
ENDMDL
