MODEL 1
REMARK VINA RESULT:    -6.628      0.000      0.000
REMARK INTER + INTRA:          -9.339
REMARK INTER:                  -8.329
REMARK INTRA:                  -1.010
REMARK UNBOUND:                -0.773
REMARK  Name = 
REMARK  5 active torsions:
REMARK  status: ('A' for Active; 'I' for Inactive)
REMARK    1  A    between atoms: C_2  and  C_4
REMARK    2  A    between atoms: C_9  and  C_10
REMARK    3  A    between atoms: C_10  and  C_11
REMARK    4  A    between atoms: C_15  and  O_16
REMARK    5  A    between atoms: O_16  and  C_17
REMARK                            x       y       z     vdW  Elec       q    Type
REMARK                         _______ _______ _______ _____ _____    ______ ____
ROOT
ATOM      1  C   UNL     1      15.540  41.997  44.749  0.00  0.00    +0.000 A 
ATOM      2  C   UNL     1      16.161  40.795  44.397  0.00  0.00    +0.000 A 
ATOM      3  C   UNL     1      16.266  39.737  45.308  0.00  0.00    +0.000 A 
ATOM      4  C   UNL     1      15.734  39.932  46.587  0.00  0.00    +0.000 A 
ATOM      5  N   UNL     1      15.697  39.086  47.669  0.00  0.00    +0.000 N 
ATOM      6  C   UNL     1      15.076  39.693  48.737  0.00  0.00    +0.000 A 
ATOM      7  C   UNL     1      14.715  40.961  48.328  0.00  0.00    +0.000 A 
ATOM      8  C   UNL     1      15.118  41.122  46.974  0.00  0.00    +0.000 A 
ATOM      9  C   UNL     1      15.022  42.174  46.042  0.00  0.00    +0.000 A 
ATOM     10  H   UNL     1      16.060  38.143  47.671  0.00  0.00    +0.000 HD
ENDROOT
BRANCH   1  12
ATOM     11  N   UNL     1      16.494  43.766  43.416  0.00  0.00    +0.000 NA
ATOM     12  C   UNL     1      15.438  43.092  43.737  0.00  0.00    +0.000 C 
ATOM     13  N   UNL     1      14.245  43.377  43.136  0.00  0.00    +0.000 N 
ATOM     14  H   UNL     1      16.250  44.494  42.743  0.00  0.00    +0.000 HD
ATOM     15  H   UNL     1      14.309  43.881  42.261  0.00  0.00    +0.000 HD
ATOM     16  H   UNL     1      13.597  42.598  43.064  0.00  0.00    +0.000 HD
ENDBRANCH   1  12
BRANCH   6  17
ATOM     17  C   UNL     1      14.903  39.008  50.056  0.00  0.00    +0.000 C 
BRANCH  17  18
ATOM     18  C   UNL     1      15.824  39.535  51.132  0.00  0.00    +0.000 A 
ATOM     19  C   UNL     1      17.213  39.365  51.024  0.00  0.00    +0.000 A 
ATOM     20  C   UNL     1      18.067  39.853  52.015  0.00  0.00    +0.000 A 
ATOM     21  C   UNL     1      17.545  40.525  53.119  0.00  0.00    +0.000 A 
ATOM     22  C   UNL     1      16.166  40.722  53.221  0.00  0.00    +0.000 A 
ATOM     23  C   UNL     1      15.308  40.214  52.244  0.00  0.00    +0.000 A 
BRANCH  22  24
ATOM     24  O   UNL     1      15.582  41.349  54.298  0.00  0.00    +0.000 OA
BRANCH  24  25
ATOM     25  C   UNL     1      14.989  42.572  54.077  0.00  0.00    +0.000 A 
ATOM     26  C   UNL     1      15.696  43.685  53.613  0.00  0.00    +0.000 A 
ATOM     27  C   UNL     1      15.021  44.883  53.374  0.00  0.00    +0.000 A 
ATOM     28  C   UNL     1      13.644  44.963  53.582  0.00  0.00    +0.000 A 
ATOM     29  C   UNL     1      12.937  43.844  54.023  0.00  0.00    +0.000 A 
ATOM     30  C   UNL     1      13.609  42.646  54.264  0.00  0.00    +0.000 A 
ENDBRANCH  24  25
ENDBRANCH  22  24
ENDBRANCH  17  18
ENDBRANCH   6  17
TORSDOF 5
ENDMDL
MODEL 2
REMARK VINA RESULT:    -6.423      6.146      9.708
REMARK INTER + INTRA:          -9.074
REMARK INTER:                  -8.335
REMARK INTRA:                  -0.739
REMARK UNBOUND:                -0.773
REMARK  Name = 
REMARK  5 active torsions:
REMARK  status: ('A' for Active; 'I' for Inactive)
REMARK    1  A    between atoms: C_2  and  C_4
REMARK    2  A    between atoms: C_9  and  C_10
REMARK    3  A    between atoms: C_10  and  C_11
REMARK    4  A    between atoms: C_15  and  O_16
REMARK    5  A    between atoms: O_16  and  C_17
REMARK                            x       y       z     vdW  Elec       q    Type
REMARK                         _______ _______ _______ _____ _____    ______ ____
ROOT
ATOM      1  C   UNL     1      22.280  33.775  56.078  0.00  0.00    +0.000 A 
ATOM      2  C   UNL     1      22.622  33.857  54.725  0.00  0.00    +0.000 A 
ATOM      3  C   UNL     1      21.732  34.383  53.781  0.00  0.00    +0.000 A 
ATOM      4  C   UNL     1      20.485  34.816  54.242  0.00  0.00    +0.000 A 
ATOM      5  N   UNL     1      19.427  35.363  53.554  0.00  0.00    +0.000 N 
ATOM      6  C   UNL     1      18.385  35.640  54.410  0.00  0.00    +0.000 A 
ATOM      7  C   UNL     1      18.785  35.254  55.673  0.00  0.00    +0.000 A 
ATOM      8  C   UNL     1      20.108  34.738  55.582  0.00  0.00    +0.000 A 
ATOM      9  C   UNL     1      21.018  34.206  56.517  0.00  0.00    +0.000 A 
ATOM     10  H   UNL     1      19.426  35.550  52.561  0.00  0.00    +0.000 HD
ENDROOT
BRANCH   1  12
ATOM     11  N   UNL     1      24.533  33.425  56.864  0.00  0.00    +0.000 NA
ATOM     12  C   UNL     1      23.270  33.220  57.051  0.00  0.00    +0.000 C 
ATOM     13  N   UNL     1      22.853  32.513  58.143  0.00  0.00    +0.000 N 
ATOM     14  H   UNL     1      25.073  32.953  57.591  0.00  0.00    +0.000 HD
ATOM     15  H   UNL     1      23.521  32.453  58.901  0.00  0.00    +0.000 HD
ATOM     16  H   UNL     1      21.927  32.749  58.486  0.00  0.00    +0.000 HD
ENDBRANCH   1  12
BRANCH   6  17
ATOM     17  C   UNL     1      17.097  36.233  53.934  0.00  0.00    +0.000 C 
BRANCH  17  18
ATOM     18  C   UNL     1      17.279  37.512  53.150  0.00  0.00    +0.000 A 
ATOM     19  C   UNL     1      17.465  37.473  51.759  0.00  0.00    +0.000 A 
ATOM     20  C   UNL     1      17.631  38.653  51.031  0.00  0.00    +0.000 A 
ATOM     21  C   UNL     1      17.602  39.885  51.681  0.00  0.00    +0.000 A 
ATOM     22  C   UNL     1      17.390  39.935  53.061  0.00  0.00    +0.000 A 
ATOM     23  C   UNL     1      17.248  38.756  53.795  0.00  0.00    +0.000 A 
BRANCH  22  24
ATOM     24  O   UNL     1      17.379  41.115  53.769  0.00  0.00    +0.000 OA
BRANCH  24  25
ATOM     25  C   UNL     1      16.235  41.879  53.715  0.00  0.00    +0.000 A 
ATOM     26  C   UNL     1      15.011  41.449  54.233  0.00  0.00    +0.000 A 
ATOM     27  C   UNL     1      13.901  42.293  54.179  0.00  0.00    +0.000 A 
ATOM     28  C   UNL     1      14.019  43.567  53.623  0.00  0.00    +0.000 A 
ATOM     29  C   UNL     1      15.248  44.004  53.127  0.00  0.00    +0.000 A 
ATOM     30  C   UNL     1      16.359  43.162  53.179  0.00  0.00    +0.000 A 
ENDBRANCH  24  25
ENDBRANCH  22  24
ENDBRANCH  17  18
ENDBRANCH   6  17
TORSDOF 5
ENDMDL
MODEL 3
REMARK VINA RESULT:    -6.288      7.433     11.065
REMARK INTER + INTRA:          -8.900
REMARK INTER:                  -8.127
REMARK INTRA:                  -0.773
REMARK UNBOUND:                -0.773
REMARK  Name = 
REMARK  5 active torsions:
REMARK  status: ('A' for Active; 'I' for Inactive)
REMARK    1  A    between atoms: C_2  and  C_4
REMARK    2  A    between atoms: C_9  and  C_10
REMARK    3  A    between atoms: C_10  and  C_11
REMARK    4  A    between atoms: C_15  and  O_16
REMARK    5  A    between atoms: O_16  and  C_17
REMARK                            x       y       z     vdW  Elec       q    Type
REMARK                         _______ _______ _______ _____ _____    ______ ____
ROOT
ATOM      1  C   UNL     1      17.044  40.320  57.960  0.00  0.00    +0.000 A 
ATOM      2  C   UNL     1      16.726  40.404  56.600  0.00  0.00    +0.000 A 
ATOM      3  C   UNL     1      16.887  39.305  55.748  0.00  0.00    +0.000 A 
ATOM      4  C   UNL     1      17.386  38.124  56.306  0.00  0.00    +0.000 A 
ATOM      5  N   UNL     1      17.647  36.908  55.719  0.00  0.00    +0.000 N 
ATOM      6  C   UNL     1      18.138  36.018  56.647  0.00  0.00    +0.000 A 
ATOM      7  C   UNL     1      18.199  36.684  57.854  0.00  0.00    +0.000 A 
ATOM      8  C   UNL     1      17.723  38.010  57.654  0.00  0.00    +0.000 A 
ATOM      9  C   UNL     1      17.554  39.127  58.496  0.00  0.00    +0.000 A 
ATOM     10  H   UNL     1      17.482  36.696  54.745  0.00  0.00    +0.000 HD
ENDROOT
BRANCH   1  12
ATOM     11  N   UNL     1      17.843  42.284  59.109  0.00  0.00    +0.000 NA
ATOM     12  C   UNL     1      16.840  41.516  58.833  0.00  0.00    +0.000 C 
ATOM     13  N   UNL     1      15.603  41.814  59.329  0.00  0.00    +0.000 N 
ATOM     14  H   UNL     1      17.546  43.029  59.741  0.00  0.00    +0.000 HD
ATOM     15  H   UNL     1      15.473  42.773  59.625  0.00  0.00    +0.000 HD
ATOM     16  H   UNL     1      14.820  41.495  58.766  0.00  0.00    +0.000 HD
ENDBRANCH   1  12
BRANCH   6  17
ATOM     17  C   UNL     1      18.520  34.617  56.286  0.00  0.00    +0.000 C 
BRANCH  17  18
ATOM     18  C   UNL     1      19.953  34.486  55.825  0.00  0.00    +0.000 A 
ATOM     19  C   UNL     1      21.011  34.706  56.720  0.00  0.00    +0.000 A 
ATOM     20  C   UNL     1      22.336  34.582  56.297  0.00  0.00    +0.000 A 
ATOM     21  C   UNL     1      22.619  34.228  54.979  0.00  0.00    +0.000 A 
ATOM     22  C   UNL     1      21.572  33.981  54.089  0.00  0.00    +0.000 A 
ATOM     23  C   UNL     1      20.247  34.127  54.502  0.00  0.00    +0.000 A 
BRANCH  22  24
ATOM     24  O   UNL     1      21.781  33.656  52.767  0.00  0.00    +0.000 OA
BRANCH  24  25
ATOM     25  C   UNL     1      21.077  34.365  51.820  0.00  0.00    +0.000 A 
ATOM     26  C   UNL     1      20.289  33.750  50.844  0.00  0.00    +0.000 A 
ATOM     27  C   UNL     1      19.571  34.534  49.939  0.00  0.00    +0.000 A 
ATOM     28  C   UNL     1      19.628  35.925  50.021  0.00  0.00    +0.000 A 
ATOM     29  C   UNL     1      20.397  36.537  51.011  0.00  0.00    +0.000 A 
ATOM     30  C   UNL     1      21.116  35.756  51.916  0.00  0.00    +0.000 A 
ENDBRANCH  24  25
ENDBRANCH  22  24
ENDBRANCH  17  18
ENDBRANCH   6  17
TORSDOF 5
ENDMDL
