MODEL 1
REMARK VINA RESULT:    -7.257      0.000      0.000
REMARK INTER + INTRA:         -12.505
REMARK INTER:                 -10.937
REMARK INTRA:                  -1.568
REMARK UNBOUND:                -1.854
REMARK  Name = 
REMARK  8 active torsions:
REMARK  status: ('A' for Active; 'I' for Inactive)
REMARK    1  A    between atoms: C_2  and  C_3
REMARK    2  A    between atoms: C_3  and  C_4
REMARK    3  A    between atoms: N_10  and  C_11
REMARK    4  A    between atoms: C_11  and  C_12
REMARK    5  A    between atoms: C_15  and  C_16
REMARK    6  A    between atoms: N_18  and  C_19
REMARK    7  A    between atoms: C_29  and  C_30
REMARK    8  A    between atoms: C_30  and  C_31
REMARK                            x       y       z     vdW  Elec       q    Type
REMARK                         _______ _______ _______ _____ _____    ______ ____
ROOT
ATOM      1  C   UNL     1      15.159  38.815  48.704  0.00  0.00    +0.000 C 
ATOM      2  O   UNL     1      14.687  37.682  48.766  0.00  0.00    +0.000 OA
ATOM      3  N   UNL     1      15.998  39.328  49.668  0.00  0.00    +0.000 N 
ATOM      4  H   UNL     1      16.226  40.313  49.636  0.00  0.00    +0.000 HD
ENDROOT
BRANCH   3   5
ATOM      5  C   UNL     1      16.339  38.578  50.875  0.00  0.00    +0.000 C 
ATOM      6  C   UNL     1      17.808  38.148  50.826  0.00  0.00    +0.000 C 
ATOM      7  C   UNL     1      18.129  37.195  51.971  0.00  0.00    +0.000 C 
ATOM      8  C   UNL     1      17.528  37.592  53.296  0.00  0.00    +0.000 A 
ATOM      9  C   UNL     1      17.952  36.910  54.448  0.00  0.00    +0.000 A 
ATOM     10  C   UNL     1      17.378  37.190  55.681  0.00  0.00    +0.000 A 
ATOM     11  F   UNL     1      17.799  36.530  56.769  0.00  0.00    +0.000 F 
ATOM     12  C   UNL     1      16.365  38.129  55.797  0.00  0.00    +0.000 A 
ATOM     13  C   UNL     1      15.925  38.805  54.660  0.00  0.00    +0.000 A 
ATOM     14  C   UNL     1      16.507  38.560  53.402  0.00  0.00    +0.000 A 
ATOM     15  C   UNL     1      16.037  39.360  52.189  0.00  0.00    +0.000 C 
BRANCH  15  16
ATOM     16  C   UNL     1      16.684  40.774  52.183  0.00  0.00    +0.000 C 
BRANCH  16  17
ATOM     17  C   UNL     1      15.793  41.889  52.673  0.00  0.00    +0.000 A 
ATOM     18  C   UNL     1      14.424  41.687  52.875  0.00  0.00    +0.000 A 
ATOM     19  C   UNL     1      13.635  42.735  53.340  0.00  0.00    +0.000 A 
ATOM     20  C   UNL     1      14.242  43.956  53.586  0.00  0.00    +0.000 A 
ATOM     21  N   UNL     1      15.555  44.193  53.388  0.00  0.00    +0.000 NA
ATOM     22  C   UNL     1      16.302  43.156  52.943  0.00  0.00    +0.000 A 
ENDBRANCH  16  17
ENDBRANCH  15  16
ENDBRANCH   3   5
BRANCH   1  26
ATOM     23  C   UNL     1      15.175  42.275  46.009  0.00  0.00    +0.000 C 
ATOM     24  C   UNL     1      13.982  42.070  46.957  0.00  0.00    +0.000 C 
ATOM     25  C   UNL     1      14.323  41.110  48.093  0.00  0.00    +0.000 C 
ATOM     26  C   UNL     1      14.819  39.762  47.558  0.00  0.00    +0.000 C 
ATOM     27  C   UNL     1      15.995  39.943  46.591  0.00  0.00    +0.000 C 
ATOM     28  C   UNL     1      15.658  40.921  45.463  0.00  0.00    +0.000 C 
BRANCH  23  29
ATOM     29  C   UNL     1      14.794  43.248  44.883  0.00  0.00    +0.000 C 
BRANCH  29  32
ATOM     30  O   UNL     1      13.549  45.393  43.553  0.00  0.00    +0.000 OA
ATOM     31  C   UNL     1      14.201  45.618  44.572  0.00  0.00    +0.000 C 
ATOM     32  N   UNL     1      14.799  44.628  45.335  0.00  0.00    +0.000 N 
ATOM     33  H   UNL     1      15.583  44.923  45.904  0.00  0.00    +0.000 HD
BRANCH  31  34
ATOM     34  C   UNL     1      14.414  47.023  45.111  0.00  0.00    +0.000 C 
BRANCH  34  35
ATOM     35  C   UNL     1      13.191  47.570  45.803  0.00  0.00    +0.000 A 
ATOM     36  C   UNL     1      12.961  48.955  45.835  0.00  0.00    +0.000 A 
ATOM     37  C   UNL     1      11.830  49.474  46.470  0.00  0.00    +0.000 A 
ATOM     38  C   UNL     1      10.920  48.615  47.084  0.00  0.00    +0.000 A 
ATOM     39  C   UNL     1      11.144  47.238  47.072  0.00  0.00    +0.000 A 
ATOM     40  C   UNL     1      12.275  46.717  46.434  0.00  0.00    +0.000 A 
ENDBRANCH  34  35
ENDBRANCH  31  34
ENDBRANCH  29  32
ENDBRANCH  23  29
ENDBRANCH   1  26
TORSDOF 8
ENDMDL
MODEL 2
REMARK VINA RESULT:    -6.989      4.645      9.602
REMARK INTER + INTRA:         -12.113
REMARK INTER:                  -9.188
REMARK INTRA:                  -2.925
REMARK UNBOUND:                -1.854
REMARK  Name = 
REMARK  8 active torsions:
REMARK  status: ('A' for Active; 'I' for Inactive)
REMARK    1  A    between atoms: C_2  and  C_3
REMARK    2  A    between atoms: C_3  and  C_4
REMARK    3  A    between atoms: N_10  and  C_11
REMARK    4  A    between atoms: C_11  and  C_12
REMARK    5  A    between atoms: C_15  and  C_16
REMARK    6  A    between atoms: N_18  and  C_19
REMARK    7  A    between atoms: C_29  and  C_30
REMARK    8  A    between atoms: C_30  and  C_31
REMARK                            x       y       z     vdW  Elec       q    Type
REMARK                         _______ _______ _______ _____ _____    ______ ____
ROOT
ATOM      1  C   UNL     1      13.358  40.005  47.731  0.00  0.00    +0.000 C 
ATOM      2  O   UNL     1      12.536  39.531  46.950  0.00  0.00    +0.000 OA
ATOM      3  N   UNL     1      14.585  40.481  47.326  0.00  0.00    +0.000 N 
ATOM      4  H   UNL     1      15.271  40.713  48.033  0.00  0.00    +0.000 HD
ENDROOT
BRANCH   3   5
ATOM      5  C   UNL     1      15.027  40.397  45.935  0.00  0.00    +0.000 C 
ATOM      6  C   UNL     1      15.653  41.726  45.505  0.00  0.00    +0.000 C 
ATOM      7  C   UNL     1      15.933  41.731  44.007  0.00  0.00    +0.000 C 
ATOM      8  C   UNL     1      16.517  40.443  43.481  0.00  0.00    +0.000 A 
ATOM      9  C   UNL     1      17.017  40.429  42.169  0.00  0.00    +0.000 A 
ATOM     10  C   UNL     1      17.501  39.251  41.615  0.00  0.00    +0.000 A 
ATOM     11  F   UNL     1      17.978  39.259  40.362  0.00  0.00    +0.000 F 
ATOM     12  C   UNL     1      17.481  38.066  42.334  0.00  0.00    +0.000 A 
ATOM     13  C   UNL     1      16.975  38.062  43.633  0.00  0.00    +0.000 A 
ATOM     14  C   UNL     1      16.503  39.247  44.228  0.00  0.00    +0.000 A 
ATOM     15  C   UNL     1      16.007  39.214  45.673  0.00  0.00    +0.000 C 
BRANCH  15  16
ATOM     16  C   UNL     1      17.207  39.226  46.662  0.00  0.00    +0.000 C 
BRANCH  16  17
ATOM     17  C   UNL     1      17.352  37.987  47.510  0.00  0.00    +0.000 A 
ATOM     18  C   UNL     1      16.852  37.940  48.815  0.00  0.00    +0.000 A 
ATOM     19  C   UNL     1      16.992  36.775  49.564  0.00  0.00    +0.000 A 
ATOM     20  C   UNL     1      17.632  35.693  48.983  0.00  0.00    +0.000 A 
ATOM     21  N   UNL     1      18.141  35.706  47.734  0.00  0.00    +0.000 NA
ATOM     22  C   UNL     1      17.985  36.847  47.024  0.00  0.00    +0.000 A 
ENDBRANCH  16  17
ENDBRANCH  15  16
ENDBRANCH   3   5
BRANCH   1  26
ATOM     23  C   UNL     1      13.076  41.467  51.857  0.00  0.00    +0.000 C 
ATOM     24  C   UNL     1      14.136  40.410  51.508  0.00  0.00    +0.000 C 
ATOM     25  C   UNL     1      14.388  40.338  50.005  0.00  0.00    +0.000 C 
ATOM     26  C   UNL     1      13.092  40.072  49.231  0.00  0.00    +0.000 C 
ATOM     27  C   UNL     1      12.011  41.100  49.581  0.00  0.00    +0.000 C 
ATOM     28  C   UNL     1      11.773  41.185  51.090  0.00  0.00    +0.000 C 
BRANCH  23  29
ATOM     29  C   UNL     1      12.854  41.512  53.376  0.00  0.00    +0.000 C 
BRANCH  29  32
ATOM     30  O   UNL     1      14.877  42.797  54.850  0.00  0.00    +0.000 OA
ATOM     31  C   UNL     1      14.898  41.571  54.748  0.00  0.00    +0.000 C 
ATOM     32  N   UNL     1      13.918  40.839  54.099  0.00  0.00    +0.000 N 
ATOM     33  H   UNL     1      14.200  39.928  53.759  0.00  0.00    +0.000 HD
BRANCH  31  34
ATOM     34  C   UNL     1      16.012  40.723  55.338  0.00  0.00    +0.000 C 
BRANCH  34  35
ATOM     35  C   UNL     1      16.788  39.972  54.285  0.00  0.00    +0.000 A 
ATOM     36  C   UNL     1      17.450  40.674  53.265  0.00  0.00    +0.000 A 
ATOM     37  C   UNL     1      18.176  39.990  52.286  0.00  0.00    +0.000 A 
ATOM     38  C   UNL     1      18.241  38.598  52.312  0.00  0.00    +0.000 A 
ATOM     39  C   UNL     1      17.575  37.889  53.312  0.00  0.00    +0.000 A 
ATOM     40  C   UNL     1      16.851  38.573  54.295  0.00  0.00    +0.000 A 
ENDBRANCH  34  35
ENDBRANCH  31  34
ENDBRANCH  29  32
ENDBRANCH  23  29
ENDBRANCH   1  26
TORSDOF 8
ENDMDL
MODEL 3
REMARK VINA RESULT:    -6.907      1.920      2.912
REMARK INTER + INTRA:         -11.992
REMARK INTER:                 -10.138
REMARK INTRA:                  -1.854
REMARK UNBOUND:                -1.854
REMARK  Name = 
REMARK  8 active torsions:
REMARK  status: ('A' for Active; 'I' for Inactive)
REMARK    1  A    between atoms: C_2  and  C_3
REMARK    2  A    between atoms: C_3  and  C_4
REMARK    3  A    between atoms: N_10  and  C_11
REMARK    4  A    between atoms: C_11  and  C_12
REMARK    5  A    between atoms: C_15  and  C_16
REMARK    6  A    between atoms: N_18  and  C_19
REMARK    7  A    between atoms: C_29  and  C_30
REMARK    8  A    between atoms: C_30  and  C_31
REMARK                            x       y       z     vdW  Elec       q    Type
REMARK                         _______ _______ _______ _____ _____    ______ ____
ROOT
ATOM      1  C   UNL     1      17.014  37.452  48.866  0.00  0.00    +0.000 C 
ATOM      2  O   UNL     1      16.026  36.798  49.189  0.00  0.00    +0.000 OA
ATOM      3  N   UNL     1      18.201  37.409  49.564  0.00  0.00    +0.000 N 
ATOM      4  H   UNL     1      18.920  38.084  49.338  0.00  0.00    +0.000 HD
ENDROOT
BRANCH   3   5
ATOM      5  C   UNL     1      18.350  36.624  50.788  0.00  0.00    +0.000 C 
ATOM      6  C   UNL     1      19.806  36.182  50.951  0.00  0.00    +0.000 C 
ATOM      7  C   UNL     1      19.945  35.196  52.104  0.00  0.00    +0.000 C 
ATOM      8  C   UNL     1      19.149  35.562  53.333  0.00  0.00    +0.000 A 
ATOM      9  C   UNL     1      19.390  34.844  54.516  0.00  0.00    +0.000 A 
ATOM     10  C   UNL     1      18.635  35.096  55.655  0.00  0.00    +0.000 A 
ATOM     11  F   UNL     1      18.882  34.403  56.775  0.00  0.00    +0.000 F 
ATOM     12  C   UNL     1      17.620  36.040  55.641  0.00  0.00    +0.000 A 
ATOM     13  C   UNL     1      17.362  36.751  54.470  0.00  0.00    +0.000 A 
ATOM     14  C   UNL     1      18.129  36.535  53.309  0.00  0.00    +0.000 A 
ATOM     15  C   UNL     1      17.853  37.372  52.062  0.00  0.00    +0.000 C 
BRANCH  15  16
ATOM     16  C   UNL     1      18.499  38.780  52.195  0.00  0.00    +0.000 C 
BRANCH  16  17
ATOM     17  C   UNL     1      17.524  39.924  52.321  0.00  0.00    +0.000 A 
ATOM     18  C   UNL     1      16.614  40.216  51.300  0.00  0.00    +0.000 A 
ATOM     19  C   UNL     1      15.720  41.271  51.456  0.00  0.00    +0.000 A 
ATOM     20  C   UNL     1      15.767  42.004  52.630  0.00  0.00    +0.000 A 
ATOM     21  N   UNL     1      16.640  41.763  53.629  0.00  0.00    +0.000 NA
ATOM     22  C   UNL     1      17.493  40.727  53.457  0.00  0.00    +0.000 A 
ENDBRANCH  16  17
ENDBRANCH  15  16
ENDBRANCH   3   5
BRANCH   1  26
ATOM     23  C   UNL     1      15.798  39.473  45.168  0.00  0.00    +0.000 C 
ATOM     24  C   UNL     1      17.029  38.554  45.148  0.00  0.00    +0.000 C 
ATOM     25  C   UNL     1      17.054  37.618  46.353  0.00  0.00    +0.000 C 
ATOM     26  C   UNL     1      16.991  38.400  47.670  0.00  0.00    +0.000 C 
ATOM     27  C   UNL     1      15.783  39.343  47.704  0.00  0.00    +0.000 C 
ATOM     28  C   UNL     1      15.749  40.266  46.485  0.00  0.00    +0.000 C 
BRANCH  23  29
ATOM     29  C   UNL     1      15.807  40.395  43.939  0.00  0.00    +0.000 C 
BRANCH  29  32
ATOM     30  O   UNL     1      14.202  42.426  42.836  0.00  0.00    +0.000 OA
ATOM     31  C   UNL     1      15.060  42.726  43.665  0.00  0.00    +0.000 C 
ATOM     32  N   UNL     1      15.857  41.797  44.313  0.00  0.00    +0.000 N 
ATOM     33  H   UNL     1      16.738  42.145  44.672  0.00  0.00    +0.000 HD
BRANCH  31  34
ATOM     34  C   UNL     1      15.332  44.164  44.075  0.00  0.00    +0.000 C 
BRANCH  34  35
ATOM     35  C   UNL     1      14.262  44.720  44.980  0.00  0.00    +0.000 A 
ATOM     36  C   UNL     1      14.079  46.109  45.081  0.00  0.00    +0.000 A 
ATOM     37  C   UNL     1      13.090  46.637  45.913  0.00  0.00    +0.000 A 
ATOM     38  C   UNL     1      12.277  45.784  46.658  0.00  0.00    +0.000 A 
ATOM     39  C   UNL     1      12.457  44.403  46.577  0.00  0.00    +0.000 A 
ATOM     40  C   UNL     1      13.446  43.873  45.741  0.00  0.00    +0.000 A 
ENDBRANCH  34  35
ENDBRANCH  31  34
ENDBRANCH  29  32
ENDBRANCH  23  29
ENDBRANCH   1  26
TORSDOF 8
ENDMDL
