MODEL 1
REMARK VINA RESULT:    -7.242      0.000      0.000
REMARK INTER + INTRA:         -10.241
REMARK INTER:                  -8.156
REMARK INTRA:                  -2.085
REMARK UNBOUND:                -0.459
REMARK  Name = 
REMARK  7 active torsions:
REMARK  status: ('A' for Active; 'I' for Inactive)
REMARK    1  A    between atoms: C_1  and  C_2
REMARK    2  A    between atoms: C_2  and  C_3
REMARK    3  A    between atoms: C_3  and  C_4
REMARK    4  A    between atoms: N_6  and  C_7
REMARK    5  A    between atoms: C_7  and  C_8
REMARK    6  A    between atoms: C_8  and  N_9
REMARK    7  A    between atoms: C_35  and  C_36
REMARK                            x       y       z     vdW  Elec       q    Type
REMARK                         _______ _______ _______ _____ _____    ______ ____
ROOT
ATOM      1  C   UNL     1      12.622  45.302  45.154  0.00  0.00    +0.000 C 
ATOM      2  O   UNL     1      12.132  46.062  44.014  0.00  0.00    +0.000 OA
ATOM      3  C   UNL     1      12.551  45.506  42.844  0.00  0.00    +0.000 C 
ATOM      4  O   UNL     1      12.200  45.875  41.741  0.00  0.00    +0.000 OA
ATOM      5  C   UNL     1      13.453  44.413  43.164  0.00  0.00    +0.000 A 
ATOM      6  C   UNL     1      13.526  44.315  44.497  0.00  0.00    +0.000 A 
ATOM      7  C   UNL     1      14.275  43.243  45.115  0.00  0.00    +0.000 A 
ATOM      8  C   UNL     1      14.883  42.363  44.308  0.00  0.00    +0.000 A 
ATOM      9  N   UNL     1      14.812  42.473  42.934  0.00  0.00    +0.000 N 
ATOM     10  C   UNL     1      14.121  43.459  42.261  0.00  0.00    +0.000 A 
ATOM     11  O   UNL     1      14.043  43.518  41.043  0.00  0.00    +0.000 OA
ATOM     12  C   UNL     1      15.532  41.382  42.274  0.00  0.00    +0.000 C 
ATOM     13  C   UNL     1      16.026  40.547  43.425  0.00  0.00    +0.000 A 
ATOM     14  C   UNL     1      15.652  41.163  44.619  0.00  0.00    +0.000 A 
ATOM     15  N   UNL     1      15.900  40.723  45.853  0.00  0.00    +0.000 NA
ATOM     16  C   UNL     1      16.547  39.553  45.931  0.00  0.00    +0.000 A 
ATOM     17  C   UNL     1      16.795  39.068  47.206  0.00  0.00    +0.000 A 
ATOM     18  C   UNL     1      17.423  37.841  47.423  0.00  0.00    +0.000 A 
ATOM     19  C   UNL     1      17.805  37.073  46.340  0.00  0.00    +0.000 A 
ATOM     20  C   UNL     1      17.577  37.541  45.043  0.00  0.00    +0.000 A 
ATOM     21  C   UNL     1      16.961  38.794  44.790  0.00  0.00    +0.000 A 
ATOM     22  C   UNL     1      16.716  39.336  43.476  0.00  0.00    +0.000 A 
ENDROOT
BRANCH  22  23
ATOM     23  C   UNL     1      17.142  38.582  42.217  0.00  0.00    +0.000 C 
ATOM     24  C   UNL     1      15.921  38.014  41.471  0.00  0.00    +0.000 C 
ATOM     25  C   UNL     1      16.343  37.154  40.278  0.00  0.00    +0.000 C 
ATOM     26  C   UNL     1      17.292  37.896  39.341  0.00  0.00    +0.000 C 
ATOM     27  C   UNL     1      18.502  38.456  40.088  0.00  0.00    +0.000 C 
ATOM     28  C   UNL     1      18.060  39.349  41.247  0.00  0.00    +0.000 C 
ENDBRANCH  22  23
BRANCH   1  29
ATOM     29  C   UNL     1      11.307  44.700  45.756  0.00  0.00    +0.000 C 
ATOM     30  O   UNL     1      10.323  44.435  45.065  0.00  0.00    +0.000 OA
ATOM     31  N   UNL     1      11.355  44.382  47.102  0.00  0.00    +0.000 N 
ATOM     32  H   UNL     1      12.265  44.259  47.534  0.00  0.00    +0.000 HD
BRANCH  31  33
ATOM     33  C   UNL     1      10.359  43.524  47.727  0.00  0.00    +0.000 C 
BRANCH  33  34
ATOM     34  C   UNL     1      11.064  42.279  48.303  0.00  0.00    +0.000 C 
BRANCH  34  35
ATOM     35  N   UNL     1      12.077  41.743  47.354  0.00  0.00    +0.000 NA
ATOM     36  C   UNL     1      11.462  40.791  46.390  0.00  0.00    +0.000 C 
ATOM     37  C   UNL     1      12.465  39.747  45.870  0.00  0.00    +0.000 C 
ATOM     38  O   UNL     1      12.959  38.901  46.915  0.00  0.00    +0.000 OA
ATOM     39  C   UNL     1      13.079  39.571  48.176  0.00  0.00    +0.000 C 
ATOM     40  C   UNL     1      13.209  41.098  48.058  0.00  0.00    +0.000 C 
ENDBRANCH  34  35
ENDBRANCH  33  34
ENDBRANCH  31  33
ENDBRANCH   1  29
BRANCH   1  42
ATOM     41  C   UNL     1      14.425  47.124  45.492  0.00  0.00    +0.000 C 
ATOM     42  C   UNL     1      13.282  46.322  46.097  0.00  0.00    +0.000 C 
ENDBRANCH   1  42
TORSDOF 6
ENDMDL
MODEL 2
REMARK VINA RESULT:    -7.172      3.467      8.307
REMARK INTER + INTRA:         -10.146
REMARK INTER:                  -8.301
REMARK INTRA:                  -1.845
REMARK UNBOUND:                -0.459
REMARK  Name = 
REMARK  7 active torsions:
REMARK  status: ('A' for Active; 'I' for Inactive)
REMARK    1  A    between atoms: C_1  and  C_2
REMARK    2  A    between atoms: C_2  and  C_3
REMARK    3  A    between atoms: C_3  and  C_4
REMARK    4  A    between atoms: N_6  and  C_7
REMARK    5  A    between atoms: C_7  and  C_8
REMARK    6  A    between atoms: C_8  and  N_9
REMARK    7  A    between atoms: C_35  and  C_36
REMARK                            x       y       z     vdW  Elec       q    Type
REMARK                         _______ _______ _______ _____ _____    ______ ____
ROOT
ATOM      1  C   UNL     1      18.591  38.156  38.867  0.00  0.00    +0.000 C 
ATOM      2  O   UNL     1      19.110  36.798  38.773  0.00  0.00    +0.000 OA
ATOM      3  C   UNL     1      19.022  36.162  39.974  0.00  0.00    +0.000 C 
ATOM      4  O   UNL     1      19.284  34.989  40.153  0.00  0.00    +0.000 OA
ATOM      5  C   UNL     1      18.552  37.123  40.958  0.00  0.00    +0.000 A 
ATOM      6  C   UNL     1      18.338  38.285  40.330  0.00  0.00    +0.000 A 
ATOM      7  C   UNL     1      17.766  39.408  41.040  0.00  0.00    +0.000 A 
ATOM      8  C   UNL     1      17.463  39.238  42.333  0.00  0.00    +0.000 A 
ATOM      9  N   UNL     1      17.693  38.040  42.979  0.00  0.00    +0.000 N 
ATOM     10  C   UNL     1      18.232  36.919  42.382  0.00  0.00    +0.000 A 
ATOM     11  O   UNL     1      18.397  35.858  42.963  0.00  0.00    +0.000 OA
ATOM     12  C   UNL     1      17.255  38.094  44.375  0.00  0.00    +0.000 C 
ATOM     13  C   UNL     1      16.675  39.476  44.503  0.00  0.00    +0.000 A 
ATOM     14  C   UNL     1      16.834  40.144  43.288  0.00  0.00    +0.000 A 
ATOM     15  N   UNL     1      16.440  41.386  43.006  0.00  0.00    +0.000 NA
ATOM     16  C   UNL     1      15.801  42.029  43.992  0.00  0.00    +0.000 A 
ATOM     17  C   UNL     1      15.364  43.314  43.710  0.00  0.00    +0.000 A 
ATOM     18  C   UNL     1      14.650  44.074  44.636  0.00  0.00    +0.000 A 
ATOM     19  C   UNL     1      14.354  43.534  45.874  0.00  0.00    +0.000 A 
ATOM     20  C   UNL     1      14.789  42.245  46.189  0.00  0.00    +0.000 A 
ATOM     21  C   UNL     1      15.537  41.456  45.276  0.00  0.00    +0.000 A 
ATOM     22  C   UNL     1      16.028  40.128  45.553  0.00  0.00    +0.000 A 
ENDROOT
BRANCH  22  23
ATOM     23  C   UNL     1      15.790  39.462  46.908  0.00  0.00    +0.000 C 
ATOM     24  C   UNL     1      14.656  38.425  46.824  0.00  0.00    +0.000 C 
ATOM     25  C   UNL     1      14.327  37.842  48.200  0.00  0.00    +0.000 C 
ATOM     26  C   UNL     1      15.564  37.283  48.899  0.00  0.00    +0.000 C 
ATOM     27  C   UNL     1      16.686  38.318  48.979  0.00  0.00    +0.000 C 
ATOM     28  C   UNL     1      17.030  38.854  47.590  0.00  0.00    +0.000 C 
ENDBRANCH  22  23
BRANCH   1  29
ATOM     29  C   UNL     1      17.306  38.094  37.973  0.00  0.00    +0.000 C 
ATOM     30  O   UNL     1      17.215  37.351  36.994  0.00  0.00    +0.000 OA
ATOM     31  N   UNL     1      16.233  38.849  38.413  0.00  0.00    +0.000 N 
ATOM     32  H   UNL     1      16.213  39.132  39.387  0.00  0.00    +0.000 HD
BRANCH  31  33
ATOM     33  C   UNL     1      14.887  38.646  37.900  0.00  0.00    +0.000 C 
BRANCH  33  34
ATOM     34  C   UNL     1      13.920  39.586  38.647  0.00  0.00    +0.000 C 
BRANCH  34  35
ATOM     35  N   UNL     1      14.343  39.787  40.060  0.00  0.00    +0.000 NA
ATOM     36  C   UNL     1      13.533  38.951  40.988  0.00  0.00    +0.000 C 
ATOM     37  C   UNL     1      13.432  39.561  42.396  0.00  0.00    +0.000 C 
ATOM     38  O   UNL     1      12.755  40.823  42.394  0.00  0.00    +0.000 OA
ATOM     39  C   UNL     1      12.983  41.587  41.203  0.00  0.00    +0.000 C 
ATOM     40  C   UNL     1      14.277  41.209  40.463  0.00  0.00    +0.000 C 
ENDBRANCH  34  35
ENDBRANCH  33  34
ENDBRANCH  31  33
ENDBRANCH   1  29
BRANCH   1  42
ATOM     41  C   UNL     1      20.566  38.422  37.220  0.00  0.00    +0.000 C 
ATOM     42  C   UNL     1      19.674  39.070  38.269  0.00  0.00    +0.000 C 
ENDBRANCH   1  42
TORSDOF 6
ENDMDL
MODEL 3
REMARK VINA RESULT:    -7.086      3.395      8.388
REMARK INTER + INTRA:         -10.030
REMARK INTER:                  -9.571
REMARK INTRA:                  -0.459
REMARK UNBOUND:                -0.459
REMARK  Name = 
REMARK  7 active torsions:
REMARK  status: ('A' for Active; 'I' for Inactive)
REMARK    1  A    between atoms: C_1  and  C_2
REMARK    2  A    between atoms: C_2  and  C_3
REMARK    3  A    between atoms: C_3  and  C_4
REMARK    4  A    between atoms: N_6  and  C_7
REMARK    5  A    between atoms: C_7  and  C_8
REMARK    6  A    between atoms: C_8  and  N_9
REMARK    7  A    between atoms: C_35  and  C_36
REMARK                            x       y       z     vdW  Elec       q    Type
REMARK                         _______ _______ _______ _____ _____    ______ ____
ROOT
ATOM      1  C   UNL     1      13.785  39.824  46.609  0.00  0.00    +0.000 C 
ATOM      2  O   UNL     1      14.894  39.157  45.941  0.00  0.00    +0.000 OA
ATOM      3  C   UNL     1      15.632  40.047  45.222  0.00  0.00    +0.000 C 
ATOM      4  O   UNL     1      16.673  39.779  44.655  0.00  0.00    +0.000 OA
ATOM      5  C   UNL     1      14.964  41.336  45.280  0.00  0.00    +0.000 A 
ATOM      6  C   UNL     1      13.876  41.203  46.049  0.00  0.00    +0.000 A 
ATOM      7  C   UNL     1      13.062  42.352  46.375  0.00  0.00    +0.000 A 
ATOM      8  C   UNL     1      13.437  43.540  45.882  0.00  0.00    +0.000 A 
ATOM      9  N   UNL     1      14.554  43.672  45.083  0.00  0.00    +0.000 N 
ATOM     10  C   UNL     1      15.388  42.633  44.723  0.00  0.00    +0.000 A 
ATOM     11  O   UNL     1      16.391  42.777  44.042  0.00  0.00    +0.000 OA
ATOM     12  C   UNL     1      14.770  45.067  44.693  0.00  0.00    +0.000 C 
ATOM     13  C   UNL     1      13.660  45.799  45.397  0.00  0.00    +0.000 A 
ATOM     14  C   UNL     1      12.868  44.870  46.073  0.00  0.00    +0.000 A 
ATOM     15  N   UNL     1      11.793  45.132  46.818  0.00  0.00    +0.000 NA
ATOM     16  C   UNL     1      11.479  46.429  46.943  0.00  0.00    +0.000 A 
ATOM     17  C   UNL     1      10.377  46.724  47.731  0.00  0.00    +0.000 A 
ATOM     18  C   UNL     1       9.970  48.035  47.976  0.00  0.00    +0.000 A 
ATOM     19  C   UNL     1      10.687  49.082  47.426  0.00  0.00    +0.000 A 
ATOM     20  C   UNL     1      11.796  48.815  46.619  0.00  0.00    +0.000 A 
ATOM     21  C   UNL     1      12.221  47.490  46.335  0.00  0.00    +0.000 A 
ATOM     22  C   UNL     1      13.344  47.154  45.495  0.00  0.00    +0.000 A 
ENDROOT
BRANCH  22  23
ATOM     23  C   UNL     1      14.173  48.239  44.808  0.00  0.00    +0.000 C 
ATOM     24  C   UNL     1      13.289  49.424  44.380  0.00  0.00    +0.000 C 
ATOM     25  C   UNL     1      14.086  50.458  43.582  0.00  0.00    +0.000 C 
ATOM     26  C   UNL     1      15.339  50.916  44.324  0.00  0.00    +0.000 C 
ATOM     27  C   UNL     1      16.212  49.735  44.746  0.00  0.00    +0.000 C 
ATOM     28  C   UNL     1      15.409  48.737  45.579  0.00  0.00    +0.000 C 
ENDBRANCH  22  23
BRANCH   1  29
ATOM     29  C   UNL     1      14.168  39.694  48.122  0.00  0.00    +0.000 C 
ATOM     30  O   UNL     1      13.549  40.277  49.014  0.00  0.00    +0.000 OA
ATOM     31  N   UNL     1      15.182  38.798  48.410  0.00  0.00    +0.000 N 
ATOM     32  H   UNL     1      15.397  38.082  47.724  0.00  0.00    +0.000 HD
BRANCH  31  33
ATOM     33  C   UNL     1      15.426  38.318  49.761  0.00  0.00    +0.000 C 
BRANCH  33  34
ATOM     34  C   UNL     1      16.494  39.210  50.424  0.00  0.00    +0.000 C 
BRANCH  34  35
ATOM     35  N   UNL     1      15.978  39.838  51.671  0.00  0.00    +0.000 NA
ATOM     36  C   UNL     1      16.564  41.192  51.874  0.00  0.00    +0.000 C 
ATOM     37  C   UNL     1      16.625  41.591  53.358  0.00  0.00    +0.000 C 
ATOM     38  O   UNL     1      17.483  40.731  54.117  0.00  0.00    +0.000 OA
ATOM     39  C   UNL     1      17.484  39.377  53.650  0.00  0.00    +0.000 C 
ATOM     40  C   UNL     1      16.222  38.992  52.860  0.00  0.00    +0.000 C 
ENDBRANCH  34  35
ENDBRANCH  33  34
ENDBRANCH  31  33
ENDBRANCH   1  29
BRANCH   1  42
ATOM     41  C   UNL     1      12.707  37.506  46.225  0.00  0.00    +0.000 C 
ATOM     42  C   UNL     1      12.525  39.016  46.255  0.00  0.00    +0.000 C 
ENDBRANCH   1  42
TORSDOF 6
ENDMDL
