MODEL 1
REMARK VINA RESULT:    -6.813      0.000      0.000
REMARK INTER + INTRA:          -9.707
REMARK INTER:                  -8.882
REMARK INTRA:                  -0.825
REMARK UNBOUND:                -0.903
REMARK  Name = 
REMARK  5 active torsions:
REMARK  status: ('A' for Active; 'I' for Inactive)
REMARK    1  A    between atoms: C_3  and  C_4
REMARK    2  A    between atoms: C_11  and  C_12
REMARK    3  A    between atoms: C_12  and  C_13
REMARK    4  A    between atoms: N_17  and  C_18
REMARK    5  A    between atoms: C_21  and  C_22
REMARK                            x       y       z     vdW  Elec       q    Type
REMARK                         _______ _______ _______ _____ _____    ______ ____
ROOT
ATOM      1  C   UNL     1      19.475  36.352  52.137  0.00  0.00    +0.000 C 
ATOM      2  C   UNL     1      20.572  36.587  51.076  0.00  0.00    +0.000 C 
ATOM      3  C   UNL     1      21.272  35.292  50.672  0.00  0.00    +0.000 C 
ATOM      4  C   UNL     1      21.873  34.570  51.887  0.00  0.00    +0.000 C 
ATOM      5  N   UNL     1      21.024  34.720  53.077  0.00  0.00    +0.000 N 
ATOM      6  C   UNL     1      19.605  34.969  52.804  0.00  0.00    +0.000 C 
ENDROOT
BRANCH   5   7
ATOM      7  C   UNL     1      21.435  34.223  54.307  0.00  0.00    +0.000 A 
ATOM      8  C   UNL     1      20.561  33.492  55.131  0.00  0.00    +0.000 A 
ATOM      9  C   UNL     1      20.953  32.995  56.382  0.00  0.00    +0.000 A 
ATOM     10  C   UNL     1      22.239  33.233  56.860  0.00  0.00    +0.000 A 
ATOM     11  C   UNL     1      23.127  33.965  56.073  0.00  0.00    +0.000 A 
ATOM     12  C   UNL     1      22.721  34.456  54.823  0.00  0.00    +0.000 A 
BRANCH  10  13
ATOM     13  C   UNL     1      22.644  32.714  58.190  0.00  0.00    +0.000 C 
ATOM     14  N   UNL     1      21.767  32.516  59.145  0.00  0.00    +0.000 NA
ATOM     15  C   UNL     1      22.564  31.990  60.285  0.00  0.00    +0.000 C 
ATOM     16  C   UNL     1      24.029  32.256  59.941  0.00  0.00    +0.000 C 
ATOM     17  N   UNL     1      23.956  32.438  58.508  0.00  0.00    +0.000 N 
ATOM     18  H   UNL     1      24.653  33.051  58.103  0.00  0.00    +0.000 HD
ENDBRANCH  10  13
ENDBRANCH   5   7
BRANCH   1  19
ATOM     19  C   UNL     1      18.045  36.638  51.630  0.00  0.00    +0.000 C 
BRANCH  19  25
ATOM     20  C   UNL     1      18.288  39.094  52.203  0.00  0.00    +0.000 A 
ATOM     21  C   UNL     1      17.743  40.344  52.513  0.00  0.00    +0.000 A 
ATOM     22  C   UNL     1      16.358  40.500  52.608  0.00  0.00    +0.000 A 
ATOM     23  C   UNL     1      15.523  39.401  52.384  0.00  0.00    +0.000 A 
ATOM     24  C   UNL     1      16.071  38.153  52.077  0.00  0.00    +0.000 A 
ATOM     25  C   UNL     1      17.459  37.987  51.974  0.00  0.00    +0.000 A 
BRANCH  22  26
ATOM     26  C   UNL     1      15.763  41.819  52.941  0.00  0.00    +0.000 C 
ATOM     27  N   UNL     1      14.582  41.916  53.502  0.00  0.00    +0.000 NA
ATOM     28  C   UNL     1      14.357  43.380  53.653  0.00  0.00    +0.000 C 
ATOM     29  C   UNL     1      15.710  44.048  53.419  0.00  0.00    +0.000 C 
ATOM     30  N   UNL     1      16.422  43.007  52.709  0.00  0.00    +0.000 N 
ATOM     31  H   UNL     1      17.427  42.993  52.834  0.00  0.00    +0.000 HD
ENDBRANCH  22  26
ENDBRANCH  19  25
ENDBRANCH   1  19
TORSDOF 5
ENDMDL
MODEL 2
REMARK VINA RESULT:    -6.483      7.124     11.809
REMARK INTER + INTRA:          -9.281
REMARK INTER:                  -8.355
REMARK INTRA:                  -0.926
REMARK UNBOUND:                -0.903
REMARK  Name = 
REMARK  5 active torsions:
REMARK  status: ('A' for Active; 'I' for Inactive)
REMARK    1  A    between atoms: C_3  and  C_4
REMARK    2  A    between atoms: C_11  and  C_12
REMARK    3  A    between atoms: C_12  and  C_13
REMARK    4  A    between atoms: N_17  and  C_18
REMARK    5  A    between atoms: C_21  and  C_22
REMARK                            x       y       z     vdW  Elec       q    Type
REMARK                         _______ _______ _______ _____ _____    ______ ____
ROOT
ATOM      1  C   UNL     1      16.799  37.618  48.299  0.00  0.00    +0.000 C 
ATOM      2  C   UNL     1      16.804  36.165  47.777  0.00  0.00    +0.000 C 
ATOM      3  C   UNL     1      17.786  35.969  46.625  0.00  0.00    +0.000 C 
ATOM      4  C   UNL     1      17.500  36.934  45.466  0.00  0.00    +0.000 C 
ATOM      5  N   UNL     1      17.043  38.243  45.954  0.00  0.00    +0.000 N 
ATOM      6  C   UNL     1      17.477  38.588  47.312  0.00  0.00    +0.000 C 
ENDROOT
BRANCH   5   7
ATOM      7  C   UNL     1      16.638  39.230  45.064  0.00  0.00    +0.000 A 
ATOM      8  C   UNL     1      15.979  40.390  45.508  0.00  0.00    +0.000 A 
ATOM      9  C   UNL     1      15.550  41.390  44.623  0.00  0.00    +0.000 A 
ATOM     10  C   UNL     1      15.755  41.249  43.253  0.00  0.00    +0.000 A 
ATOM     11  C   UNL     1      16.395  40.105  42.779  0.00  0.00    +0.000 A 
ATOM     12  C   UNL     1      16.818  39.113  43.675  0.00  0.00    +0.000 A 
BRANCH  10  13
ATOM     13  C   UNL     1      15.288  42.307  42.322  0.00  0.00    +0.000 C 
ATOM     14  N   UNL     1      15.024  43.521  42.740  0.00  0.00    +0.000 NA
ATOM     15  C   UNL     1      14.607  44.257  41.517  0.00  0.00    +0.000 C 
ATOM     16  C   UNL     1      14.346  43.198  40.447  0.00  0.00    +0.000 C 
ATOM     17  N   UNL     1      15.078  42.070  40.980  0.00  0.00    +0.000 N 
ATOM     18  H   UNL     1      14.720  41.154  40.738  0.00  0.00    +0.000 HD
ENDBRANCH  10  13
ENDBRANCH   5   7
BRANCH   1  19
ATOM     19  C   UNL     1      17.332  37.765  49.740  0.00  0.00    +0.000 C 
BRANCH  19  25
ATOM     20  C   UNL     1      17.703  39.586  51.462  0.00  0.00    +0.000 A 
ATOM     21  C   UNL     1      17.274  40.711  52.174  0.00  0.00    +0.000 A 
ATOM     22  C   UNL     1      15.997  41.234  51.954  0.00  0.00    +0.000 A 
ATOM     23  C   UNL     1      15.156  40.629  51.016  0.00  0.00    +0.000 A 
ATOM     24  C   UNL     1      15.586  39.504  50.309  0.00  0.00    +0.000 A 
ATOM     25  C   UNL     1      16.868  38.975  50.517  0.00  0.00    +0.000 A 
BRANCH  22  26
ATOM     26  C   UNL     1      15.525  42.425  52.705  0.00  0.00    +0.000 C 
ATOM     27  N   UNL     1      16.239  43.523  52.769  0.00  0.00    +0.000 NA
ATOM     28  C   UNL     1      15.430  44.449  53.609  0.00  0.00    +0.000 C 
ATOM     29  C   UNL     1      14.035  43.834  53.702  0.00  0.00    +0.000 C 
ATOM     30  N   UNL     1      14.307  42.457  53.349  0.00  0.00    +0.000 N 
ATOM     31  H   UNL     1      13.549  41.958  52.899  0.00  0.00    +0.000 HD
ENDBRANCH  22  26
ENDBRANCH  19  25
ENDBRANCH   1  19
TORSDOF 5
ENDMDL
MODEL 3
REMARK VINA RESULT:    -6.477     12.198     16.435
REMARK INTER + INTRA:          -9.273
REMARK INTER:                  -8.371
REMARK INTRA:                  -0.903
REMARK UNBOUND:                -0.903
REMARK  Name = 
REMARK  5 active torsions:
REMARK  status: ('A' for Active; 'I' for Inactive)
REMARK    1  A    between atoms: C_3  and  C_4
REMARK    2  A    between atoms: C_11  and  C_12
REMARK    3  A    between atoms: C_12  and  C_13
REMARK    4  A    between atoms: N_17  and  C_18
REMARK    5  A    between atoms: C_21  and  C_22
REMARK                            x       y       z     vdW  Elec       q    Type
REMARK                         _______ _______ _______ _____ _____    ______ ____
ROOT
ATOM      1  C   UNL     1      13.635  51.799  46.778  0.00  0.00    +0.000 C 
ATOM      2  C   UNL     1      14.146  52.410  45.455  0.00  0.00    +0.000 C 
ATOM      3  C   UNL     1      13.365  51.904  44.245  0.00  0.00    +0.000 C 
ATOM      4  C   UNL     1      13.394  50.372  44.152  0.00  0.00    +0.000 C 
ATOM      5  N   UNL     1      13.359  49.750  45.483  0.00  0.00    +0.000 N 
ATOM      6  C   UNL     1      12.744  50.565  46.536  0.00  0.00    +0.000 C 
ENDROOT
BRANCH   5   7
ATOM      7  C   UNL     1      13.474  48.373  45.625  0.00  0.00    +0.000 A 
ATOM      8  C   UNL     1      14.596  47.678  45.139  0.00  0.00    +0.000 A 
ATOM      9  C   UNL     1      14.723  46.286  45.260  0.00  0.00    +0.000 A 
ATOM     10  C   UNL     1      13.713  45.540  45.862  0.00  0.00    +0.000 A 
ATOM     11  C   UNL     1      12.582  46.197  46.345  0.00  0.00    +0.000 A 
ATOM     12  C   UNL     1      12.468  47.589  46.216  0.00  0.00    +0.000 A 
BRANCH  10  13
ATOM     13  C   UNL     1      13.850  44.066  45.977  0.00  0.00    +0.000 C 
ATOM     14  N   UNL     1      12.856  43.315  46.386  0.00  0.00    +0.000 NA
ATOM     15  C   UNL     1      13.392  41.928  46.347  0.00  0.00    +0.000 C 
ATOM     16  C   UNL     1      14.908  42.059  46.197  0.00  0.00    +0.000 C 
ATOM     17  N   UNL     1      15.027  43.409  45.692  0.00  0.00    +0.000 N 
ATOM     18  H   UNL     1      15.882  43.898  45.930  0.00  0.00    +0.000 HD
ENDBRANCH  10  13
ENDBRANCH   5   7
BRANCH   1  19
ATOM     19  C   UNL     1      12.987  52.825  47.730  0.00  0.00    +0.000 C 
BRANCH  19  25
ATOM     20  C   UNL     1      11.965  52.388  50.007  0.00  0.00    +0.000 A 
ATOM     21  C   UNL     1      12.078  52.125  51.376  0.00  0.00    +0.000 A 
ATOM     22  C   UNL     1      13.340  52.028  51.968  0.00  0.00    +0.000 A 
ATOM     23  C   UNL     1      14.485  52.191  51.182  0.00  0.00    +0.000 A 
ATOM     24  C   UNL     1      14.368  52.456  49.816  0.00  0.00    +0.000 A 
ATOM     25  C   UNL     1      13.107  52.549  49.211  0.00  0.00    +0.000 A 
BRANCH  22  26
ATOM     26  C   UNL     1      13.479  51.753  53.420  0.00  0.00    +0.000 C 
ATOM     27  N   UNL     1      14.401  52.340  54.144  0.00  0.00    +0.000 NA
ATOM     28  C   UNL     1      14.209  51.791  55.514  0.00  0.00    +0.000 C 
ATOM     29  C   UNL     1      12.849  51.096  55.511  0.00  0.00    +0.000 C 
ATOM     30  N   UNL     1      12.636  50.895  54.094  0.00  0.00    +0.000 N 
ATOM     31  H   UNL     1      11.671  50.885  53.789  0.00  0.00    +0.000 HD
ENDBRANCH  22  26
ENDBRANCH  19  25
ENDBRANCH   1  19
TORSDOF 5
ENDMDL
