MODEL 1
REMARK VINA RESULT:    -5.484      0.000      0.000
REMARK INTER + INTRA:          -9.805
REMARK INTER:                  -7.014
REMARK INTRA:                  -2.791
REMARK UNBOUND:                -2.558
REMARK  Name = 
REMARK  6 active torsions:
REMARK  status: ('A' for Active; 'I' for Inactive)
REMARK    1  A    between atoms: O_1  and  C_2
REMARK    2  A    between atoms: C_4  and  C_5
REMARK    3  A    between atoms: C_5  and  C_6
REMARK    4  A    between atoms: C_17  and  S_18
REMARK    5  A    between atoms: S_18  and  C_19
REMARK    6  A    between atoms: C_19  and  C_20
REMARK                            x       y       z     vdW  Elec       q    Type
REMARK                         _______ _______ _______ _____ _____    ______ ____
ROOT
ATOM      1  C   UNL     1      15.884  41.271  42.040  0.00  0.00    +0.000 A 
ATOM      2  C   UNL     1      16.098  41.594  43.352  0.00  0.00    +0.000 A 
ATOM      3  C   UNL     1      15.224  42.521  43.877  0.00  0.00    +0.000 A 
ATOM      4  N   UNL     1      14.242  43.078  43.132  0.00  0.00    +0.000 NA
ATOM      5  C   UNL     1      14.140  42.683  41.848  0.00  0.00    +0.000 A 
ATOM      6  N   UNL     1      14.930  41.775  41.258  0.00  0.00    +0.000 NA
ENDROOT
BRANCH   1   7
ATOM      7  O   UNL     1      16.686  40.366  41.423  0.00  0.00    +0.000 OA
ATOM      8  H   UNL     1      17.390  40.953  41.089  0.00  0.00    +0.000 HD
ENDBRANCH   1   7
BRANCH   3   9
ATOM      9  C   UNL     1      15.341  42.982  45.313  0.00  0.00    +0.000 C 
BRANCH   9  10
ATOM     10  C   UNL     1      14.039  43.452  45.937  0.00  0.00    +0.000 A 
ATOM     11  C   UNL     1      13.195  42.482  46.509  0.00  0.00    +0.000 A 
ATOM     12  C   UNL     1      11.982  42.842  47.086  0.00  0.00    +0.000 A 
ATOM     13  C   UNL     1      11.592  44.178  47.098  0.00  0.00    +0.000 A 
ATOM     14  C   UNL     1      12.406  45.172  46.541  0.00  0.00    +0.000 A 
ATOM     15  C   UNL     1      11.991  46.514  46.567  0.00  0.00    +0.000 A 
ATOM     16  C   UNL     1      12.781  47.523  46.019  0.00  0.00    +0.000 A 
ATOM     17  C   UNL     1      14.000  47.201  45.439  0.00  0.00    +0.000 A 
ATOM     18  C   UNL     1      14.428  45.872  45.406  0.00  0.00    +0.000 A 
ATOM     19  C   UNL     1      13.649  44.823  45.949  0.00  0.00    +0.000 A 
ENDBRANCH   9  10
ENDBRANCH   3   9
BRANCH   5  20
ATOM     20  S   UNL     1      12.833  43.362  40.863  0.00  0.00    +0.000 S 
BRANCH  20  21
ATOM     21  C   UNL     1      12.740  45.023  41.590  0.00  0.00    +0.000 C 
BRANCH  21  22
ATOM     22  C   UNL     1      11.560  45.211  42.511  0.00  0.00    +0.000 A 
ATOM     23  C   UNL     1      10.932  44.105  43.104  0.00  0.00    +0.000 A 
ATOM     24  C   UNL     1       9.837  44.281  43.951  0.00  0.00    +0.000 A 
ATOM     25  C   UNL     1       9.357  45.562  44.215  0.00  0.00    +0.000 A 
ATOM     26  C   UNL     1       9.972  46.669  43.632  0.00  0.00    +0.000 A 
ATOM     27  C   UNL     1      11.067  46.495  42.784  0.00  0.00    +0.000 A 
ENDBRANCH  21  22
ENDBRANCH  20  21
ENDBRANCH   5  20
TORSDOF 6
ENDMDL
MODEL 2
REMARK VINA RESULT:    -5.175     11.795     14.447
REMARK INTER + INTRA:          -9.397
REMARK INTER:                  -7.065
REMARK INTRA:                  -2.331
REMARK UNBOUND:                -2.558
REMARK  Name = 
REMARK  6 active torsions:
REMARK  status: ('A' for Active; 'I' for Inactive)
REMARK    1  A    between atoms: O_1  and  C_2
REMARK    2  A    between atoms: C_4  and  C_5
REMARK    3  A    between atoms: C_5  and  C_6
REMARK    4  A    between atoms: C_17  and  S_18
REMARK    5  A    between atoms: S_18  and  C_19
REMARK    6  A    between atoms: C_19  and  C_20
REMARK                            x       y       z     vdW  Elec       q    Type
REMARK                         _______ _______ _______ _____ _____    ______ ____
ROOT
ATOM      1  C   UNL     1      16.905  39.769  56.222  0.00  0.00    +0.000 A 
ATOM      2  C   UNL     1      17.038  38.478  56.656  0.00  0.00    +0.000 A 
ATOM      3  C   UNL     1      17.472  37.582  55.703  0.00  0.00    +0.000 A 
ATOM      4  N   UNL     1      17.726  37.960  54.430  0.00  0.00    +0.000 NA
ATOM      5  C   UNL     1      17.549  39.261  54.125  0.00  0.00    +0.000 A 
ATOM      6  N   UNL     1      17.150  40.206  54.988  0.00  0.00    +0.000 NA
ENDROOT
BRANCH   1   7
ATOM      7  O   UNL     1      16.485  40.735  57.079  0.00  0.00    +0.000 OA
ATOM      8  H   UNL     1      15.889  40.216  57.650  0.00  0.00    +0.000 HD
ENDBRANCH   1   7
BRANCH   3   9
ATOM      9  C   UNL     1      17.658  36.118  56.034  0.00  0.00    +0.000 C 
BRANCH   9  10
ATOM     10  C   UNL     1      18.072  35.249  54.858  0.00  0.00    +0.000 A 
ATOM     11  C   UNL     1      17.089  34.920  53.906  0.00  0.00    +0.000 A 
ATOM     12  C   UNL     1      17.396  34.118  52.812  0.00  0.00    +0.000 A 
ATOM     13  C   UNL     1      18.689  33.630  52.654  0.00  0.00    +0.000 A 
ATOM     14  C   UNL     1      19.695  33.938  53.580  0.00  0.00    +0.000 A 
ATOM     15  C   UNL     1      20.993  33.434  53.398  0.00  0.00    +0.000 A 
ATOM     16  C   UNL     1      22.012  33.725  54.303  0.00  0.00    +0.000 A 
ATOM     17  C   UNL     1      21.743  34.525  55.404  0.00  0.00    +0.000 A 
ATOM     18  C   UNL     1      20.457  35.035  55.600  0.00  0.00    +0.000 A 
ATOM     19  C   UNL     1      19.400  34.757  54.702  0.00  0.00    +0.000 A 
ENDBRANCH   9  10
ENDBRANCH   3   9
BRANCH   5  20
ATOM     20  S   UNL     1      17.920  39.793  52.476  0.00  0.00    +0.000 S 
BRANCH  20  21
ATOM     21  C   UNL     1      17.303  38.357  51.550  0.00  0.00    +0.000 C 
BRANCH  21  22
ATOM     22  C   UNL     1      18.398  37.440  51.065  0.00  0.00    +0.000 A 
ATOM     23  C   UNL     1      19.619  37.357  51.751  0.00  0.00    +0.000 A 
ATOM     24  C   UNL     1      20.632  36.511  51.296  0.00  0.00    +0.000 A 
ATOM     25  C   UNL     1      20.437  35.741  50.152  0.00  0.00    +0.000 A 
ATOM     26  C   UNL     1      19.230  35.814  49.461  0.00  0.00    +0.000 A 
ATOM     27  C   UNL     1      18.215  36.660  49.914  0.00  0.00    +0.000 A 
ENDBRANCH  21  22
ENDBRANCH  20  21
ENDBRANCH   5  20
TORSDOF 6
ENDMDL
MODEL 3
REMARK VINA RESULT:    -4.961      1.243      2.790
REMARK INTER + INTRA:          -9.114
REMARK INTER:                  -6.556
REMARK INTRA:                  -2.558
REMARK UNBOUND:                -2.558
REMARK  Name = 
REMARK  6 active torsions:
REMARK  status: ('A' for Active; 'I' for Inactive)
REMARK    1  A    between atoms: O_1  and  C_2
REMARK    2  A    between atoms: C_4  and  C_5
REMARK    3  A    between atoms: C_5  and  C_6
REMARK    4  A    between atoms: C_17  and  S_18
REMARK    5  A    between atoms: S_18  and  C_19
REMARK    6  A    between atoms: C_19  and  C_20
REMARK                            x       y       z     vdW  Elec       q    Type
REMARK                         _______ _______ _______ _____ _____    ______ ____
ROOT
ATOM      1  C   UNL     1      14.823  42.493  41.750  0.00  0.00    +0.000 A 
ATOM      2  C   UNL     1      15.202  42.822  43.022  0.00  0.00    +0.000 A 
ATOM      3  C   UNL     1      14.437  43.796  43.627  0.00  0.00    +0.000 A 
ATOM      4  N   UNL     1      13.401  44.389  42.990  0.00  0.00    +0.000 NA
ATOM      5  C   UNL     1      13.133  43.981  41.734  0.00  0.00    +0.000 A 
ATOM      6  N   UNL     1      13.807  43.029  41.074  0.00  0.00    +0.000 NA
ENDROOT
BRANCH   1   7
ATOM      7  O   UNL     1      15.506  41.543  41.061  0.00  0.00    +0.000 OA
ATOM      8  H   UNL     1      16.379  41.610  41.489  0.00  0.00    +0.000 HD
ENDBRANCH   1   7
BRANCH   3   9
ATOM      9  C   UNL     1      14.742  44.271  45.031  0.00  0.00    +0.000 C 
BRANCH   9  10
ATOM     10  C   UNL     1      13.984  45.515  45.459  0.00  0.00    +0.000 A 
ATOM     11  C   UNL     1      14.523  46.767  45.106  0.00  0.00    +0.000 A 
ATOM     12  C   UNL     1      13.887  47.947  45.478  0.00  0.00    +0.000 A 
ATOM     13  C   UNL     1      12.704  47.895  46.209  0.00  0.00    +0.000 A 
ATOM     14  C   UNL     1      12.136  46.667  46.575  0.00  0.00    +0.000 A 
ATOM     15  C   UNL     1      10.941  46.641  47.312  0.00  0.00    +0.000 A 
ATOM     16  C   UNL     1      10.354  45.434  47.690  0.00  0.00    +0.000 A 
ATOM     17  C   UNL     1      10.958  44.236  47.333  0.00  0.00    +0.000 A 
ATOM     18  C   UNL     1      12.147  44.246  46.600  0.00  0.00    +0.000 A 
ATOM     19  C   UNL     1      12.770  45.452  46.204  0.00  0.00    +0.000 A 
ENDBRANCH   9  10
ENDBRANCH   3   9
BRANCH   5  20
ATOM     20  S   UNL     1      11.752  44.707  40.895  0.00  0.00    +0.000 S 
BRANCH  20  21
ATOM     21  C   UNL     1      10.571  44.789  42.273  0.00  0.00    +0.000 C 
BRANCH  21  22
ATOM     22  C   UNL     1      10.410  46.177  42.844  0.00  0.00    +0.000 A 
ATOM     23  C   UNL     1      11.236  47.227  42.415  0.00  0.00    +0.000 A 
ATOM     24  C   UNL     1      11.088  48.508  42.950  0.00  0.00    +0.000 A 
ATOM     25  C   UNL     1      10.117  48.754  43.918  0.00  0.00    +0.000 A 
ATOM     26  C   UNL     1       9.291  47.719  44.352  0.00  0.00    +0.000 A 
ATOM     27  C   UNL     1       9.437  46.436  43.820  0.00  0.00    +0.000 A 
ENDBRANCH  21  22
ENDBRANCH  20  21
ENDBRANCH   5  20
TORSDOF 6
ENDMDL
