MODEL 1
REMARK VINA RESULT:    -6.725      0.000      0.000
REMARK INTER + INTRA:          -8.079
REMARK INTER:                  -7.125
REMARK INTRA:                  -0.954
REMARK UNBOUND:                -0.961
REMARK  Name = 
REMARK  3 active torsions:
REMARK  status: ('A' for Active; 'I' for Inactive)
REMARK    1  A    between atoms: C_1  and  C_2
REMARK    2  A    between atoms: C_2  and  C_3
REMARK    3  A    between atoms: C_12  and  C_13
REMARK                            x       y       z     vdW  Elec       q    Type
REMARK                         _______ _______ _______ _____ _____    ______ ____
ROOT
ATOM      1  C   UNL     1      15.976  39.875  47.093  0.00  0.00    +0.000 C 
ATOM      2  C   UNL     1      15.452  39.323  48.427  0.00  0.00    +0.000 C 
ATOM      3  C   UNL     1      14.730  37.990  48.186  0.00  0.00    +0.000 C 
ATOM      4  C   UNL     1      14.501  40.317  49.045  0.00  0.00    +0.000 C 
ATOM      5  C   UNL     1      14.493  40.637  50.347  0.00  0.00    +0.000 C 
ATOM      6  C   UNL     1      15.449  39.994  51.259  0.00  0.00    +0.000 A 
ATOM      7  C   UNL     1      16.477  39.222  50.678  0.00  0.00    +0.000 A 
ATOM      8  C   UNL     1      17.463  38.679  51.502  0.00  0.00    +0.000 A 
ATOM      9  C   UNL     1      17.412  38.840  52.888  0.00  0.00    +0.000 A 
ATOM     10  C   UNL     1      16.383  39.573  53.495  0.00  0.00    +0.000 A 
ATOM     11  C   UNL     1      15.386  40.142  52.670  0.00  0.00    +0.000 A 
ATOM     12  C   UNL     1      14.282  40.934  53.357  0.00  0.00    +0.000 C 
ATOM     13  O   UNL     1      13.987  40.532  54.712  0.00  0.00    +0.000 OA
ATOM     14  C   UNL     1      15.079  40.248  55.488  0.00  0.00    +0.000 A 
ATOM     15  C   UNL     1      14.905  40.413  56.864  0.00  0.00    +0.000 A 
ATOM     16  C   UNL     1      15.956  40.150  57.736  0.00  0.00    +0.000 A 
ATOM     17  C   UNL     1      17.177  39.718  57.227  0.00  0.00    +0.000 A 
ATOM     18  C   UNL     1      17.338  39.533  55.849  0.00  0.00    +0.000 A 
ATOM     19  C   UNL     1      16.286  39.780  54.949  0.00  0.00    +0.000 A 
ATOM     20  N   UNL     1      16.618  39.100  49.289  0.00  0.00    +0.000 N 
ATOM     21  H   UNL     1      17.177  38.298  49.014  0.00  0.00    +0.000 HD
ENDROOT
BRANCH  12  22
ATOM     22  C   UNL     1      14.419  42.456  53.325  0.00  0.00    +0.000 A 
ATOM     23  C   UNL     1      13.292  43.246  53.621  0.00  0.00    +0.000 A 
ATOM     24  C   UNL     1      13.373  44.640  53.618  0.00  0.00    +0.000 A 
ATOM     25  C   UNL     1      14.583  45.262  53.330  0.00  0.00    +0.000 A 
ATOM     26 CL   UNL     1      14.684  46.980  53.327  0.00  0.00    +0.000 Cl
ATOM     27  C   UNL     1      15.714  44.501  53.047  0.00  0.00    +0.000 A 
ATOM     28  C   UNL     1      15.635  43.106  53.050  0.00  0.00    +0.000 A 
ENDBRANCH  12  22
TORSDOF 1
ENDMDL
MODEL 2
REMARK VINA RESULT:    -6.594      7.802     10.995
REMARK INTER + INTRA:          -7.940
REMARK INTER:                  -7.073
REMARK INTRA:                  -0.868
REMARK UNBOUND:                -0.961
REMARK  Name = 
REMARK  3 active torsions:
REMARK  status: ('A' for Active; 'I' for Inactive)
REMARK    1  A    between atoms: C_1  and  C_2
REMARK    2  A    between atoms: C_2  and  C_3
REMARK    3  A    between atoms: C_12  and  C_13
REMARK                            x       y       z     vdW  Elec       q    Type
REMARK                         _______ _______ _______ _____ _____    ______ ____
ROOT
ATOM      1  C   UNL     1      12.375  51.387  44.491  0.00  0.00    +0.000 C 
ATOM      2  C   UNL     1      12.958  50.287  45.391  0.00  0.00    +0.000 C 
ATOM      3  C   UNL     1      13.635  50.924  46.612  0.00  0.00    +0.000 C 
ATOM      4  C   UNL     1      13.964  49.477  44.611  0.00  0.00    +0.000 C 
ATOM      5  C   UNL     1      14.049  48.141  44.660  0.00  0.00    +0.000 C 
ATOM      6  C   UNL     1      13.129  47.384  45.520  0.00  0.00    +0.000 A 
ATOM      7  C   UNL     1      12.054  48.093  46.096  0.00  0.00    +0.000 A 
ATOM      8  C   UNL     1      11.100  47.392  46.836  0.00  0.00    +0.000 A 
ATOM      9  C   UNL     1      11.229  46.021  47.061  0.00  0.00    +0.000 A 
ATOM     10  C   UNL     1      12.307  45.297  46.530  0.00  0.00    +0.000 A 
ATOM     11  C   UNL     1      13.271  45.993  45.765  0.00  0.00    +0.000 A 
ATOM     12  C   UNL     1      14.429  45.181  45.199  0.00  0.00    +0.000 C 
ATOM     13  O   UNL     1      14.786  44.006  45.959  0.00  0.00    +0.000 OA
ATOM     14  C   UNL     1      13.731  43.275  46.437  0.00  0.00    +0.000 A 
ATOM     15  C   UNL     1      13.983  41.919  46.655  0.00  0.00    +0.000 A 
ATOM     16  C   UNL     1      12.974  41.092  47.139  0.00  0.00    +0.000 A 
ATOM     17  C   UNL     1      11.718  41.628  47.406  0.00  0.00    +0.000 A 
ATOM     18  C   UNL     1      11.478  42.992  47.206  0.00  0.00    +0.000 A 
ATOM     19  C   UNL     1      12.487  43.850  46.730  0.00  0.00    +0.000 A 
ATOM     20  N   UNL     1      11.835  49.452  45.833  0.00  0.00    +0.000 N 
ATOM     21  H   UNL     1      11.244  49.902  46.524  0.00  0.00    +0.000 HD
ENDROOT
BRANCH  12  22
ATOM     22  C   UNL     1      14.325  44.789  43.725  0.00  0.00    +0.000 A 
ATOM     23  C   UNL     1      15.384  44.071  43.138  0.00  0.00    +0.000 A 
ATOM     24  C   UNL     1      15.328  43.678  41.799  0.00  0.00    +0.000 A 
ATOM     25  C   UNL     1      14.209  43.989  41.034  0.00  0.00    +0.000 A 
ATOM     26 CL   UNL     1      14.138  43.505  39.384  0.00  0.00    +0.000 Cl
ATOM     27  C   UNL     1      13.144  44.686  41.597  0.00  0.00    +0.000 A 
ATOM     28  C   UNL     1      13.198  45.079  42.937  0.00  0.00    +0.000 A 
ENDBRANCH  12  22
TORSDOF 1
ENDMDL
MODEL 3
REMARK VINA RESULT:    -6.147      8.405     11.429
REMARK INTER + INTRA:          -7.467
REMARK INTER:                  -6.507
REMARK INTRA:                  -0.961
REMARK UNBOUND:                -0.961
REMARK  Name = 
REMARK  3 active torsions:
REMARK  status: ('A' for Active; 'I' for Inactive)
REMARK    1  A    between atoms: C_1  and  C_2
REMARK    2  A    between atoms: C_2  and  C_3
REMARK    3  A    between atoms: C_12  and  C_13
REMARK                            x       y       z     vdW  Elec       q    Type
REMARK                         _______ _______ _______ _____ _____    ______ ____
ROOT
ATOM      1  C   UNL     1      11.926  47.073  45.611  0.00  0.00    +0.000 C 
ATOM      2  C   UNL     1      13.271  46.428  45.240  0.00  0.00    +0.000 C 
ATOM      3  C   UNL     1      14.417  47.381  45.603  0.00  0.00    +0.000 C 
ATOM      4  C   UNL     1      13.297  46.133  43.761  0.00  0.00    +0.000 C 
ATOM      5  C   UNL     1      13.770  44.995  43.233  0.00  0.00    +0.000 C 
ATOM      6  C   UNL     1      14.310  43.952  44.116  0.00  0.00    +0.000 A 
ATOM      7  C   UNL     1      14.109  44.114  45.503  0.00  0.00    +0.000 A 
ATOM      8  C   UNL     1      14.516  43.097  46.368  0.00  0.00    +0.000 A 
ATOM      9  C   UNL     1      15.167  41.960  45.887  0.00  0.00    +0.000 A 
ATOM     10  C   UNL     1      15.411  41.790  44.517  0.00  0.00    +0.000 A 
ATOM     11  C   UNL     1      14.989  42.806  43.628  0.00  0.00    +0.000 A 
ATOM     12  C   UNL     1      15.266  42.592  42.146  0.00  0.00    +0.000 C 
ATOM     13  O   UNL     1      16.412  41.768  41.845  0.00  0.00    +0.000 OA
ATOM     14  C   UNL     1      16.562  40.662  42.638  0.00  0.00    +0.000 A 
ATOM     15  C   UNL     1      17.258  39.595  42.065  0.00  0.00    +0.000 A 
ATOM     16  C   UNL     1      17.460  38.425  42.791  0.00  0.00    +0.000 A 
ATOM     17  C   UNL     1      16.969  38.331  44.089  0.00  0.00    +0.000 A 
ATOM     18  C   UNL     1      16.291  39.411  44.665  0.00  0.00    +0.000 A 
ATOM     19  C   UNL     1      16.086  40.609  43.956  0.00  0.00    +0.000 A 
ATOM     20  N   UNL     1      13.389  45.196  46.028  0.00  0.00    +0.000 N 
ATOM     21  H   UNL     1      13.578  45.361  47.011  0.00  0.00    +0.000 HD
ENDROOT
BRANCH  12  22
ATOM     22  C   UNL     1      14.088  42.106  41.300  0.00  0.00    +0.000 A 
ATOM     23  C   UNL     1      14.088  42.376  39.918  0.00  0.00    +0.000 A 
ATOM     24  C   UNL     1      13.042  41.939  39.102  0.00  0.00    +0.000 A 
ATOM     25  C   UNL     1      11.988  41.220  39.656  0.00  0.00    +0.000 A 
ATOM     26 CL   UNL     1      10.699  40.681  38.652  0.00  0.00    +0.000 Cl
ATOM     27  C   UNL     1      11.974  40.930  41.017  0.00  0.00    +0.000 A 
ATOM     28  C   UNL     1      13.020  41.366  41.834  0.00  0.00    +0.000 A 
ENDBRANCH  12  22
TORSDOF 1
ENDMDL
