MODEL 1
REMARK VINA RESULT:    -6.251      0.000      0.000
REMARK INTER + INTRA:          -7.371
REMARK INTER:                  -6.991
REMARK INTRA:                  -0.380
REMARK UNBOUND:                -0.389
REMARK  Name = 
REMARK  2 active torsions:
REMARK  status: ('A' for Active; 'I' for Inactive)
REMARK    1  A    between atoms: C_2  and  C_3
REMARK    2  A    between atoms: C_15  and  N_16
REMARK                            x       y       z     vdW  Elec       q    Type
REMARK                         _______ _______ _______ _____ _____    ______ ____
ROOT
ATOM      1  O   UNL     1      12.078  49.723  43.105  0.00  0.00    +0.000 OA
ATOM      2  C   UNL     1      12.855  49.312  43.963  0.00  0.00    +0.000 C 
ATOM      3  N   UNL     1      12.915  47.975  44.381  0.00  0.00    +0.000 N 
ATOM      4  C   UNL     1      13.314  47.611  45.744  0.00  0.00    +0.000 C 
ATOM      5  C   UNL     1      13.903  46.206  45.798  0.00  0.00    +0.000 C 
ATOM      6  C   UNL     1      12.957  45.196  45.133  0.00  0.00    +0.000 C 
ATOM      7  C   UNL     1      12.516  45.625  43.725  0.00  0.00    +0.000 C 
ATOM      8  C   UNL     1      11.980  47.053  43.741  0.00  0.00    +0.000 C 
ENDROOT
BRANCH   6   9
ATOM      9  N   UNL     1      13.416  43.798  45.253  0.00  0.00    +0.000 N 
ATOM     10  C   UNL     1      12.836  43.045  46.291  0.00  0.00    +0.000 C 
ATOM     11  O   UNL     1      12.034  43.514  47.097  0.00  0.00    +0.000 OA
ATOM     12  O   UNL     1      13.222  41.748  46.432  0.00  0.00    +0.000 OA
ATOM     13  C   UNL     1      13.699  41.058  45.283  0.00  0.00    +0.000 C 
ATOM     14  C   UNL     1      14.691  41.878  44.535  0.00  0.00    +0.000 A 
ATOM     15  C   UNL     1      15.729  41.267  43.815  0.00  0.00    +0.000 A 
ATOM     16  C   UNL     1      16.609  42.039  43.066  0.00  0.00    +0.000 A 
ATOM     17  C   UNL     1      16.445  43.418  43.031  0.00  0.00    +0.000 A 
ATOM     18  C   UNL     1      15.401  44.023  43.741  0.00  0.00    +0.000 A 
ATOM     19  C   UNL     1      14.505  43.263  44.500  0.00  0.00    +0.000 A 
ENDBRANCH   6   9
BRANCH   2  20
ATOM     20  C   UNL     1      13.803  50.286  44.550  0.00  0.00    +0.000 A 
ATOM     21  C   UNL     1      13.397  51.104  45.616  0.00  0.00    +0.000 A 
ATOM     22  C   UNL     1      14.291  52.014  46.200  0.00  0.00    +0.000 A 
ATOM     23  C   UNL     1      15.604  52.079  45.701  0.00  0.00    +0.000 A 
ATOM     24  C   UNL     1      16.767  52.835  46.006  0.00  0.00    +0.000 A 
ATOM     25  C   UNL     1      17.748  52.407  45.141  0.00  0.00    +0.000 A 
ATOM     26  O   UNL     1      17.272  51.435  44.320  0.00  0.00    +0.000 OA
ATOM     27  C   UNL     1      15.968  51.233  44.659  0.00  0.00    +0.000 A 
ATOM     28  C   UNL     1      15.113  50.316  44.057  0.00  0.00    +0.000 A 
ENDBRANCH   2  20
TORSDOF 2
ENDMDL
MODEL 2
REMARK VINA RESULT:    -6.020     14.539     16.434
REMARK INTER + INTRA:          -7.112
REMARK INTER:                  -6.723
REMARK INTRA:                  -0.389
REMARK UNBOUND:                -0.389
REMARK  Name = 
REMARK  2 active torsions:
REMARK  status: ('A' for Active; 'I' for Inactive)
REMARK    1  A    between atoms: C_2  and  C_3
REMARK    2  A    between atoms: C_15  and  N_16
REMARK                            x       y       z     vdW  Elec       q    Type
REMARK                         _______ _______ _______ _____ _____    ______ ____
ROOT
ATOM      1  O   UNL     1      21.695  32.460  47.942  0.00  0.00    +0.000 OA
ATOM      2  C   UNL     1      21.921  33.529  48.500  0.00  0.00    +0.000 C 
ATOM      3  N   UNL     1      21.334  33.911  49.715  0.00  0.00    +0.000 N 
ATOM      4  C   UNL     1      21.079  35.318  50.040  0.00  0.00    +0.000 C 
ATOM      5  C   UNL     1      21.049  35.549  51.546  0.00  0.00    +0.000 C 
ATOM      6  C   UNL     1      20.083  34.566  52.225  0.00  0.00    +0.000 C 
ATOM      7  C   UNL     1      20.341  33.103  51.830  0.00  0.00    +0.000 C 
ATOM      8  C   UNL     1      20.402  32.958  50.313  0.00  0.00    +0.000 C 
ENDROOT
BRANCH   6   9
ATOM      9  N   UNL     1      19.920  34.811  53.671  0.00  0.00    +0.000 N 
ATOM     10  C   UNL     1      18.746  35.488  54.054  0.00  0.00    +0.000 C 
ATOM     11  O   UNL     1      17.917  35.907  53.248  0.00  0.00    +0.000 OA
ATOM     12  O   UNL     1      18.549  35.725  55.379  0.00  0.00    +0.000 OA
ATOM     13  C   UNL     1      19.161  34.850  56.319  0.00  0.00    +0.000 C 
ATOM     14  C   UNL     1      20.591  34.611  55.981  0.00  0.00    +0.000 A 
ATOM     15  C   UNL     1      21.534  34.362  56.991  0.00  0.00    +0.000 A 
ATOM     16  C   UNL     1      22.853  34.072  56.659  0.00  0.00    +0.000 A 
ATOM     17  C   UNL     1      23.224  34.025  55.321  0.00  0.00    +0.000 A 
ATOM     18  C   UNL     1      22.278  34.264  54.317  0.00  0.00    +0.000 A 
ATOM     19  C   UNL     1      20.946  34.556  54.630  0.00  0.00    +0.000 A 
ENDBRANCH   6   9
BRANCH   2  20
ATOM     20  C   UNL     1      22.901  34.439  47.865  0.00  0.00    +0.000 A 
ATOM     21  C   UNL     1      24.150  34.656  48.468  0.00  0.00    +0.000 A 
ATOM     22  C   UNL     1      25.098  35.496  47.866  0.00  0.00    +0.000 A 
ATOM     23  C   UNL     1      24.775  36.104  46.639  0.00  0.00    +0.000 A 
ATOM     24  C   UNL     1      25.433  36.985  45.741  0.00  0.00    +0.000 A 
ATOM     25  C   UNL     1      24.563  37.198  44.697  0.00  0.00    +0.000 A 
ATOM     26  O   UNL     1      23.409  36.508  44.887  0.00  0.00    +0.000 OA
ATOM     27  C   UNL     1      23.535  35.841  46.067  0.00  0.00    +0.000 A 
ATOM     28  C   UNL     1      22.570  35.013  46.632  0.00  0.00    +0.000 A 
ENDBRANCH   2  20
TORSDOF 2
ENDMDL
MODEL 3
REMARK VINA RESULT:    -5.983      4.326      9.268
REMARK INTER + INTRA:          -7.072
REMARK INTER:                  -6.701
REMARK INTRA:                  -0.371
REMARK UNBOUND:                -0.389
REMARK  Name = 
REMARK  2 active torsions:
REMARK  status: ('A' for Active; 'I' for Inactive)
REMARK    1  A    between atoms: C_2  and  C_3
REMARK    2  A    between atoms: C_15  and  N_16
REMARK                            x       y       z     vdW  Elec       q    Type
REMARK                         _______ _______ _______ _____ _____    ______ ____
ROOT
ATOM      1  O   UNL     1      13.356  38.209  48.311  0.00  0.00    +0.000 OA
ATOM      2  C   UNL     1      14.258  39.027  48.153  0.00  0.00    +0.000 C 
ATOM      3  N   UNL     1      14.331  39.900  47.059  0.00  0.00    +0.000 N 
ATOM      4  C   UNL     1      15.616  40.373  46.533  0.00  0.00    +0.000 C 
ATOM      5  C   UNL     1      15.473  41.715  45.827  0.00  0.00    +0.000 C 
ATOM      6  C   UNL     1      14.353  41.659  44.778  0.00  0.00    +0.000 C 
ATOM      7  C   UNL     1      13.030  41.115  45.343  0.00  0.00    +0.000 C 
ATOM      8  C   UNL     1      13.258  39.795  46.072  0.00  0.00    +0.000 C 
ENDROOT
BRANCH   6   9
ATOM      9  N   UNL     1      14.237  42.893  43.977  0.00  0.00    +0.000 N 
ATOM     10  C   UNL     1      14.832  42.859  42.702  0.00  0.00    +0.000 C 
ATOM     11  O   UNL     1      15.461  41.891  42.277  0.00  0.00    +0.000 OA
ATOM     12  O   UNL     1      14.741  43.972  41.924  0.00  0.00    +0.000 OA
ATOM     13  C   UNL     1      13.644  44.854  42.135  0.00  0.00    +0.000 C 
ATOM     14  C   UNL     1      13.455  45.143  43.583  0.00  0.00    +0.000 A 
ATOM     15  C   UNL     1      12.937  46.377  44.005  0.00  0.00    +0.000 A 
ATOM     16  C   UNL     1      12.701  46.610  45.355  0.00  0.00    +0.000 A 
ATOM     17  C   UNL     1      12.975  45.608  46.278  0.00  0.00    +0.000 A 
ATOM     18  C   UNL     1      13.481  44.375  45.851  0.00  0.00    +0.000 A 
ATOM     19  C   UNL     1      13.724  44.120  44.497  0.00  0.00    +0.000 A 
ENDBRANCH   6   9
BRANCH   2  20
ATOM     20  C   UNL     1      15.297  39.112  49.203  0.00  0.00    +0.000 A 
ATOM     21  C   UNL     1      16.410  38.258  49.160  0.00  0.00    +0.000 A 
ATOM     22  C   UNL     1      17.415  38.342  50.135  0.00  0.00    +0.000 A 
ATOM     23  C   UNL     1      17.290  39.310  51.147  0.00  0.00    +0.000 A 
ATOM     24  C   UNL     1      18.060  39.704  52.273  0.00  0.00    +0.000 A 
ATOM     25  C   UNL     1      17.380  40.743  52.866  0.00  0.00    +0.000 A 
ATOM     26  O   UNL     1      16.239  41.020  52.184  0.00  0.00    +0.000 OA
ATOM     27  C   UNL     1      16.181  40.151  51.137  0.00  0.00    +0.000 A 
ATOM     28  C   UNL     1      15.166  40.100  50.187  0.00  0.00    +0.000 A 
ENDBRANCH   2  20
TORSDOF 2
ENDMDL
