MODEL 1
REMARK VINA RESULT:    -6.135      0.000      0.000
REMARK INTER + INTRA:          -9.274
REMARK INTER:                  -8.082
REMARK INTRA:                  -1.192
REMARK UNBOUND:                -0.807
REMARK  Name = 
REMARK  9 active torsions:
REMARK  status: ('A' for Active; 'I' for Inactive)
REMARK    1  A    between atoms: C_1  and  O_2
REMARK    2  A    between atoms: O_2  and  C_3
REMARK    3  A    between atoms: C_6  and  C_7
REMARK    4  A    between atoms: C_9  and  S_10
REMARK    5  A    between atoms: S_10  and  C_11
REMARK    6  A    between atoms: C_11  and  C_12
REMARK    7  A    between atoms: C_21  and  O_22
REMARK    8  A    between atoms: C_23  and  C_24
REMARK    9  A    between atoms: C_27  and  C_28
REMARK                            x       y       z     vdW  Elec       q    Type
REMARK                         _______ _______ _______ _____ _____    ______ ____
ROOT
ATOM      1  C   UNL     1      18.641  37.270  51.161  0.00  0.00    +0.000 A 
ATOM      2  N   UNL     1      19.849  36.676  51.349  0.00  0.00    +0.000 NA
ATOM      3  C   UNL     1      20.329  35.897  50.368  0.00  0.00    +0.000 A 
ATOM      4  N   UNL     1      19.695  35.665  49.212  0.00  0.00    +0.000 NA
ATOM      5  C   UNL     1      18.503  36.262  49.077  0.00  0.00    +0.000 A 
ATOM      6  C   UNL     1      17.905  37.079  50.006  0.00  0.00    +0.000 A 
ENDROOT
BRANCH   1  10
ATOM      7  C   UNL     1      17.389  39.664  54.521  0.00  0.00    +0.000 A 
ATOM      8  C   UNL     1      17.820  40.275  53.342  0.00  0.00    +0.000 A 
ATOM      9  C   UNL     1      18.231  39.504  52.248  0.00  0.00    +0.000 A 
ATOM     10  C   UNL     1      18.210  38.102  52.299  0.00  0.00    +0.000 A 
ATOM     11  C   UNL     1      17.791  37.500  53.497  0.00  0.00    +0.000 A 
ATOM     12  C   UNL     1      17.380  38.262  54.604  0.00  0.00    +0.000 A 
ATOM     13  C   UNL     1      16.932  37.570  55.862  0.00  0.00    +0.000 C 
BRANCH   7  15
ATOM     14  C   UNL     1      15.735  41.027  55.566  0.00  0.00    +0.000 C 
ATOM     15  O   UNL     1      16.971  40.330  55.643  0.00  0.00    +0.000 OA
ENDBRANCH   7  15
ENDBRANCH   1  10
BRANCH   5  16
ATOM     16  O   UNL     1      17.909  35.977  47.888  0.00  0.00    +0.000 OA
ATOM     17  H   UNL     1      17.197  36.643  47.860  0.00  0.00    +0.000 HD
ENDBRANCH   5  16
BRANCH   6  18
ATOM     18  C   UNL     1      16.619  37.648  49.781  0.00  0.00    +0.000 C 
ATOM     19  N   UNL     1      15.573  38.104  49.566  0.00  0.00    +0.000 NA
ENDBRANCH   6  18
BRANCH   3  20
ATOM     20  S   UNL     1      21.906  35.119  50.574  0.00  0.00    +0.000 S 
BRANCH  20  21
ATOM     21  C   UNL     1      21.437  33.731  51.653  0.00  0.00    +0.000 C 
BRANCH  21  22
ATOM     22  C   UNL     1      22.013  33.896  53.035  0.00  0.00    +0.000 A 
ATOM     23  C   UNL     1      23.327  33.493  53.325  0.00  0.00    +0.000 A 
ATOM     24  C   UNL     1      23.848  33.637  54.615  0.00  0.00    +0.000 A 
ATOM     25  C   UNL     1      23.061  34.182  55.629  0.00  0.00    +0.000 A 
ATOM     26  C   UNL     1      21.758  34.579  55.347  0.00  0.00    +0.000 A 
ATOM     27  F   UNL     1      21.006  35.102  56.325  0.00  0.00    +0.000 F 
ATOM     28  C   UNL     1      21.237  34.436  54.066  0.00  0.00    +0.000 A 
ATOM     29  F   UNL     1      19.977  34.826  53.818  0.00  0.00    +0.000 F 
ENDBRANCH  21  22
ENDBRANCH  20  21
ENDBRANCH   3  20
TORSDOF 7
ENDMDL
MODEL 2
REMARK VINA RESULT:    -6.003      3.807      5.938
REMARK INTER + INTRA:          -9.091
REMARK INTER:                  -8.527
REMARK INTRA:                  -0.564
REMARK UNBOUND:                -0.807
REMARK  Name = 
REMARK  9 active torsions:
REMARK  status: ('A' for Active; 'I' for Inactive)
REMARK    1  A    between atoms: C_1  and  O_2
REMARK    2  A    between atoms: O_2  and  C_3
REMARK    3  A    between atoms: C_6  and  C_7
REMARK    4  A    between atoms: C_9  and  S_10
REMARK    5  A    between atoms: S_10  and  C_11
REMARK    6  A    between atoms: C_11  and  C_12
REMARK    7  A    between atoms: C_21  and  O_22
REMARK    8  A    between atoms: C_23  and  C_24
REMARK    9  A    between atoms: C_27  and  C_28
REMARK                            x       y       z     vdW  Elec       q    Type
REMARK                         _______ _______ _______ _____ _____    ______ ____
ROOT
ATOM      1  C   UNL     1      17.313  38.806  56.840  0.00  0.00    +0.000 A 
ATOM      2  N   UNL     1      17.508  37.514  56.463  0.00  0.00    +0.000 NA
ATOM      3  C   UNL     1      17.876  36.630  57.402  0.00  0.00    +0.000 A 
ATOM      4  N   UNL     1      18.064  36.938  58.691  0.00  0.00    +0.000 NA
ATOM      5  C   UNL     1      17.873  38.223  59.013  0.00  0.00    +0.000 A 
ATOM      6  C   UNL     1      17.498  39.221  58.146  0.00  0.00    +0.000 A 
ENDROOT
BRANCH   1  10
ATOM      7  C   UNL     1      16.161  41.358  53.561  0.00  0.00    +0.000 A 
ATOM      8  C   UNL     1      15.471  41.415  54.774  0.00  0.00    +0.000 A 
ATOM      9  C   UNL     1      15.839  40.586  55.842  0.00  0.00    +0.000 A 
ATOM     10  C   UNL     1      16.911  39.689  55.730  0.00  0.00    +0.000 A 
ATOM     11  C   UNL     1      17.585  39.630  54.499  0.00  0.00    +0.000 A 
ATOM     12  C   UNL     1      17.225  40.453  53.418  0.00  0.00    +0.000 A 
ATOM     13  C   UNL     1      17.984  40.357  52.122  0.00  0.00    +0.000 C 
BRANCH   7  15
ATOM     14  C   UNL     1      16.012  43.532  52.594  0.00  0.00    +0.000 C 
ATOM     15  O   UNL     1      15.877  42.124  52.462  0.00  0.00    +0.000 OA
ENDBRANCH   7  15
ENDBRANCH   1  10
BRANCH   5  16
ATOM     16  O   UNL     1      18.091  38.469  60.333  0.00  0.00    +0.000 OA
ATOM     17  H   UNL     1      17.803  39.398  60.409  0.00  0.00    +0.000 HD
ENDBRANCH   5  16
BRANCH   6  18
ATOM     18  C   UNL     1      17.344  40.569  58.580  0.00  0.00    +0.000 C 
ATOM     19  N   UNL     1      17.248  41.665  58.947  0.00  0.00    +0.000 NA
ENDBRANCH   6  18
BRANCH   3  20
ATOM     20  S   UNL     1      18.124  34.937  56.948  0.00  0.00    +0.000 S 
BRANCH  20  21
ATOM     21  C   UNL     1      18.955  35.157  55.344  0.00  0.00    +0.000 C 
BRANCH  21  22
ATOM     22  C   UNL     1      20.398  34.729  55.415  0.00  0.00    +0.000 A 
ATOM     23  C   UNL     1      21.079  34.680  56.642  0.00  0.00    +0.000 A 
ATOM     24  C   UNL     1      22.423  34.295  56.697  0.00  0.00    +0.000 A 
ATOM     25  C   UNL     1      23.100  33.958  55.525  0.00  0.00    +0.000 A 
ATOM     26  C   UNL     1      22.431  34.010  54.307  0.00  0.00    +0.000 A 
ATOM     27  F   UNL     1      23.086  33.685  53.184  0.00  0.00    +0.000 F 
ATOM     28  C   UNL     1      21.095  34.393  54.251  0.00  0.00    +0.000 A 
ATOM     29  F   UNL     1      20.470  34.434  53.064  0.00  0.00    +0.000 F 
ENDBRANCH  21  22
ENDBRANCH  20  21
ENDBRANCH   3  20
TORSDOF 7
ENDMDL
MODEL 3
REMARK VINA RESULT:    -5.961      5.789      8.781
REMARK INTER + INTRA:          -9.034
REMARK INTER:                  -8.226
REMARK INTRA:                  -0.807
REMARK UNBOUND:                -0.807
REMARK  Name = 
REMARK  9 active torsions:
REMARK  status: ('A' for Active; 'I' for Inactive)
REMARK    1  A    between atoms: C_1  and  O_2
REMARK    2  A    between atoms: O_2  and  C_3
REMARK    3  A    between atoms: C_6  and  C_7
REMARK    4  A    between atoms: C_9  and  S_10
REMARK    5  A    between atoms: S_10  and  C_11
REMARK    6  A    between atoms: C_11  and  C_12
REMARK    7  A    between atoms: C_21  and  O_22
REMARK    8  A    between atoms: C_23  and  C_24
REMARK    9  A    between atoms: C_27  and  C_28
REMARK                            x       y       z     vdW  Elec       q    Type
REMARK                         _______ _______ _______ _____ _____    ______ ____
ROOT
ATOM      1  C   UNL     1      15.746  40.518  51.658  0.00  0.00    +0.000 A 
ATOM      2  N   UNL     1      15.162  40.325  50.446  0.00  0.00    +0.000 NA
ATOM      3  C   UNL     1      15.439  39.191  49.785  0.00  0.00    +0.000 A 
ATOM      4  N   UNL     1      16.255  38.233  50.243  0.00  0.00    +0.000 NA
ATOM      5  C   UNL     1      16.816  38.473  51.435  0.00  0.00    +0.000 A 
ATOM      6  C   UNL     1      16.615  39.593  52.206  0.00  0.00    +0.000 A 
ENDROOT
BRANCH   1  10
ATOM      7  C   UNL     1      14.616  44.227  53.544  0.00  0.00    +0.000 A 
ATOM      8  C   UNL     1      15.900  44.066  53.019  0.00  0.00    +0.000 A 
ATOM      9  C   UNL     1      16.274  42.863  52.408  0.00  0.00    +0.000 A 
ATOM     10  C   UNL     1      15.373  41.795  52.294  0.00  0.00    +0.000 A 
ATOM     11  C   UNL     1      14.090  41.964  52.841  0.00  0.00    +0.000 A 
ATOM     12  C   UNL     1      13.702  43.164  53.461  0.00  0.00    +0.000 A 
ATOM     13  C   UNL     1      12.314  43.299  54.024  0.00  0.00    +0.000 C 
BRANCH   7  15
ATOM     14  C   UNL     1      14.188  46.569  53.412  0.00  0.00    +0.000 C 
ATOM     15  O   UNL     1      14.157  45.361  54.160  0.00  0.00    +0.000 OA
ENDBRANCH   7  15
ENDBRANCH   1  10
BRANCH   5  16
ATOM     16  O   UNL     1      17.640  37.469  51.836  0.00  0.00    +0.000 OA
ATOM     17  H   UNL     1      18.506  37.787  51.518  0.00  0.00    +0.000 HD
ENDBRANCH   5  16
BRANCH   6  18
ATOM     18  C   UNL     1      17.280  39.770  53.453  0.00  0.00    +0.000 C 
ATOM     19  N   UNL     1      17.798  39.932  54.479  0.00  0.00    +0.000 NA
ENDBRANCH   6  18
BRANCH   3  20
ATOM     20  S   UNL     1      14.684  38.900  48.210  0.00  0.00    +0.000 S 
BRANCH  20  21
ATOM     21  C   UNL     1      16.098  39.234  47.114  0.00  0.00    +0.000 C 
BRANCH  21  22
ATOM     22  C   UNL     1      15.822  40.409  46.213  0.00  0.00    +0.000 A 
ATOM     23  C   UNL     1      15.149  41.546  46.689  0.00  0.00    +0.000 A 
ATOM     24  C   UNL     1      14.885  42.625  45.841  0.00  0.00    +0.000 A 
ATOM     25  C   UNL     1      15.288  42.579  44.506  0.00  0.00    +0.000 A 
ATOM     26  C   UNL     1      15.950  41.453  44.029  0.00  0.00    +0.000 A 
ATOM     27  F   UNL     1      16.335  41.414  42.746  0.00  0.00    +0.000 F 
ATOM     28  C   UNL     1      16.213  40.378  44.871  0.00  0.00    +0.000 A 
ATOM     29  F   UNL     1      16.855  39.303  44.387  0.00  0.00    +0.000 F 
ENDBRANCH  21  22
ENDBRANCH  20  21
ENDBRANCH   3  20
TORSDOF 7
ENDMDL
