MODEL 1
REMARK VINA RESULT:    -6.073      0.000      0.000
REMARK INTER + INTRA:         -10.702
REMARK INTER:                  -8.875
REMARK INTRA:                  -1.826
REMARK UNBOUND:                -2.144
REMARK  Name = 
REMARK  8 active torsions:
REMARK  status: ('A' for Active; 'I' for Inactive)
REMARK    1  A    between atoms: C_1  and  N_2
REMARK    2  A    between atoms: N_2  and  C_3
REMARK    3  A    between atoms: C_3  and  C_4
REMARK    4  A    between atoms: C_6  and  C_7
REMARK    5  A    between atoms: C_12  and  C_13
REMARK    6  A    between atoms: C_18  and  C_20
REMARK    7  A    between atoms: C_20  and  C_21
REMARK    8  A    between atoms: C_20  and  C_27
REMARK                            x       y       z     vdW  Elec       q    Type
REMARK                         _______ _______ _______ _____ _____    ______ ____
ROOT
ATOM      1  C   UNL     1      20.934  36.371  51.235  0.00  0.00    +0.000 C 
ATOM      2  N   UNL     1      20.922  34.919  51.126  0.00  0.00    +0.000 N 
ATOM      3  C   UNL     1      20.834  34.045  52.215  0.00  0.00    +0.000 C 
ATOM      4  O   UNL     1      20.852  32.822  52.035  0.00  0.00    +0.000 OA
ENDROOT
BRANCH   2   5
ATOM      5  C   UNL     1      21.254  34.355  49.818  0.00  0.00    +0.000 C 
BRANCH   5   6
ATOM      6  C   UNL     1      22.716  34.540  49.473  0.00  0.00    +0.000 A 
ATOM      7  C   UNL     1      23.713  34.155  50.383  0.00  0.00    +0.000 A 
ATOM      8  C   UNL     1      25.072  34.343  50.090  0.00  0.00    +0.000 A 
ATOM      9  C   UNL     1      25.429  34.910  48.857  0.00  0.00    +0.000 A 
ATOM     10  C   UNL     1      24.450  35.296  47.927  0.00  0.00    +0.000 A 
ATOM     11  C   UNL     1      23.096  35.116  48.253  0.00  0.00    +0.000 A 
BRANCH   8  12
ATOM     12  C   UNL     1      26.129  33.909  51.081  0.00  0.00    +0.000 C 
ATOM     13  F   UNL     1      26.180  34.704  52.186  0.00  0.00    +0.000 F 
ATOM     14  F   UNL     1      27.381  33.933  50.546  0.00  0.00    +0.000 F 
ATOM     15  F   UNL     1      25.937  32.644  51.544  0.00  0.00    +0.000 F 
ENDBRANCH   8  12
BRANCH  10  16
ATOM     16  C   UNL     1      24.843  35.931  46.614  0.00  0.00    +0.000 C 
ATOM     17  F   UNL     1      23.760  36.261  45.859  0.00  0.00    +0.000 F 
ATOM     18  F   UNL     1      25.605  35.112  45.835  0.00  0.00    +0.000 F 
ATOM     19  F   UNL     1      25.561  37.077  46.765  0.00  0.00    +0.000 F 
ENDBRANCH  10  16
ENDBRANCH   5   6
ENDBRANCH   2   5
BRANCH   3  20
ATOM     20  C   UNL     1      20.701  34.652  53.636  0.00  0.00    +0.000 C 
BRANCH  20  21
ATOM     21  C   UNL     1      21.893  34.307  54.533  0.00  0.00    +0.000 A 
ATOM     22  C   UNL     1      23.115  33.872  53.999  0.00  0.00    +0.000 A 
ATOM     23  C   UNL     1      24.190  33.560  54.834  0.00  0.00    +0.000 A 
ATOM     24  C   UNL     1      24.061  33.688  56.215  0.00  0.00    +0.000 A 
ATOM     25  C   UNL     1      22.858  34.126  56.762  0.00  0.00    +0.000 A 
ATOM     26  C   UNL     1      21.782  34.435  55.928  0.00  0.00    +0.000 A 
ENDBRANCH  20  21
BRANCH  20  27
ATOM     27  C   UNL     1      19.355  34.348  54.300  0.00  0.00    +0.000 A 
ATOM     28  C   UNL     1      18.492  35.410  54.621  0.00  0.00    +0.000 A 
ATOM     29  C   UNL     1      17.261  35.170  55.234  0.00  0.00    +0.000 A 
ATOM     30  C   UNL     1      16.878  33.867  55.542  0.00  0.00    +0.000 A 
ATOM     31  C   UNL     1      17.728  32.804  55.244  0.00  0.00    +0.000 A 
ATOM     32  C   UNL     1      18.961  33.041  54.632  0.00  0.00    +0.000 A 
ENDBRANCH  20  27
ENDBRANCH   3  20
TORSDOF 7
ENDMDL
MODEL 2
REMARK VINA RESULT:    -6.037      4.610      7.758
REMARK INTER + INTRA:         -10.652
REMARK INTER:                  -8.477
REMARK INTRA:                  -2.175
REMARK UNBOUND:                -2.144
REMARK  Name = 
REMARK  8 active torsions:
REMARK  status: ('A' for Active; 'I' for Inactive)
REMARK    1  A    between atoms: C_1  and  N_2
REMARK    2  A    between atoms: N_2  and  C_3
REMARK    3  A    between atoms: C_3  and  C_4
REMARK    4  A    between atoms: C_6  and  C_7
REMARK    5  A    between atoms: C_12  and  C_13
REMARK    6  A    between atoms: C_18  and  C_20
REMARK    7  A    between atoms: C_20  and  C_21
REMARK    8  A    between atoms: C_20  and  C_27
REMARK                            x       y       z     vdW  Elec       q    Type
REMARK                         _______ _______ _______ _____ _____    ______ ____
ROOT
ATOM      1  C   UNL     1      21.054  36.587  51.490  0.00  0.00    +0.000 C 
ATOM      2  N   UNL     1      19.979  35.610  51.579  0.00  0.00    +0.000 N 
ATOM      3  C   UNL     1      18.629  35.898  51.353  0.00  0.00    +0.000 C 
ATOM      4  O   UNL     1      17.774  35.011  51.471  0.00  0.00    +0.000 OA
ENDROOT
BRANCH   2   5
ATOM      5  C   UNL     1      20.316  34.313  52.166  0.00  0.00    +0.000 C 
BRANCH   5   6
ATOM      6  C   UNL     1      20.537  34.405  53.660  0.00  0.00    +0.000 A 
ATOM      7  C   UNL     1      19.496  34.820  54.506  0.00  0.00    +0.000 A 
ATOM      8  C   UNL     1      19.690  34.936  55.891  0.00  0.00    +0.000 A 
ATOM      9  C   UNL     1      20.945  34.610  56.429  0.00  0.00    +0.000 A 
ATOM     10  C   UNL     1      21.999  34.184  55.605  0.00  0.00    +0.000 A 
ATOM     11  C   UNL     1      21.784  34.097  54.219  0.00  0.00    +0.000 A 
BRANCH   8  12
ATOM     12  C   UNL     1      18.552  35.375  56.784  0.00  0.00    +0.000 C 
ATOM     13  F   UNL     1      17.404  35.630  56.095  0.00  0.00    +0.000 F 
ATOM     14  F   UNL     1      18.839  36.517  57.466  0.00  0.00    +0.000 F 
ATOM     15  F   UNL     1      18.221  34.445  57.720  0.00  0.00    +0.000 F 
ENDBRANCH   8  12
BRANCH  10  16
ATOM     16  C   UNL     1      23.353  33.862  56.191  0.00  0.00    +0.000 C 
ATOM     17  F   UNL     1      23.305  32.794  57.035  0.00  0.00    +0.000 F 
ATOM     18  F   UNL     1      23.875  34.889  56.919  0.00  0.00    +0.000 F 
ATOM     19  F   UNL     1      24.288  33.557  55.250  0.00  0.00    +0.000 F 
ENDBRANCH  10  16
ENDBRANCH   5   6
ENDBRANCH   2   5
BRANCH   3  20
ATOM     20  C   UNL     1      18.244  37.342  50.939  0.00  0.00    +0.000 C 
BRANCH  20  21
ATOM     21  C   UNL     1      17.947  38.236  52.147  0.00  0.00    +0.000 A 
ATOM     22  C   UNL     1      17.487  37.704  53.361  0.00  0.00    +0.000 A 
ATOM     23  C   UNL     1      17.220  38.537  54.450  0.00  0.00    +0.000 A 
ATOM     24  C   UNL     1      17.419  39.912  54.344  0.00  0.00    +0.000 A 
ATOM     25  C   UNL     1      17.882  40.455  53.149  0.00  0.00    +0.000 A 
ATOM     26  C   UNL     1      18.147  39.624  52.058  0.00  0.00    +0.000 A 
ENDBRANCH  20  21
BRANCH  20  27
ATOM     27  C   UNL     1      17.139  37.394  49.881  0.00  0.00    +0.000 A 
ATOM     28  C   UNL     1      17.475  37.216  48.527  0.00  0.00    +0.000 A 
ATOM     29  C   UNL     1      16.494  37.265  47.536  0.00  0.00    +0.000 A 
ATOM     30  C   UNL     1      15.165  37.500  47.880  0.00  0.00    +0.000 A 
ATOM     31  C   UNL     1      14.818  37.694  49.215  0.00  0.00    +0.000 A 
ATOM     32  C   UNL     1      15.797  37.647  50.209  0.00  0.00    +0.000 A 
ENDBRANCH  20  27
ENDBRANCH   3  20
TORSDOF 7
ENDMDL
MODEL 3
REMARK VINA RESULT:    -6.032      4.572      7.600
REMARK INTER + INTRA:         -10.644
REMARK INTER:                  -8.500
REMARK INTRA:                  -2.144
REMARK UNBOUND:                -2.144
REMARK  Name = 
REMARK  8 active torsions:
REMARK  status: ('A' for Active; 'I' for Inactive)
REMARK    1  A    between atoms: C_1  and  N_2
REMARK    2  A    between atoms: N_2  and  C_3
REMARK    3  A    between atoms: C_3  and  C_4
REMARK    4  A    between atoms: C_6  and  C_7
REMARK    5  A    between atoms: C_12  and  C_13
REMARK    6  A    between atoms: C_18  and  C_20
REMARK    7  A    between atoms: C_20  and  C_21
REMARK    8  A    between atoms: C_20  and  C_27
REMARK                            x       y       z     vdW  Elec       q    Type
REMARK                         _______ _______ _______ _____ _____    ______ ____
ROOT
ATOM      1  C   UNL     1      21.158  36.531  51.493  0.00  0.00    +0.000 C 
ATOM      2  N   UNL     1      20.088  35.549  51.593  0.00  0.00    +0.000 N 
ATOM      3  C   UNL     1      18.738  35.824  51.347  0.00  0.00    +0.000 C 
ATOM      4  O   UNL     1      17.888  34.934  51.477  0.00  0.00    +0.000 OA
ENDROOT
BRANCH   2   5
ATOM      5  C   UNL     1      20.427  34.268  52.211  0.00  0.00    +0.000 C 
BRANCH   5   6
ATOM      6  C   UNL     1      20.619  34.391  53.707  0.00  0.00    +0.000 A 
ATOM      7  C   UNL     1      21.848  34.051  54.294  0.00  0.00    +0.000 A 
ATOM      8  C   UNL     1      22.037  34.135  55.682  0.00  0.00    +0.000 A 
ATOM      9  C   UNL     1      20.977  34.586  56.484  0.00  0.00    +0.000 A 
ATOM     10  C   UNL     1      19.740  34.939  55.920  0.00  0.00    +0.000 A 
ATOM     11  C   UNL     1      19.571  34.826  54.530  0.00  0.00    +0.000 A 
BRANCH   8  12
ATOM     12  C   UNL     1      23.373  33.775  56.291  0.00  0.00    +0.000 C 
ATOM     13  F   UNL     1      23.291  32.750  57.185  0.00  0.00    +0.000 F 
ATOM     14  F   UNL     1      23.932  34.815  56.968  0.00  0.00    +0.000 F 
ATOM     15  F   UNL     1      24.291  33.386  55.365  0.00  0.00    +0.000 F 
ENDBRANCH   8  12
BRANCH  10  16
ATOM     16  C   UNL     1      18.597  35.397  56.795  0.00  0.00    +0.000 C 
ATOM     17  F   UNL     1      17.470  35.652  56.075  0.00  0.00    +0.000 F 
ATOM     18  F   UNL     1      18.874  36.545  57.474  0.00  0.00    +0.000 F 
ATOM     19  F   UNL     1      18.242  34.481  57.738  0.00  0.00    +0.000 F 
ENDBRANCH  10  16
ENDBRANCH   5   6
ENDBRANCH   2   5
BRANCH   3  20
ATOM     20  C   UNL     1      18.349  37.256  50.898  0.00  0.00    +0.000 C 
BRANCH  20  21
ATOM     21  C   UNL     1      18.012  38.168  52.082  0.00  0.00    +0.000 A 
ATOM     22  C   UNL     1      17.543  37.651  53.300  0.00  0.00    +0.000 A 
ATOM     23  C   UNL     1      17.240  38.499  54.366  0.00  0.00    +0.000 A 
ATOM     24  C   UNL     1      17.409  39.876  54.234  0.00  0.00    +0.000 A 
ATOM     25  C   UNL     1      17.880  40.405  53.036  0.00  0.00    +0.000 A 
ATOM     26  C   UNL     1      18.181  39.558  51.967  0.00  0.00    +0.000 A 
ENDBRANCH  20  21
BRANCH  20  27
ATOM     27  C   UNL     1      17.271  37.277  49.812  0.00  0.00    +0.000 A 
ATOM     28  C   UNL     1      17.636  37.034  48.476  0.00  0.00    +0.000 A 
ATOM     29  C   UNL     1      16.680  37.053  47.459  0.00  0.00    +0.000 A 
ATOM     30  C   UNL     1      15.347  37.323  47.760  0.00  0.00    +0.000 A 
ATOM     31  C   UNL     1      14.970  37.581  49.076  0.00  0.00    +0.000 A 
ATOM     32  C   UNL     1      15.925  37.563  50.096  0.00  0.00    +0.000 A 
ENDBRANCH  20  27
ENDBRANCH   3  20
TORSDOF 7
ENDMDL
