MODEL 1
REMARK VINA RESULT:    -7.113      0.000      0.000
REMARK INTER + INTRA:         -10.689
REMARK INTER:                  -9.460
REMARK INTRA:                  -1.230
REMARK UNBOUND:                -1.081
REMARK  Name = 
REMARK  7 active torsions:
REMARK  status: ('A' for Active; 'I' for Inactive)
REMARK    1  A    between atoms: C_1  and  C_2
REMARK    2  A    between atoms: C_7  and  C_8
REMARK    3  A    between atoms: C_13  and  N_14
REMARK    4  A    between atoms: C_17  and  C_18
REMARK    5  A    between atoms: C_18  and  C_19
REMARK    6  A    between atoms: C_22  and  C_23
REMARK    7  A    between atoms: N_25  and  C_26
REMARK                            x       y       z     vdW  Elec       q    Type
REMARK                         _______ _______ _______ _____ _____    ______ ____
ROOT
ATOM      1  N   UNL     1      15.464  39.306  47.676  0.00  0.00    +0.000 NA
ATOM      2  C   UNL     1      14.743  38.035  47.688  0.00  0.00    +0.000 C 
ATOM      3  C   UNL     1      15.447  37.044  48.627  0.00  0.00    +0.000 C 
ATOM      4  C   UNL     1      16.989  37.092  48.538  0.00  0.00    +0.000 C 
ATOM      5  C   UNL     1      17.408  37.776  47.229  0.00  0.00    +0.000 C 
ATOM      6  C   UNL     1      16.798  39.176  47.071  0.00  0.00    +0.000 C 
ENDROOT
BRANCH   1  12
ATOM      7  C   UNL     1      12.415  43.206  44.950  0.00  0.00    +0.000 C 
ATOM      8  O   UNL     1      11.396  42.910  44.333  0.00  0.00    +0.000 OA
ATOM      9  N   UNL     1      13.322  42.275  45.461  0.00  0.00    +0.000 N 
ATOM     10  C   UNL     1      13.081  40.862  45.200  0.00  0.00    +0.000 C 
ATOM     11  C   UNL     1      13.452  39.977  46.387  0.00  0.00    +0.000 C 
ATOM     12  C   UNL     1      14.711  40.456  47.142  0.00  0.00    +0.000 C 
ATOM     13  C   UNL     1      15.526  41.444  46.294  0.00  0.00    +0.000 C 
ATOM     14  C   UNL     1      14.655  42.647  45.935  0.00  0.00    +0.000 C 
BRANCH   7  21
ATOM     15  C   UNL     1      13.899  44.771  42.935  0.00  0.00    +0.000 C 
ATOM     16  C   UNL     1      13.410  45.390  44.213  0.00  0.00    +0.000 A 
ATOM     17  C   UNL     1      13.628  46.752  44.463  0.00  0.00    +0.000 A 
ATOM     18  C   UNL     1      13.152  47.349  45.634  0.00  0.00    +0.000 A 
ATOM     19  C   UNL     1      12.440  46.597  46.568  0.00  0.00    +0.000 A 
ATOM     20  C   UNL     1      12.206  45.243  46.334  0.00  0.00    +0.000 A 
ATOM     21  C   UNL     1      12.698  44.643  45.169  0.00  0.00    +0.000 A 
ENDBRANCH   7  21
ENDBRANCH   1  12
BRANCH   4  22
ATOM     22  C   UNL     1      17.626  37.802  49.754  0.00  0.00    +0.000 C 
BRANCH  22  23
ATOM     23  C   UNL     1      18.438  36.878  50.636  0.00  0.00    +0.000 A 
ATOM     24  C   UNL     1      18.055  36.642  51.963  0.00  0.00    +0.000 A 
ATOM     25  C   UNL     1      18.809  35.794  52.778  0.00  0.00    +0.000 A 
ATOM     26  C   UNL     1      19.951  35.165  52.272  0.00  0.00    +0.000 A 
ATOM     27  C   UNL     1      20.353  35.413  50.954  0.00  0.00    +0.000 A 
ATOM     28  C   UNL     1      19.597  36.261  50.141  0.00  0.00    +0.000 A 
BRANCH  26  29
ATOM     29  C   UNL     1      20.731  34.268  53.172  0.00  0.00    +0.000 C 
ATOM     30  O   UNL     1      20.930  33.114  52.811  0.00  0.00    +0.000 OA
ATOM     31  N   UNL     1      21.189  34.868  54.332  0.00  0.00    +0.000 N 
ATOM     32  H   UNL     1      21.061  35.868  54.408  0.00  0.00    +0.000 HD
BRANCH  31  33
ATOM     33  C   UNL     1      21.899  34.261  55.388  0.00  0.00    +0.000 A 
ATOM     34  C   UNL     1      23.293  34.189  55.265  0.00  0.00    +0.000 A 
ATOM     35  C   UNL     1      24.070  33.612  56.272  0.00  0.00    +0.000 A 
ATOM     36  C   UNL     1      23.460  33.102  57.415  0.00  0.00    +0.000 A 
ATOM     37  C   UNL     1      22.075  33.171  57.548  0.00  0.00    +0.000 A 
ATOM     38  C   UNL     1      21.298  33.747  56.538  0.00  0.00    +0.000 A 
ENDBRANCH  31  33
ENDBRANCH  26  29
ENDBRANCH  22  23
ENDBRANCH   4  22
TORSDOF 6
ENDMDL
MODEL 2
REMARK VINA RESULT:    -7.037      3.492     13.074
REMARK INTER + INTRA:         -10.586
REMARK INTER:                  -9.302
REMARK INTRA:                  -1.284
REMARK UNBOUND:                -1.081
REMARK  Name = 
REMARK  7 active torsions:
REMARK  status: ('A' for Active; 'I' for Inactive)
REMARK    1  A    between atoms: C_1  and  C_2
REMARK    2  A    between atoms: C_7  and  C_8
REMARK    3  A    between atoms: C_13  and  N_14
REMARK    4  A    between atoms: C_17  and  C_18
REMARK    5  A    between atoms: C_18  and  C_19
REMARK    6  A    between atoms: C_22  and  C_23
REMARK    7  A    between atoms: N_25  and  C_26
REMARK                            x       y       z     vdW  Elec       q    Type
REMARK                         _______ _______ _______ _____ _____    ______ ____
ROOT
ATOM      1  N   UNL     1      17.297  38.090  44.058  0.00  0.00    +0.000 NA
ATOM      2  C   UNL     1      17.213  37.319  42.820  0.00  0.00    +0.000 C 
ATOM      3  C   UNL     1      17.109  38.270  41.619  0.00  0.00    +0.000 C 
ATOM      4  C   UNL     1      16.194  39.490  41.869  0.00  0.00    +0.000 C 
ATOM      5  C   UNL     1      15.275  39.207  43.067  0.00  0.00    +0.000 C 
ATOM      6  C   UNL     1      16.054  38.826  44.333  0.00  0.00    +0.000 C 
ENDROOT
BRANCH   1  12
ATOM      7  C   UNL     1      18.403  34.842  48.550  0.00  0.00    +0.000 C 
ATOM      8  O   UNL     1      18.054  33.666  48.595  0.00  0.00    +0.000 OA
ATOM      9  N   UNL     1      17.982  35.750  47.575  0.00  0.00    +0.000 N 
ATOM     10  C   UNL     1      17.022  35.295  46.578  0.00  0.00    +0.000 C 
ATOM     11  C   UNL     1      17.293  35.883  45.195  0.00  0.00    +0.000 C 
ATOM     12  C   UNL     1      17.785  37.346  45.235  0.00  0.00    +0.000 C 
ATOM     13  C   UNL     1      17.493  37.995  46.595  0.00  0.00    +0.000 C 
ATOM     14  C   UNL     1      18.178  37.194  47.701  0.00  0.00    +0.000 C 
BRANCH   7  21
ATOM     15  C   UNL     1      21.324  34.636  48.178  0.00  0.00    +0.000 C 
ATOM     16  C   UNL     1      20.725  35.226  49.422  0.00  0.00    +0.000 A 
ATOM     17  C   UNL     1      21.558  35.725  50.434  0.00  0.00    +0.000 A 
ATOM     18  C   UNL     1      21.015  36.304  51.585  0.00  0.00    +0.000 A 
ATOM     19  C   UNL     1      19.633  36.406  51.737  0.00  0.00    +0.000 A 
ATOM     20  C   UNL     1      18.789  35.923  50.739  0.00  0.00    +0.000 A 
ATOM     21  C   UNL     1      19.333  35.328  49.594  0.00  0.00    +0.000 A 
ENDBRANCH   7  21
ENDBRANCH   1  12
BRANCH   4  22
ATOM     22  C   UNL     1      16.997  40.791  42.092  0.00  0.00    +0.000 C 
BRANCH  22  23
ATOM     23  C   UNL     1      16.132  41.981  42.448  0.00  0.00    +0.000 A 
ATOM     24  C   UNL     1      16.310  42.651  43.666  0.00  0.00    +0.000 A 
ATOM     25  C   UNL     1      15.506  43.744  43.997  0.00  0.00    +0.000 A 
ATOM     26  C   UNL     1      14.520  44.186  43.110  0.00  0.00    +0.000 A 
ATOM     27  C   UNL     1      14.321  43.509  41.900  0.00  0.00    +0.000 A 
ATOM     28  C   UNL     1      15.127  42.415  41.572  0.00  0.00    +0.000 A 
BRANCH  26  29
ATOM     29  C   UNL     1      13.681  45.356  43.497  0.00  0.00    +0.000 C 
ATOM     30  O   UNL     1      12.697  45.617  42.816  0.00  0.00    +0.000 OA
ATOM     31  N   UNL     1      14.099  46.013  44.641  0.00  0.00    +0.000 N 
ATOM     32  H   UNL     1      14.846  45.581  45.167  0.00  0.00    +0.000 HD
BRANCH  31  33
ATOM     33  C   UNL     1      13.542  47.175  45.214  0.00  0.00    +0.000 A 
ATOM     34  C   UNL     1      14.139  48.400  44.883  0.00  0.00    +0.000 A 
ATOM     35  C   UNL     1      13.641  49.598  45.400  0.00  0.00    +0.000 A 
ATOM     36  C   UNL     1      12.539  49.585  46.252  0.00  0.00    +0.000 A 
ATOM     37  C   UNL     1      11.938  48.373  46.584  0.00  0.00    +0.000 A 
ATOM     38  C   UNL     1      12.438  47.173  46.068  0.00  0.00    +0.000 A 
ENDBRANCH  31  33
ENDBRANCH  26  29
ENDBRANCH  22  23
ENDBRANCH   4  22
TORSDOF 6
ENDMDL
MODEL 3
REMARK VINA RESULT:    -7.021      8.317     10.663
REMARK INTER + INTRA:         -10.564
REMARK INTER:                  -9.483
REMARK INTRA:                  -1.081
REMARK UNBOUND:                -1.081
REMARK  Name = 
REMARK  7 active torsions:
REMARK  status: ('A' for Active; 'I' for Inactive)
REMARK    1  A    between atoms: C_1  and  C_2
REMARK    2  A    between atoms: C_7  and  C_8
REMARK    3  A    between atoms: C_13  and  N_14
REMARK    4  A    between atoms: C_17  and  C_18
REMARK    5  A    between atoms: C_18  and  C_19
REMARK    6  A    between atoms: C_22  and  C_23
REMARK    7  A    between atoms: N_25  and  C_26
REMARK                            x       y       z     vdW  Elec       q    Type
REMARK                         _______ _______ _______ _____ _____    ______ ____
ROOT
ATOM      1  N   UNL     1      13.711  44.448  45.454  0.00  0.00    +0.000 NA
ATOM      2  C   UNL     1      12.773  43.669  46.260  0.00  0.00    +0.000 C 
ATOM      3  C   UNL     1      13.308  42.242  46.451  0.00  0.00    +0.000 C 
ATOM      4  C   UNL     1      13.964  41.649  45.183  0.00  0.00    +0.000 C 
ATOM      5  C   UNL     1      13.511  42.444  43.950  0.00  0.00    +0.000 C 
ATOM      6  C   UNL     1      13.801  43.946  44.075  0.00  0.00    +0.000 C 
ENDROOT
BRANCH   1  12
ATOM      7  C   UNL     1      12.839  49.998  44.840  0.00  0.00    +0.000 C 
ATOM      8  O   UNL     1      11.926  50.432  44.144  0.00  0.00    +0.000 OA
ATOM      9  N   UNL     1      13.239  48.660  44.865  0.00  0.00    +0.000 N 
ATOM     10  C   UNL     1      12.573  47.724  43.969  0.00  0.00    +0.000 C 
ATOM     11  C   UNL     1      12.364  46.352  44.607  0.00  0.00    +0.000 C 
ATOM     12  C   UNL     1      13.534  45.911  45.513  0.00  0.00    +0.000 C 
ATOM     13  C   UNL     1      14.795  46.742  45.238  0.00  0.00    +0.000 C 
ATOM     14  C   UNL     1      14.495  48.221  45.475  0.00  0.00    +0.000 C 
BRANCH   7  21
ATOM     15  C   UNL     1      15.303  51.324  43.902  0.00  0.00    +0.000 C 
ATOM     16  C   UNL     1      14.737  51.583  45.269  0.00  0.00    +0.000 A 
ATOM     17  C   UNL     1      15.365  52.498  46.127  0.00  0.00    +0.000 A 
ATOM     18  C   UNL     1      14.833  52.772  47.390  0.00  0.00    +0.000 A 
ATOM     19  C   UNL     1      13.660  52.147  47.811  0.00  0.00    +0.000 A 
ATOM     20  C   UNL     1      13.017  51.241  46.969  0.00  0.00    +0.000 A 
ATOM     21  C   UNL     1      13.560  50.954  45.711  0.00  0.00    +0.000 A 
ENDBRANCH   7  21
ENDBRANCH   1  12
BRANCH   4  22
ATOM     22  C   UNL     1      15.506  41.619  45.279  0.00  0.00    +0.000 C 
BRANCH  22  23
ATOM     23  C   UNL     1      16.164  40.828  44.169  0.00  0.00    +0.000 A 
ATOM     24  C   UNL     1      16.657  41.477  43.029  0.00  0.00    +0.000 A 
ATOM     25  C   UNL     1      17.257  40.746  42.001  0.00  0.00    +0.000 A 
ATOM     26  C   UNL     1      17.379  39.357  42.105  0.00  0.00    +0.000 A 
ATOM     27  C   UNL     1      16.870  38.698  43.231  0.00  0.00    +0.000 A 
ATOM     28  C   UNL     1      16.270  39.433  44.257  0.00  0.00    +0.000 A 
BRANCH  26  29
ATOM     29  C   UNL     1      18.025  38.610  40.988  0.00  0.00    +0.000 C 
ATOM     30  O   UNL     1      17.675  37.455  40.782  0.00  0.00    +0.000 OA
ATOM     31  N   UNL     1      18.950  39.341  40.263  0.00  0.00    +0.000 N 
ATOM     32  H   UNL     1      19.016  40.328  40.472  0.00  0.00    +0.000 HD
BRANCH  31  33
ATOM     33  C   UNL     1      19.753  38.889  39.196  0.00  0.00    +0.000 A 
ATOM     34  C   UNL     1      20.715  37.912  39.488  0.00  0.00    +0.000 A 
ATOM     35  C   UNL     1      21.543  37.404  38.484  0.00  0.00    +0.000 A 
ATOM     36  C   UNL     1      21.418  37.867  37.177  0.00  0.00    +0.000 A 
ATOM     37  C   UNL     1      20.464  38.836  36.876  0.00  0.00    +0.000 A 
ATOM     38  C   UNL     1      19.635  39.346  37.882  0.00  0.00    +0.000 A 
ENDBRANCH  31  33
ENDBRANCH  26  29
ENDBRANCH  22  23
ENDBRANCH   4  22
TORSDOF 6
ENDMDL
