MODEL 1
REMARK VINA RESULT:    -7.118      0.000      0.000
REMARK INTER + INTRA:         -10.729
REMARK INTER:                  -9.632
REMARK INTRA:                  -1.096
REMARK UNBOUND:                -1.114
REMARK  Name = 
REMARK  7 active torsions:
REMARK  status: ('A' for Active; 'I' for Inactive)
REMARK    1  A    between atoms: C_1  and  C_2
REMARK    2  A    between atoms: C_5  and  C_6
REMARK    3  A    between atoms: C_9  and  S_10
REMARK    4  A    between atoms: S_10  and  C_11
REMARK    5  A    between atoms: C_11  and  C_12
REMARK    6  A    between atoms: C_15  and  C_16
REMARK    7  A    between atoms: C_21  and  C_22
REMARK                            x       y       z     vdW  Elec       q    Type
REMARK                         _______ _______ _______ _____ _____    ______ ____
ROOT
ATOM      1  C   UNL     1      18.978  36.657  50.517  0.00  0.00    +0.000 A 
ATOM      2  C   UNL     1      19.958  36.984  51.464  0.00  0.00    +0.000 A 
ATOM      3  C   UNL     1      21.197  36.338  51.457  0.00  0.00    +0.000 A 
ATOM      4  C   UNL     1      21.485  35.349  50.507  0.00  0.00    +0.000 A 
ATOM      5  C   UNL     1      20.503  35.024  49.560  0.00  0.00    +0.000 A 
ATOM      6  C   UNL     1      19.262  35.666  49.569  0.00  0.00    +0.000 A 
ENDROOT
BRANCH   4   7
ATOM      7  C   UNL     1      22.802  34.693  50.480  0.00  0.00    +0.000 A 
ATOM      8  C   UNL     1      23.803  35.277  49.673  0.00  0.00    +0.000 A 
ATOM      9  C   UNL     1      25.093  34.749  49.616  0.00  0.00    +0.000 A 
ATOM     10  C   UNL     1      25.412  33.627  50.369  0.00  0.00    +0.000 A 
ATOM     11  C   UNL     1      24.438  33.031  51.172  0.00  0.00    +0.000 A 
ATOM     12  C   UNL     1      23.125  33.544  51.238  0.00  0.00    +0.000 A 
BRANCH  12  13
ATOM     13  C   UNL     1      22.156  32.849  52.088  0.00  0.00    +0.000 A 
ATOM     14  N   UNL     1      22.004  33.082  53.436  0.00  0.00    +0.000 NA
ATOM     15  N   UNL     1      21.020  32.303  53.860  0.00  0.00    +0.000 NA
ATOM     16  N   UNL     1      20.621  31.649  52.767  0.00  0.00    +0.000 N 
ATOM     17  N   UNL     1      21.267  31.944  51.631  0.00  0.00    +0.000 NA
ATOM     18  H   UNL     1      19.865  30.970  52.799  0.00  0.00    +0.000 HD
ENDBRANCH  12  13
ENDBRANCH   4   7
BRANCH   1  19
ATOM     19  C   UNL     1      17.642  37.360  50.516  0.00  0.00    +0.000 C 
BRANCH  19  20
ATOM     20  S   UNL     1      16.814  37.335  52.129  0.00  0.00    +0.000 S 
BRANCH  20  24
ATOM     21  C   UNL     1      16.459  41.024  53.070  0.00  0.00    +0.000 A 
ATOM     22  N   UNL     1      17.755  40.891  53.263  0.00  0.00    +0.000 NA
ATOM     23  N   UNL     1      18.061  39.579  52.964  0.00  0.00    +0.000 NA
ATOM     24  C   UNL     1      16.935  39.001  52.597  0.00  0.00    +0.000 A 
ATOM     25  O   UNL     1      15.867  39.859  52.658  0.00  0.00    +0.000 OA
BRANCH  21  30
ATOM     26  C   UNL     1      12.983  45.609  53.660  0.00  0.00    +0.000 C 
ATOM     27  C   UNL     1      13.895  44.426  53.529  0.00  0.00    +0.000 A 
ATOM     28  C   UNL     1      13.382  43.126  53.595  0.00  0.00    +0.000 A 
ATOM     29  C   UNL     1      14.228  42.023  53.446  0.00  0.00    +0.000 A 
ATOM     30  C   UNL     1      15.601  42.194  53.217  0.00  0.00    +0.000 A 
ATOM     31  C   UNL     1      16.105  43.500  53.135  0.00  0.00    +0.000 A 
ATOM     32  C   UNL     1      15.259  44.604  53.284  0.00  0.00    +0.000 A 
ENDBRANCH  21  30
ENDBRANCH  20  24
ENDBRANCH  19  20
ENDBRANCH   1  19
TORSDOF 6
ENDMDL
MODEL 2
REMARK VINA RESULT:    -6.954      2.613      3.663
REMARK INTER + INTRA:         -10.507
REMARK INTER:                  -9.420
REMARK INTRA:                  -1.087
REMARK UNBOUND:                -1.114
REMARK  Name = 
REMARK  7 active torsions:
REMARK  status: ('A' for Active; 'I' for Inactive)
REMARK    1  A    between atoms: C_1  and  C_2
REMARK    2  A    between atoms: C_5  and  C_6
REMARK    3  A    between atoms: C_9  and  S_10
REMARK    4  A    between atoms: S_10  and  C_11
REMARK    5  A    between atoms: C_11  and  C_12
REMARK    6  A    between atoms: C_15  and  C_16
REMARK    7  A    between atoms: C_21  and  C_22
REMARK                            x       y       z     vdW  Elec       q    Type
REMARK                         _______ _______ _______ _____ _____    ______ ____
ROOT
ATOM      1  C   UNL     1      18.717  36.510  50.488  0.00  0.00    +0.000 A 
ATOM      2  C   UNL     1      19.102  35.641  49.458  0.00  0.00    +0.000 A 
ATOM      3  C   UNL     1      20.398  35.120  49.414  0.00  0.00    +0.000 A 
ATOM      4  C   UNL     1      21.340  35.458  50.395  0.00  0.00    +0.000 A 
ATOM      5  C   UNL     1      20.952  36.328  51.423  0.00  0.00    +0.000 A 
ATOM      6  C   UNL     1      19.658  36.853  51.466  0.00  0.00    +0.000 A 
ENDROOT
BRANCH   4   7
ATOM      7  C   UNL     1      22.694  34.883  50.365  0.00  0.00    +0.000 A 
ATOM      8  C   UNL     1      23.616  35.438  49.452  0.00  0.00    +0.000 A 
ATOM      9  C   UNL     1      24.934  34.986  49.380  0.00  0.00    +0.000 A 
ATOM     10  C   UNL     1      25.360  33.970  50.226  0.00  0.00    +0.000 A 
ATOM     11  C   UNL     1      24.465  33.405  51.135  0.00  0.00    +0.000 A 
ATOM     12  C   UNL     1      23.126  33.841  51.218  0.00  0.00    +0.000 A 
BRANCH  12  13
ATOM     13  C   UNL     1      22.246  33.182  52.185  0.00  0.00    +0.000 A 
ATOM     14  N   UNL     1      22.312  33.373  53.546  0.00  0.00    +0.000 NA
ATOM     15  N   UNL     1      21.347  32.648  54.091  0.00  0.00    +0.000 NA
ATOM     16  N   UNL     1      20.744  32.065  53.053  0.00  0.00    +0.000 N 
ATOM     17  N   UNL     1      21.235  32.359  51.841  0.00  0.00    +0.000 NA
ATOM     18  H   UNL     1      19.953  31.439  53.179  0.00  0.00    +0.000 HD
ENDBRANCH  12  13
ENDBRANCH   4   7
BRANCH   1  19
ATOM     19  C   UNL     1      17.315  37.066  50.542  0.00  0.00    +0.000 C 
BRANCH  19  20
ATOM     20  S   UNL     1      17.236  38.853  50.246  0.00  0.00    +0.000 S 
BRANCH  20  24
ATOM     21  C   UNL     1      17.364  39.608  53.992  0.00  0.00    +0.000 A 
ATOM     22  N   UNL     1      17.477  40.839  53.535  0.00  0.00    +0.000 NA
ATOM     23  N   UNL     1      17.452  40.746  52.158  0.00  0.00    +0.000 NA
ATOM     24  C   UNL     1      17.313  39.469  51.866  0.00  0.00    +0.000 A 
ATOM     25  O   UNL     1      17.269  38.682  52.987  0.00  0.00    +0.000 OA
BRANCH  21  30
ATOM     26  C   UNL     1      17.191  37.566  59.401  0.00  0.00    +0.000 C 
ATOM     27  C   UNL     1      17.257  38.108  58.004  0.00  0.00    +0.000 A 
ATOM     28  C   UNL     1      17.490  37.251  56.923  0.00  0.00    +0.000 A 
ATOM     29  C   UNL     1      17.524  37.752  55.618  0.00  0.00    +0.000 A 
ATOM     30  C   UNL     1      17.318  39.115  55.363  0.00  0.00    +0.000 A 
ATOM     31  C   UNL     1      17.068  39.965  56.451  0.00  0.00    +0.000 A 
ATOM     32  C   UNL     1      17.033  39.465  57.757  0.00  0.00    +0.000 A 
ENDBRANCH  21  30
ENDBRANCH  20  24
ENDBRANCH  19  20
ENDBRANCH   1  19
TORSDOF 6
ENDMDL
MODEL 3
REMARK VINA RESULT:    -6.948      7.153      9.479
REMARK INTER + INTRA:         -10.500
REMARK INTER:                  -9.385
REMARK INTRA:                  -1.114
REMARK UNBOUND:                -1.114
REMARK  Name = 
REMARK  7 active torsions:
REMARK  status: ('A' for Active; 'I' for Inactive)
REMARK    1  A    between atoms: C_1  and  C_2
REMARK    2  A    between atoms: C_5  and  C_6
REMARK    3  A    between atoms: C_9  and  S_10
REMARK    4  A    between atoms: S_10  and  C_11
REMARK    5  A    between atoms: C_11  and  C_12
REMARK    6  A    between atoms: C_15  and  C_16
REMARK    7  A    between atoms: C_21  and  C_22
REMARK                            x       y       z     vdW  Elec       q    Type
REMARK                         _______ _______ _______ _____ _____    ______ ____
ROOT
ATOM      1  C   UNL     1      13.015  40.730  49.607  0.00  0.00    +0.000 A 
ATOM      2  C   UNL     1      14.405  40.599  49.495  0.00  0.00    +0.000 A 
ATOM      3  C   UNL     1      15.189  40.333  50.620  0.00  0.00    +0.000 A 
ATOM      4  C   UNL     1      14.603  40.195  51.886  0.00  0.00    +0.000 A 
ATOM      5  C   UNL     1      13.211  40.326  51.996  0.00  0.00    +0.000 A 
ATOM      6  C   UNL     1      12.427  40.596  50.872  0.00  0.00    +0.000 A 
ENDROOT
BRANCH   4   7
ATOM      7  C   UNL     1      15.425  39.882  53.065  0.00  0.00    +0.000 A 
ATOM      8  C   UNL     1      15.665  38.520  53.348  0.00  0.00    +0.000 A 
ATOM      9  C   UNL     1      16.466  38.128  54.421  0.00  0.00    +0.000 A 
ATOM     10  C   UNL     1      17.049  39.092  55.233  0.00  0.00    +0.000 A 
ATOM     11  C   UNL     1      16.824  40.445  54.974  0.00  0.00    +0.000 A 
ATOM     12  C   UNL     1      16.010  40.862  53.900  0.00  0.00    +0.000 A 
BRANCH  12  13
ATOM     13  C   UNL     1      15.807  42.300  53.708  0.00  0.00    +0.000 A 
ATOM     14  N   UNL     1      15.037  43.089  54.531  0.00  0.00    +0.000 NA
ATOM     15  N   UNL     1      15.116  44.329  54.071  0.00  0.00    +0.000 NA
ATOM     16  N   UNL     1      15.922  44.239  53.012  0.00  0.00    +0.000 N 
ATOM     17  N   UNL     1      16.400  43.019  52.733  0.00  0.00    +0.000 NA
ATOM     18  H   UNL     1      16.162  45.054  52.454  0.00  0.00    +0.000 HD
ENDBRANCH  12  13
ENDBRANCH   4   7
BRANCH   1  19
ATOM     19  C   UNL     1      12.166  41.007  48.391  0.00  0.00    +0.000 C 
BRANCH  19  20
ATOM     20  S   UNL     1      12.949  40.505  46.835  0.00  0.00    +0.000 S 
BRANCH  20  24
ATOM     21  C   UNL     1      13.779  44.109  45.866  0.00  0.00    +0.000 A 
ATOM     22  N   UNL     1      14.763  43.500  45.235  0.00  0.00    +0.000 NA
ATOM     23  N   UNL     1      14.612  42.152  45.491  0.00  0.00    +0.000 NA
ATOM     24  C   UNL     1      13.541  42.026  46.248  0.00  0.00    +0.000 A 
ATOM     25  O   UNL     1      12.969  43.236  46.543  0.00  0.00    +0.000 OA
BRANCH  21  30
ATOM     26  C   UNL     1      12.512  49.748  46.091  0.00  0.00    +0.000 C 
ATOM     27  C   UNL     1      12.821  48.283  46.017  0.00  0.00    +0.000 A 
ATOM     28  C   UNL     1      13.998  47.838  45.405  0.00  0.00    +0.000 A 
ATOM     29  C   UNL     1      14.299  46.474  45.360  0.00  0.00    +0.000 A 
ATOM     30  C   UNL     1      13.439  45.526  45.933  0.00  0.00    +0.000 A 
ATOM     31  C   UNL     1      12.270  45.981  46.560  0.00  0.00    +0.000 A 
ATOM     32  C   UNL     1      11.967  47.346  46.606  0.00  0.00    +0.000 A 
ENDBRANCH  21  30
ENDBRANCH  20  24
ENDBRANCH  19  20
ENDBRANCH   1  19
TORSDOF 6
ENDMDL
