MODEL 1
REMARK VINA RESULT:    -6.491      0.000      0.000
REMARK INTER + INTRA:          -9.819
REMARK INTER:                  -9.110
REMARK INTRA:                  -0.709
REMARK UNBOUND:                -1.052
REMARK  Name = 
REMARK  8 active torsions:
REMARK  status: ('A' for Active; 'I' for Inactive)
REMARK    1  A    between atoms: C_1  and  C_2
REMARK    2  A    between atoms: C_2  and  N_3
REMARK    3  A    between atoms: N_3  and  C_4
REMARK    4  A    between atoms: N_3  and  C_6
REMARK    5  A    between atoms: C_4  and  C_5
REMARK    6  A    between atoms: C_9  and  N_10
REMARK    7  A    between atoms: C_13  and  N_14
REMARK    8  A    between atoms: N_14  and  C_15
REMARK                            x       y       z     vdW  Elec       q    Type
REMARK                         _______ _______ _______ _____ _____    ______ ____
ROOT
ATOM      1  N   UNL     1      18.162  37.595  50.711  0.00  0.00    +0.000 N 
ATOM      2  C   UNL     1      17.880  38.178  51.932  0.00  0.00    +0.000 A 
ATOM      3  N   UNL     1      17.704  39.499  51.897  0.00  0.00    +0.000 NA
ATOM      4  C   UNL     1      17.411  40.132  53.048  0.00  0.00    +0.000 A 
ATOM      5  C   UNL     1      17.313  39.446  54.270  0.00  0.00    +0.000 A 
ATOM      6  C   UNL     1      17.042  40.040  55.532  0.00  0.00    +0.000 A 
ATOM      7  C   UNL     1      16.964  39.262  56.685  0.00  0.00    +0.000 A 
ATOM      8  C   UNL     1      17.158  37.891  56.594  0.00  0.00    +0.000 A 
ATOM      9  C   UNL     1      17.435  37.312  55.353  0.00  0.00    +0.000 A 
ATOM     10  C   UNL     1      17.519  38.068  54.190  0.00  0.00    +0.000 A 
ATOM     11  N   UNL     1      17.796  37.445  53.043  0.00  0.00    +0.000 NA
ATOM     12  H   UNL     1      18.411  38.357  50.091  0.00  0.00    +0.000 HD
ENDROOT
BRANCH   1  16
ATOM     13  C   UNL     1      21.039  34.446  50.255  0.00  0.00    +0.000 C 
ATOM     14  C   UNL     1      21.522  35.836  50.687  0.00  0.00    +0.000 C 
ATOM     15  C   UNL     1      20.384  36.649  51.317  0.00  0.00    +0.000 C 
ATOM     16  C   UNL     1      19.027  36.423  50.629  0.00  0.00    +0.000 C 
ATOM     17  C   UNL     1      19.154  35.864  49.209  0.00  0.00    +0.000 C 
ATOM     18  C   UNL     1      19.928  34.543  49.179  0.00  0.00    +0.000 C 
BRANCH  13  19
ATOM     19  N   UNL     1      22.082  33.490  49.840  0.00  0.00    +0.000 NA
BRANCH  19  21
ATOM     20  C   UNL     1      23.324  34.345  47.756  0.00  0.00    +0.000 C 
ATOM     21  C   UNL     1      23.301  34.075  49.261  0.00  0.00    +0.000 C 
ENDBRANCH  19  21
BRANCH  19  22
ATOM     22  C   UNL     1      22.309  32.431  50.831  0.00  0.00    +0.000 C 
ATOM     23  C   UNL     1      23.464  32.742  51.780  0.00  0.00    +0.000 C 
ENDBRANCH  19  22
ENDBRANCH  13  19
ENDBRANCH   1  16
BRANCH   4  24
ATOM     24  N   UNL     1      17.174  41.537  53.029  0.00  0.00    +0.000 N 
ATOM     25  H   UNL     1      17.957  41.996  53.485  0.00  0.00    +0.000 HD
BRANCH  24  26
ATOM     26  C   UNL     1      15.957  42.216  53.256  0.00  0.00    +0.000 A 
ATOM     27  C   UNL     1      14.729  41.550  53.348  0.00  0.00    +0.000 A 
ATOM     28  C   UNL     1      13.532  42.258  53.507  0.00  0.00    +0.000 A 
ATOM     29  C   UNL     1      13.542  43.651  53.551  0.00  0.00    +0.000 A 
ATOM     30 CL   UNL     1      12.031  44.464  53.748  0.00  0.00    +0.000 Cl
ATOM     31  C   UNL     1      14.753  44.335  53.424  0.00  0.00    +0.000 A 
ATOM     32 CL   UNL     1      14.850  46.060  53.445  0.00  0.00    +0.000 Cl
ATOM     33  C   UNL     1      15.948  43.619  53.265  0.00  0.00    +0.000 A 
ENDBRANCH  24  26
ENDBRANCH   4  24
TORSDOF 6
ENDMDL
MODEL 2
REMARK VINA RESULT:    -5.725     10.596     15.372
REMARK INTER + INTRA:          -8.785
REMARK INTER:                  -7.597
REMARK INTRA:                  -1.189
REMARK UNBOUND:                -1.052
REMARK  Name = 
REMARK  8 active torsions:
REMARK  status: ('A' for Active; 'I' for Inactive)
REMARK    1  A    between atoms: C_1  and  C_2
REMARK    2  A    between atoms: C_2  and  N_3
REMARK    3  A    between atoms: N_3  and  C_4
REMARK    4  A    between atoms: N_3  and  C_6
REMARK    5  A    between atoms: C_4  and  C_5
REMARK    6  A    between atoms: C_9  and  N_10
REMARK    7  A    between atoms: C_13  and  N_14
REMARK    8  A    between atoms: N_14  and  C_15
REMARK                            x       y       z     vdW  Elec       q    Type
REMARK                         _______ _______ _______ _____ _____    ______ ____
ROOT
ATOM      1  N   UNL     1      13.503  45.749  45.236  0.00  0.00    +0.000 N 
ATOM      2  C   UNL     1      13.816  45.156  44.027  0.00  0.00    +0.000 A 
ATOM      3  N   UNL     1      14.908  44.391  44.043  0.00  0.00    +0.000 NA
ATOM      4  C   UNL     1      15.265  43.769  42.904  0.00  0.00    +0.000 A 
ATOM      5  C   UNL     1      14.539  43.925  41.712  0.00  0.00    +0.000 A 
ATOM      6  C   UNL     1      14.864  43.335  40.461  0.00  0.00    +0.000 A 
ATOM      7  C   UNL     1      14.069  43.556  39.339  0.00  0.00    +0.000 A 
ATOM      8  C   UNL     1      12.949  44.367  39.449  0.00  0.00    +0.000 A 
ATOM      9  C   UNL     1      12.638  44.955  40.678  0.00  0.00    +0.000 A 
ATOM     10  C   UNL     1      13.417  44.751  41.810  0.00  0.00    +0.000 A 
ATOM     11  N   UNL     1      13.061  45.353  42.946  0.00  0.00    +0.000 NA
ATOM     12  H   UNL     1      14.330  45.654  45.814  0.00  0.00    +0.000 HD
ENDROOT
BRANCH   1  16
ATOM     13  C   UNL     1      11.997  49.743  45.663  0.00  0.00    +0.000 C 
ATOM     14  C   UNL     1      13.510  49.530  45.525  0.00  0.00    +0.000 C 
ATOM     15  C   UNL     1      13.823  48.188  44.852  0.00  0.00    +0.000 C 
ATOM     16  C   UNL     1      12.866  47.061  45.277  0.00  0.00    +0.000 C 
ATOM     17  C   UNL     1      12.147  47.343  46.600  0.00  0.00    +0.000 C 
ATOM     18  C   UNL     1      11.352  48.651  46.553  0.00  0.00    +0.000 C 
BRANCH  13  19
ATOM     19  N   UNL     1      11.560  51.085  46.090  0.00  0.00    +0.000 NA
BRANCH  19  21
ATOM     20  C   UNL     1      12.640  51.977  48.246  0.00  0.00    +0.000 C 
ATOM     21  C   UNL     1      12.588  51.929  46.719  0.00  0.00    +0.000 C 
ENDBRANCH  19  21
BRANCH  19  22
ATOM     22  C   UNL     1      10.731  51.759  45.083  0.00  0.00    +0.000 C 
ATOM     23  C   UNL     1      10.591  50.956  43.793  0.00  0.00    +0.000 C 
ENDBRANCH  19  22
ENDBRANCH  13  19
ENDBRANCH   1  16
BRANCH   4  24
ATOM     24  N   UNL     1      16.402  42.911  42.907  0.00  0.00    +0.000 N 
ATOM     25  H   UNL     1      16.987  43.157  42.113  0.00  0.00    +0.000 HD
BRANCH  24  26
ATOM     26  C   UNL     1      16.447  41.527  43.188  0.00  0.00    +0.000 A 
ATOM     27  C   UNL     1      15.983  40.989  44.393  0.00  0.00    +0.000 A 
ATOM     28  C   UNL     1      16.102  39.622  44.669  0.00  0.00    +0.000 A 
ATOM     29  C   UNL     1      16.713  38.772  43.748  0.00  0.00    +0.000 A 
ATOM     30 CL   UNL     1      16.828  37.096  44.148  0.00  0.00    +0.000 Cl
ATOM     31  C   UNL     1      17.214  39.297  42.555  0.00  0.00    +0.000 A 
ATOM     32 CL   UNL     1      18.006  38.316  41.372  0.00  0.00    +0.000 Cl
ATOM     33  C   UNL     1      17.092  40.667  42.287  0.00  0.00    +0.000 A 
ENDBRANCH  24  26
ENDBRANCH   4  24
TORSDOF 6
ENDMDL
MODEL 3
REMARK VINA RESULT:    -5.325      5.007      6.897
REMARK INTER + INTRA:          -8.244
REMARK INTER:                  -7.193
REMARK INTRA:                  -1.052
REMARK UNBOUND:                -1.052
REMARK  Name = 
REMARK  8 active torsions:
REMARK  status: ('A' for Active; 'I' for Inactive)
REMARK    1  A    between atoms: C_1  and  C_2
REMARK    2  A    between atoms: C_2  and  N_3
REMARK    3  A    between atoms: N_3  and  C_4
REMARK    4  A    between atoms: N_3  and  C_6
REMARK    5  A    between atoms: C_4  and  C_5
REMARK    6  A    between atoms: C_9  and  N_10
REMARK    7  A    between atoms: C_13  and  N_14
REMARK    8  A    between atoms: N_14  and  C_15
REMARK                            x       y       z     vdW  Elec       q    Type
REMARK                         _______ _______ _______ _____ _____    ______ ____
ROOT
ATOM      1  N   UNL     1      15.111  39.061  47.878  0.00  0.00    +0.000 N 
ATOM      2  C   UNL     1      16.043  38.669  48.820  0.00  0.00    +0.000 A 
ATOM      3  N   UNL     1      15.988  39.332  49.976  0.00  0.00    +0.000 NA
ATOM      4  C   UNL     1      16.856  38.992  50.946  0.00  0.00    +0.000 A 
ATOM      5  C   UNL     1      17.822  37.988  50.762  0.00  0.00    +0.000 A 
ATOM      6  C   UNL     1      18.795  37.592  51.717  0.00  0.00    +0.000 A 
ATOM      7  C   UNL     1      19.707  36.579  51.430  0.00  0.00    +0.000 A 
ATOM      8  C   UNL     1      19.660  35.955  50.191  0.00  0.00    +0.000 A 
ATOM      9  C   UNL     1      18.709  36.354  49.250  0.00  0.00    +0.000 A 
ATOM     10  C   UNL     1      17.790  37.364  49.513  0.00  0.00    +0.000 A 
ATOM     11  N   UNL     1      16.918  37.696  48.561  0.00  0.00    +0.000 NA
ATOM     12  H   UNL     1      14.743  39.948  48.204  0.00  0.00    +0.000 HD
ENDROOT
BRANCH   1  16
ATOM     13  C   UNL     1      15.806  39.343  43.654  0.00  0.00    +0.000 C 
ATOM     14  C   UNL     1      15.966  40.600  44.519  0.00  0.00    +0.000 C 
ATOM     15  C   UNL     1      16.225  40.236  45.986  0.00  0.00    +0.000 C 
ATOM     16  C   UNL     1      15.425  39.008  46.454  0.00  0.00    +0.000 C 
ATOM     17  C   UNL     1      14.206  38.709  45.577  0.00  0.00    +0.000 C 
ATOM     18  C   UNL     1      14.592  38.495  44.110  0.00  0.00    +0.000 C 
BRANCH  13  19
ATOM     19  N   UNL     1      15.774  39.552  42.195  0.00  0.00    +0.000 NA
BRANCH  19  21
ATOM     20  C   UNL     1      13.888  40.581  40.782  0.00  0.00    +0.000 C 
ATOM     21  C   UNL     1      15.074  40.759  41.730  0.00  0.00    +0.000 C 
ENDBRANCH  19  21
BRANCH  19  22
ATOM     22  C   UNL     1      17.072  39.299  41.557  0.00  0.00    +0.000 C 
ATOM     23  C   UNL     1      17.862  38.184  42.236  0.00  0.00    +0.000 C 
ENDBRANCH  19  22
ENDBRANCH  13  19
ENDBRANCH   1  16
BRANCH   4  24
ATOM     24  N   UNL     1      16.787  39.655  52.204  0.00  0.00    +0.000 N 
ATOM     25  H   UNL     1      17.087  39.003  52.923  0.00  0.00    +0.000 HD
BRANCH  24  26
ATOM     26  C   UNL     1      15.783  40.532  52.672  0.00  0.00    +0.000 A 
ATOM     27  C   UNL     1      14.470  40.111  52.916  0.00  0.00    +0.000 A 
ATOM     28  C   UNL     1      13.481  41.018  53.314  0.00  0.00    +0.000 A 
ATOM     29  C   UNL     1      13.786  42.372  53.450  0.00  0.00    +0.000 A 
ATOM     30 CL   UNL     1      12.521  43.439  53.944  0.00  0.00    +0.000 Cl
ATOM     31  C   UNL     1      15.081  42.816  53.175  0.00  0.00    +0.000 A 
ATOM     32 CL   UNL     1      15.535  44.480  53.296  0.00  0.00    +0.000 Cl
ATOM     33  C   UNL     1      16.066  41.902  52.776  0.00  0.00    +0.000 A 
ENDBRANCH  24  26
ENDBRANCH   4  24
TORSDOF 6
ENDMDL
