MODEL 1
REMARK VINA RESULT:    -6.206      0.000      0.000
REMARK INTER + INTRA:          -9.270
REMARK INTER:                  -8.236
REMARK INTRA:                  -1.034
REMARK UNBOUND:                -1.069
REMARK  Name = 
REMARK  7 active torsions:
REMARK  status: ('A' for Active; 'I' for Inactive)
REMARK    1  A    between atoms: C_1  and  C_2
REMARK    2  A    between atoms: C_5  and  C_6
REMARK    3  A    between atoms: C_6  and  C_8
REMARK    4  A    between atoms: C_11  and  C_12
REMARK    5  A    between atoms: C_12  and  C_14
REMARK    6  A    between atoms: C_17  and  C_18
REMARK    7  A    between atoms: C_18  and  O_20
REMARK                            x       y       z     vdW  Elec       q    Type
REMARK                         _______ _______ _______ _____ _____    ______ ____
ROOT
ATOM      1  C   UNL     1      17.609  36.194  54.140  0.00  0.00    +0.000 A 
ATOM      2  C   UNL     1      17.537  37.515  54.599  0.00  0.00    +0.000 A 
ATOM      3  C   UNL     1      17.064  38.524  53.757  0.00  0.00    +0.000 A 
ATOM      4  C   UNL     1      16.660  38.219  52.453  0.00  0.00    +0.000 A 
ATOM      5  C   UNL     1      16.692  36.892  52.007  0.00  0.00    +0.000 A 
ATOM      6  C   UNL     1      17.166  35.881  52.849  0.00  0.00    +0.000 A 
ENDROOT
BRANCH   1   7
ATOM      7  C   UNL     1      18.101  35.147  55.073  0.00  0.00    +0.000 C 
ATOM      8  O   UNL     1      17.288  34.484  55.713  0.00  0.00    +0.000 OA
BRANCH   7  13
ATOM      9  C   UNL     1      23.765  34.077  55.623  0.00  0.00    +0.000 C 
ATOM     10  C   UNL     1      22.292  34.328  55.493  0.00  0.00    +0.000 A 
ATOM     11  C   UNL     1      21.698  34.411  54.227  0.00  0.00    +0.000 A 
ATOM     12  C   UNL     1      20.331  34.672  54.104  0.00  0.00    +0.000 A 
ATOM     13  C   UNL     1      19.550  34.879  55.245  0.00  0.00    +0.000 A 
ATOM     14  C   UNL     1      20.136  34.792  56.513  0.00  0.00    +0.000 A 
ATOM     15  C   UNL     1      21.502  34.529  56.633  0.00  0.00    +0.000 A 
ENDBRANCH   7  13
ENDBRANCH   1   7
BRANCH   4  16
ATOM     16  C   UNL     1      16.146  39.319  51.595  0.00  0.00    +0.000 C 
ATOM     17  O   UNL     1      16.085  39.154  50.380  0.00  0.00    +0.000 OA
BRANCH  16  18
ATOM     18  C   UNL     1      15.706  40.614  52.170  0.00  0.00    +0.000 A 
ATOM     19  C   UNL     1      16.633  41.660  52.244  0.00  0.00    +0.000 A 
ATOM     20  C   UNL     1      16.255  42.901  52.766  0.00  0.00    +0.000 A 
ATOM     21  C   UNL     1      14.941  43.105  53.205  0.00  0.00    +0.000 A 
ATOM     22  C   UNL     1      14.008  42.063  53.110  0.00  0.00    +0.000 A 
ATOM     23  C   UNL     1      14.385  40.822  52.588  0.00  0.00    +0.000 A 
BRANCH  21  24
ATOM     24  C   UNL     1      14.490  44.403  53.766  0.00  0.00    +0.000 C 
ATOM     25  O   UNL     1      13.350  44.675  54.093  0.00  0.00    +0.000 OA
BRANCH  24  26
ATOM     26  O   UNL     1      15.489  45.293  53.892  0.00  0.00    +0.000 OA
ATOM     27  H   UNL     1      15.676  45.574  52.972  0.00  0.00    +0.000 HD
ENDBRANCH  24  26
ENDBRANCH  21  24
ENDBRANCH  16  18
ENDBRANCH   4  16
TORSDOF 6
ENDMDL
MODEL 2
REMARK VINA RESULT:    -6.202      1.667      2.437
REMARK INTER + INTRA:          -9.266
REMARK INTER:                  -8.159
REMARK INTRA:                  -1.107
REMARK UNBOUND:                -1.069
REMARK  Name = 
REMARK  7 active torsions:
REMARK  status: ('A' for Active; 'I' for Inactive)
REMARK    1  A    between atoms: C_1  and  C_2
REMARK    2  A    between atoms: C_5  and  C_6
REMARK    3  A    between atoms: C_6  and  C_8
REMARK    4  A    between atoms: C_11  and  C_12
REMARK    5  A    between atoms: C_12  and  C_14
REMARK    6  A    between atoms: C_17  and  C_18
REMARK    7  A    between atoms: C_18  and  O_20
REMARK                            x       y       z     vdW  Elec       q    Type
REMARK                         _______ _______ _______ _____ _____    ______ ____
ROOT
ATOM      1  C   UNL     1      19.094  35.052  52.491  0.00  0.00    +0.000 A 
ATOM      2  C   UNL     1      17.715  35.291  52.532  0.00  0.00    +0.000 A 
ATOM      3  C   UNL     1      17.178  36.411  51.893  0.00  0.00    +0.000 A 
ATOM      4  C   UNL     1      18.016  37.300  51.210  0.00  0.00    +0.000 A 
ATOM      5  C   UNL     1      19.390  37.040  51.133  0.00  0.00    +0.000 A 
ATOM      6  C   UNL     1      19.929  35.918  51.773  0.00  0.00    +0.000 A 
ENDROOT
BRANCH   1   7
ATOM      7  C   UNL     1      19.623  33.840  53.166  0.00  0.00    +0.000 C 
ATOM      8  O   UNL     1      19.086  32.755  52.959  0.00  0.00    +0.000 OA
BRANCH   7  13
ATOM      9  C   UNL     1      24.098  34.159  56.827  0.00  0.00    +0.000 C 
ATOM     10  C   UNL     1      22.951  34.097  55.863  0.00  0.00    +0.000 A 
ATOM     11  C   UNL     1      21.655  34.425  56.284  0.00  0.00    +0.000 A 
ATOM     12  C   UNL     1      20.581  34.342  55.395  0.00  0.00    +0.000 A 
ATOM     13  C   UNL     1      20.789  33.907  54.083  0.00  0.00    +0.000 A 
ATOM     14  C   UNL     1      22.081  33.584  53.653  0.00  0.00    +0.000 A 
ATOM     15  C   UNL     1      23.153  33.669  54.545  0.00  0.00    +0.000 A 
ENDBRANCH   7  13
ENDBRANCH   1   7
BRANCH   4  16
ATOM     16  C   UNL     1      17.403  38.470  50.530  0.00  0.00    +0.000 C 
ATOM     17  O   UNL     1      17.251  38.445  49.312  0.00  0.00    +0.000 OA
BRANCH  16  18
ATOM     18  C   UNL     1      16.970  39.672  51.286  0.00  0.00    +0.000 A 
ATOM     19  C   UNL     1      15.726  40.237  50.982  0.00  0.00    +0.000 A 
ATOM     20  C   UNL     1      15.274  41.361  51.680  0.00  0.00    +0.000 A 
ATOM     21  C   UNL     1      16.061  41.919  52.695  0.00  0.00    +0.000 A 
ATOM     22  C   UNL     1      17.297  41.338  53.012  0.00  0.00    +0.000 A 
ATOM     23  C   UNL     1      17.750  40.214  52.315  0.00  0.00    +0.000 A 
BRANCH  21  24
ATOM     24  C   UNL     1      15.627  43.111  53.465  0.00  0.00    +0.000 C 
ATOM     25  O   UNL     1      14.906  43.097  54.446  0.00  0.00    +0.000 OA
BRANCH  24  26
ATOM     26  O   UNL     1      16.117  44.259  52.970  0.00  0.00    +0.000 OA
ATOM     27  H   UNL     1      16.061  44.886  53.721  0.00  0.00    +0.000 HD
ENDBRANCH  24  26
ENDBRANCH  21  24
ENDBRANCH  16  18
ENDBRANCH   4  16
TORSDOF 6
ENDMDL
MODEL 3
REMARK VINA RESULT:    -6.189      4.976      6.370
REMARK INTER + INTRA:          -9.248
REMARK INTER:                  -8.179
REMARK INTRA:                  -1.069
REMARK UNBOUND:                -1.069
REMARK  Name = 
REMARK  7 active torsions:
REMARK  status: ('A' for Active; 'I' for Inactive)
REMARK    1  A    between atoms: C_1  and  C_2
REMARK    2  A    between atoms: C_5  and  C_6
REMARK    3  A    between atoms: C_6  and  C_8
REMARK    4  A    between atoms: C_11  and  C_12
REMARK    5  A    between atoms: C_12  and  C_14
REMARK    6  A    between atoms: C_17  and  C_18
REMARK    7  A    between atoms: C_18  and  O_20
REMARK                            x       y       z     vdW  Elec       q    Type
REMARK                         _______ _______ _______ _____ _____    ______ ____
ROOT
ATOM      1  C   UNL     1      21.113  35.214  49.961  0.00  0.00    +0.000 A 
ATOM      2  C   UNL     1      19.911  35.234  49.243  0.00  0.00    +0.000 A 
ATOM      3  C   UNL     1      18.860  36.055  49.659  0.00  0.00    +0.000 A 
ATOM      4  C   UNL     1      19.004  36.861  50.794  0.00  0.00    +0.000 A 
ATOM      5  C   UNL     1      20.220  36.873  51.489  0.00  0.00    +0.000 A 
ATOM      6  C   UNL     1      21.273  36.051  51.073  0.00  0.00    +0.000 A 
ENDROOT
BRANCH   1   7
ATOM      7  C   UNL     1      22.213  34.341  49.476  0.00  0.00    +0.000 C 
ATOM      8  O   UNL     1      22.252  33.169  49.839  0.00  0.00    +0.000 OA
BRANCH   7  13
ATOM      9  C   UNL     1      26.383  36.345  45.993  0.00  0.00    +0.000 C 
ATOM     10  C   UNL     1      25.289  35.851  46.893  0.00  0.00    +0.000 A 
ATOM     11  C   UNL     1      25.556  35.557  48.236  0.00  0.00    +0.000 A 
ATOM     12  C   UNL     1      24.545  35.071  49.068  0.00  0.00    +0.000 A 
ATOM     13  C   UNL     1      23.262  34.851  48.558  0.00  0.00    +0.000 A 
ATOM     14  C   UNL     1      22.985  35.149  47.219  0.00  0.00    +0.000 A 
ATOM     15  C   UNL     1      23.998  35.636  46.390  0.00  0.00    +0.000 A 
ENDBRANCH   7  13
ENDBRANCH   1   7
BRANCH   4  16
ATOM     16  C   UNL     1      17.869  37.733  51.193  0.00  0.00    +0.000 C 
ATOM     17  O   UNL     1      17.068  38.103  50.338  0.00  0.00    +0.000 OA
BRANCH  16  18
ATOM     18  C   UNL     1      17.677  38.169  52.598  0.00  0.00    +0.000 A 
ATOM     19  C   UNL     1      17.817  39.530  52.899  0.00  0.00    +0.000 A 
ATOM     20  C   UNL     1      17.631  39.984  54.207  0.00  0.00    +0.000 A 
ATOM     21  C   UNL     1      17.291  39.080  55.222  0.00  0.00    +0.000 A 
ATOM     22  C   UNL     1      17.131  37.722  54.915  0.00  0.00    +0.000 A 
ATOM     23  C   UNL     1      17.317  37.266  53.606  0.00  0.00    +0.000 A 
BRANCH  21  24
ATOM     24  C   UNL     1      17.083  39.513  56.625  0.00  0.00    +0.000 C 
ATOM     25  O   UNL     1      17.084  40.664  57.020  0.00  0.00    +0.000 OA
BRANCH  24  26
ATOM     26  O   UNL     1      16.881  38.483  57.465  0.00  0.00    +0.000 OA
ATOM     27  H   UNL     1      16.115  38.764  58.008  0.00  0.00    +0.000 HD
ENDBRANCH  24  26
ENDBRANCH  21  24
ENDBRANCH  16  18
ENDBRANCH   4  16
TORSDOF 6
ENDMDL
