MODEL 1
REMARK VINA RESULT:    -7.473      0.000      0.000
REMARK INTER + INTRA:         -10.052
REMARK INTER:                  -9.010
REMARK INTRA:                  -1.043
REMARK UNBOUND:                -0.832
REMARK  Name = 
REMARK  12 active torsions:
REMARK  status: ('A' for Active; 'I' for Inactive)
REMARK    1  A    between atoms: C_1  and  C_2
REMARK    2  A    between atoms: C_2  and  C_3
REMARK    3  A    between atoms: C_2  and  C_4
REMARK    4  A    between atoms: C_2  and  C_5
REMARK    5  A    between atoms: C_7  and  N_8
REMARK    6  A    between atoms: C_9  and  C_11
REMARK    7  A    between atoms: C_24  and  C_25
REMARK    8  A    between atoms: C_29  and  C_30
REMARK    9  A    between atoms: C_32  and  C_33
REMARK   10  A    between atoms: C_33  and  C_34
REMARK   11  A    between atoms: C_33  and  C_35
REMARK   12  A    between atoms: C_33  and  C_36
REMARK                            x       y       z     vdW  Elec       q    Type
REMARK                         _______ _______ _______ _____ _____    ______ ____
ROOT
ATOM      1  C   UNL     1      14.701  39.953  49.191  0.00  0.00    +0.000 C 
ATOM      2  C   UNL     1      13.687  39.635  50.288  0.00  0.00    +0.000 C 
ATOM      3  C   UNL     1      14.502  38.736  51.205  0.00  0.00    +0.000 C 
ATOM      4  C   UNL     1      15.273  37.823  50.245  0.00  0.00    +0.000 C 
ATOM      5  C   UNL     1      16.589  37.221  50.791  0.00  0.00    +0.000 C 
ATOM      6  C   UNL     1      17.528  38.171  51.553  0.00  0.00    +0.000 C 
ATOM      7  N   UNL     1      18.822  37.556  51.840  0.00  0.00    +0.000 N 
ATOM      8  C   UNL     1      19.466  36.618  51.039  0.00  0.00    +0.000 C 
ATOM      9  C   UNL     1      20.806  36.494  51.035  0.00  0.00    +0.000 C 
ATOM     10  C   UNL     1      21.512  35.459  50.241  0.00  0.00    +0.000 C 
ATOM     11  O   UNL     1      22.740  35.407  50.287  0.00  0.00    +0.000 OA
ATOM     12  C   UNL     1      20.704  34.468  49.442  0.00  0.00    +0.000 C 
ATOM     13  C   UNL     1      19.373  35.072  49.012  0.00  0.00    +0.000 C 
ATOM     14  C   UNL     1      18.576  35.705  50.188  0.00  0.00    +0.000 C 
ATOM     15  C   UNL     1      18.077  34.543  51.095  0.00  0.00    +0.000 C 
ATOM     16  C   UNL     1      17.347  36.520  49.639  0.00  0.00    +0.000 C 
ATOM     17  C   UNL     1      17.710  37.529  48.515  0.00  0.00    +0.000 C 
ATOM     18  C   UNL     1      16.830  38.783  48.425  0.00  0.00    +0.000 C 
ATOM     19  C   UNL     1      15.376  38.584  48.880  0.00  0.00    +0.000 C 
ATOM     20  C   UNL     1      14.644  37.760  47.795  0.00  0.00    +0.000 C 
ATOM     21  H   UNL     1      19.461  38.181  52.331  0.00  0.00    +0.000 HD
ENDROOT
BRANCH   1  23
ATOM     22  N   UNL     1      15.058  41.567  47.363  0.00  0.00    +0.000 N 
ATOM     23  C   UNL     1      14.139  40.814  48.056  0.00  0.00    +0.000 C 
ATOM     24  O   UNL     1      12.932  40.773  47.837  0.00  0.00    +0.000 OA
ATOM     25  H   UNL     1      16.025  41.484  47.637  0.00  0.00    +0.000 HD
BRANCH  22  28
ATOM     26  C   UNL     1      14.131  44.439  45.115  0.00  0.00    +0.000 A 
ATOM     27  C   UNL     1      14.364  43.692  46.283  0.00  0.00    +0.000 A 
ATOM     28  C   UNL     1      14.834  42.376  46.225  0.00  0.00    +0.000 A 
ATOM     29  C   UNL     1      15.090  41.793  44.975  0.00  0.00    +0.000 A 
ATOM     30  C   UNL     1      14.909  42.499  43.777  0.00  0.00    +0.000 A 
ATOM     31  C   UNL     1      14.430  43.823  43.881  0.00  0.00    +0.000 A 
BRANCH  26  33
ATOM     32  C   UNL     1      12.524  46.021  46.277  0.00  0.00    +0.000 C 
ATOM     33  C   UNL     1      13.575  45.876  45.150  0.00  0.00    +0.000 C 
ATOM     34  C   UNL     1      14.646  46.961  45.411  0.00  0.00    +0.000 C 
ATOM     35  C   UNL     1      12.913  46.192  43.791  0.00  0.00    +0.000 C 
ENDBRANCH  26  33
BRANCH  30  36
ATOM     36  C   UNL     1      15.209  41.900  42.390  0.00  0.00    +0.000 C 
ATOM     37  C   UNL     1      16.626  41.292  42.397  0.00  0.00    +0.000 C 
ATOM     38  C   UNL     1      15.133  43.001  41.307  0.00  0.00    +0.000 C 
ATOM     39  C   UNL     1      14.235  40.783  41.959  0.00  0.00    +0.000 C 
ENDBRANCH  30  36
ENDBRANCH  22  28
ENDBRANCH   1  23
TORSDOF 4
ENDMDL
MODEL 2
REMARK VINA RESULT:    -7.442      0.280      2.987
REMARK INTER + INTRA:         -10.015
REMARK INTER:                  -9.032
REMARK INTRA:                  -0.983
REMARK UNBOUND:                -0.832
REMARK  Name = 
REMARK  12 active torsions:
REMARK  status: ('A' for Active; 'I' for Inactive)
REMARK    1  A    between atoms: C_1  and  C_2
REMARK    2  A    between atoms: C_2  and  C_3
REMARK    3  A    between atoms: C_2  and  C_4
REMARK    4  A    between atoms: C_2  and  C_5
REMARK    5  A    between atoms: C_7  and  N_8
REMARK    6  A    between atoms: C_9  and  C_11
REMARK    7  A    between atoms: C_24  and  C_25
REMARK    8  A    between atoms: C_29  and  C_30
REMARK    9  A    between atoms: C_32  and  C_33
REMARK   10  A    between atoms: C_33  and  C_34
REMARK   11  A    between atoms: C_33  and  C_35
REMARK   12  A    between atoms: C_33  and  C_36
REMARK                            x       y       z     vdW  Elec       q    Type
REMARK                         _______ _______ _______ _____ _____    ______ ____
ROOT
ATOM      1  C   UNL     1      14.768  40.191  49.293  0.00  0.00    +0.000 C 
ATOM      2  C   UNL     1      13.807  40.043  50.471  0.00  0.00    +0.000 C 
ATOM      3  C   UNL     1      14.624  39.184  51.425  0.00  0.00    +0.000 C 
ATOM      4  C   UNL     1      15.279  38.137  50.517  0.00  0.00    +0.000 C 
ATOM      5  C   UNL     1      16.588  37.506  51.044  0.00  0.00    +0.000 C 
ATOM      6  C   UNL     1      17.626  38.460  51.656  0.00  0.00    +0.000 C 
ATOM      7  N   UNL     1      18.898  37.794  51.929  0.00  0.00    +0.000 N 
ATOM      8  C   UNL     1      19.435  36.745  51.189  0.00  0.00    +0.000 C 
ATOM      9  C   UNL     1      20.762  36.534  51.122  0.00  0.00    +0.000 C 
ATOM     10  C   UNL     1      21.356  35.386  50.395  0.00  0.00    +0.000 C 
ATOM     11  O   UNL     1      22.579  35.260  50.377  0.00  0.00    +0.000 OA
ATOM     12  C   UNL     1      20.443  34.379  49.744  0.00  0.00    +0.000 C 
ATOM     13  C   UNL     1      19.126  35.024  49.332  0.00  0.00    +0.000 C 
ATOM     14  C   UNL     1      18.441  35.815  50.483  0.00  0.00    +0.000 C 
ATOM     15  C   UNL     1      17.932  34.778  51.526  0.00  0.00    +0.000 C 
ATOM     16  C   UNL     1      17.231  36.652  49.926  0.00  0.00    +0.000 C 
ATOM     17  C   UNL     1      17.582  37.525  48.690  0.00  0.00    +0.000 C 
ATOM     18  C   UNL     1      16.773  38.819  48.527  0.00  0.00    +0.000 C 
ATOM     19  C   UNL     1      15.341  38.758  49.081  0.00  0.00    +0.000 C 
ATOM     20  C   UNL     1      14.496  37.884  48.124  0.00  0.00    +0.000 C 
ATOM     21  H   UNL     1      19.601  38.420  52.320  0.00  0.00    +0.000 HD
ENDROOT
BRANCH   1  23
ATOM     22  N   UNL     1      15.106  41.594  47.296  0.00  0.00    +0.000 N 
ATOM     23  C   UNL     1      14.189  40.976  48.113  0.00  0.00    +0.000 C 
ATOM     24  O   UNL     1      12.969  40.996  47.969  0.00  0.00    +0.000 OA
ATOM     25  H   UNL     1      16.082  41.473  47.520  0.00  0.00    +0.000 HD
BRANCH  22  28
ATOM     26  C   UNL     1      14.844  42.543  43.664  0.00  0.00    +0.000 A 
ATOM     27  C   UNL     1      15.078  41.779  44.820  0.00  0.00    +0.000 A 
ATOM     28  C   UNL     1      14.859  42.304  46.097  0.00  0.00    +0.000 A 
ATOM     29  C   UNL     1      14.385  43.617  46.228  0.00  0.00    +0.000 A 
ATOM     30  C   UNL     1      14.101  44.417  45.111  0.00  0.00    +0.000 A 
ATOM     31  C   UNL     1      14.339  43.850  43.841  0.00  0.00    +0.000 A 
BRANCH  26  33
ATOM     32  C   UNL     1      16.440  41.201  42.218  0.00  0.00    +0.000 C 
ATOM     33  C   UNL     1      15.116  42.003  42.246  0.00  0.00    +0.000 C 
ATOM     34  C   UNL     1      14.019  41.052  41.713  0.00  0.00    +0.000 C 
ATOM     35  C   UNL     1      15.218  43.192  41.266  0.00  0.00    +0.000 C 
ENDBRANCH  26  33
BRANCH  30  36
ATOM     36  C   UNL     1      13.549  45.852  45.218  0.00  0.00    +0.000 C 
ATOM     37  C   UNL     1      12.522  45.915  46.366  0.00  0.00    +0.000 C 
ATOM     38  C   UNL     1      12.859  46.255  43.894  0.00  0.00    +0.000 C 
ATOM     39  C   UNL     1      14.623  46.922  45.506  0.00  0.00    +0.000 C 
ENDBRANCH  30  36
ENDBRANCH  22  28
ENDBRANCH   1  23
TORSDOF 4
ENDMDL
MODEL 3
REMARK VINA RESULT:    -7.347      2.466     10.058
REMARK INTER + INTRA:          -9.897
REMARK INTER:                  -9.065
REMARK INTRA:                  -0.832
REMARK UNBOUND:                -0.832
REMARK  Name = 
REMARK  12 active torsions:
REMARK  status: ('A' for Active; 'I' for Inactive)
REMARK    1  A    between atoms: C_1  and  C_2
REMARK    2  A    between atoms: C_2  and  C_3
REMARK    3  A    between atoms: C_2  and  C_4
REMARK    4  A    between atoms: C_2  and  C_5
REMARK    5  A    between atoms: C_7  and  N_8
REMARK    6  A    between atoms: C_9  and  C_11
REMARK    7  A    between atoms: C_24  and  C_25
REMARK    8  A    between atoms: C_29  and  C_30
REMARK    9  A    between atoms: C_32  and  C_33
REMARK   10  A    between atoms: C_33  and  C_34
REMARK   11  A    between atoms: C_33  and  C_35
REMARK   12  A    between atoms: C_33  and  C_36
REMARK                            x       y       z     vdW  Elec       q    Type
REMARK                         _______ _______ _______ _____ _____    ______ ____
ROOT
ATOM      1  C   UNL     1      16.343  39.445  46.465  0.00  0.00    +0.000 C 
ATOM      2  C   UNL     1      16.601  38.705  45.154  0.00  0.00    +0.000 C 
ATOM      3  C   UNL     1      16.258  39.775  44.128  0.00  0.00    +0.000 C 
ATOM      4  C   UNL     1      14.990  40.433  44.684  0.00  0.00    +0.000 C 
ATOM      5  C   UNL     1      14.723  41.886  44.228  0.00  0.00    +0.000 C 
ATOM      6  C   UNL     1      15.919  42.852  44.238  0.00  0.00    +0.000 C 
ATOM      7  N   UNL     1      15.516  44.235  43.990  0.00  0.00    +0.000 N 
ATOM      8  C   UNL     1      14.304  44.803  44.371  0.00  0.00    +0.000 C 
ATOM      9  C   UNL     1      14.187  46.121  44.614  0.00  0.00    +0.000 C 
ATOM     10  C   UNL     1      12.894  46.761  44.957  0.00  0.00    +0.000 C 
ATOM     11  O   UNL     1      12.866  47.973  45.167  0.00  0.00    +0.000 OA
ATOM     12  C   UNL     1      11.644  45.919  44.988  0.00  0.00    +0.000 C 
ATOM     13  C   UNL     1      11.969  44.474  45.344  0.00  0.00    +0.000 C 
ATOM     14  C   UNL     1      13.097  43.863  44.465  0.00  0.00    +0.000 C 
ATOM     15  C   UNL     1      12.523  43.676  43.030  0.00  0.00    +0.000 C 
ATOM     16  C   UNL     1      13.548  42.471  45.045  0.00  0.00    +0.000 C 
ATOM     17  C   UNL     1      13.882  42.498  46.562  0.00  0.00    +0.000 C 
ATOM     18  C   UNL     1      14.939  41.492  47.037  0.00  0.00    +0.000 C 
ATOM     19  C   UNL     1      14.992  40.185  46.231  0.00  0.00    +0.000 C 
ATOM     20  C   UNL     1      13.748  39.343  46.601  0.00  0.00    +0.000 C 
ATOM     21  H   UNL     1      16.298  44.888  44.011  0.00  0.00    +0.000 HD
ENDROOT
BRANCH   1  23
ATOM     22  N   UNL     1      17.119  39.218  48.792  0.00  0.00    +0.000 N 
ATOM     23  C   UNL     1      16.547  38.584  47.715  0.00  0.00    +0.000 C 
ATOM     24  O   UNL     1      16.188  37.410  47.679  0.00  0.00    +0.000 OA
ATOM     25  H   UNL     1      17.344  40.196  48.689  0.00  0.00    +0.000 HD
BRANCH  22  28
ATOM     26  C   UNL     1      17.023  38.656  52.512  0.00  0.00    +0.000 A 
ATOM     27  C   UNL     1      16.740  39.197  51.246  0.00  0.00    +0.000 A 
ATOM     28  C   UNL     1      17.342  38.695  50.088  0.00  0.00    +0.000 A 
ATOM     29  C   UNL     1      18.238  37.621  50.190  0.00  0.00    +0.000 A 
ATOM     30  C   UNL     1      18.534  37.018  51.421  0.00  0.00    +0.000 A 
ATOM     31  C   UNL     1      17.907  37.557  52.565  0.00  0.00    +0.000 A 
BRANCH  26  33
ATOM     32  C   UNL     1      17.063  38.564  55.048  0.00  0.00    +0.000 C 
ATOM     33  C   UNL     1      16.405  39.217  53.808  0.00  0.00    +0.000 C 
ATOM     34  C   UNL     1      16.578  40.745  53.979  0.00  0.00    +0.000 C 
ATOM     35  C   UNL     1      14.891  38.917  53.814  0.00  0.00    +0.000 C 
ENDBRANCH  26  33
BRANCH  30  36
ATOM     36  C   UNL     1      19.489  35.817  51.566  0.00  0.00    +0.000 C 
ATOM     37  C   UNL     1      19.378  35.252  52.996  0.00  0.00    +0.000 C 
ATOM     38  C   UNL     1      20.946  36.263  51.305  0.00  0.00    +0.000 C 
ATOM     39  C   UNL     1      19.197  34.657  50.591  0.00  0.00    +0.000 C 
ENDBRANCH  30  36
ENDBRANCH  22  28
ENDBRANCH   1  23
TORSDOF 4
ENDMDL
