MODEL 1
REMARK VINA RESULT:    -6.386      0.000      0.000
REMARK INTER + INTRA:         -10.592
REMARK INTER:                  -9.125
REMARK INTRA:                  -1.467
REMARK UNBOUND:                -1.407
REMARK  Name = 
REMARK  10 active torsions:
REMARK  status: ('A' for Active; 'I' for Inactive)
REMARK    1  A    between atoms: C_1  and  O_2
REMARK    2  A    between atoms: O_2  and  C_3
REMARK    3  A    between atoms: C_5  and  C_6
REMARK    4  A    between atoms: C_13  and  N_14
REMARK    5  A    between atoms: N_14  and  C_15
REMARK    6  A    between atoms: C_15  and  C_16
REMARK    7  A    between atoms: C_20  and  C_21
REMARK    8  A    between atoms: C_34  and  O_35
REMARK    9  A    between atoms: O_35  and  C_36
REMARK   10  A    between atoms: C_37  and  O_38
REMARK                            x       y       z     vdW  Elec       q    Type
REMARK                         _______ _______ _______ _____ _____    ______ ____
ROOT
ATOM      1  C   UNL     1      22.245  33.601  47.979  0.00  0.00    +0.000 C 
ATOM      2  C   UNL     1      21.580  34.495  49.045  0.00  0.00    +0.000 A 
ATOM      3  C   UNL     1      20.214  34.814  48.878  0.00  0.00    +0.000 A 
ATOM      4  C   UNL     1      19.637  35.714  49.745  0.00  0.00    +0.000 A 
ATOM      5  C   UNL     1      20.356  36.307  50.751  0.00  0.00    +0.000 A 
ATOM      6  C   UNL     1      21.686  36.016  50.964  0.00  0.00    +0.000 A 
ATOM      7  C   UNL     1      22.319  35.073  50.131  0.00  0.00    +0.000 A 
ATOM      8  C   UNL     1      23.777  34.685  50.422  0.00  0.00    +0.000 C 
ATOM      9  C   UNL     1      24.397  34.290  49.074  0.00  0.00    +0.000 C 
ATOM     10  C   UNL     1      25.813  33.776  49.022  0.00  0.00    +0.000 C 
ATOM     11  O   UNL     1      25.874  33.063  47.779  0.00  0.00    +0.000 OA
ATOM     12  C   UNL     1      24.617  32.625  47.443  0.00  0.00    +0.000 C 
ATOM     13  O   UNL     1      24.388  31.865  46.518  0.00  0.00    +0.000 OA
ATOM     14  C   UNL     1      23.625  33.142  48.446  0.00  0.00    +0.000 C 
ATOM     15  O   UNL     1      19.608  37.178  51.480  0.00  0.00    +0.000 OA
ATOM     16  C   UNL     1      18.333  37.063  50.814  0.00  0.00    +0.000 C 
ATOM     17  O   UNL     1      18.347  36.137  49.707  0.00  0.00    +0.000 OA
ENDROOT
BRANCH   1  20
ATOM     18  C   UNL     1      22.792  36.066  45.043  0.00  0.00    +0.000 A 
ATOM     19  C   UNL     1      22.843  35.491  46.321  0.00  0.00    +0.000 A 
ATOM     20  C   UNL     1      22.237  34.247  46.589  0.00  0.00    +0.000 A 
ATOM     21  C   UNL     1      21.587  33.583  45.535  0.00  0.00    +0.000 A 
ATOM     22  C   UNL     1      21.545  34.148  44.262  0.00  0.00    +0.000 A 
ATOM     23  C   UNL     1      22.113  35.400  44.024  0.00  0.00    +0.000 A 
BRANCH  18  25
ATOM     24  C   UNL     1      24.734  37.345  44.740  0.00  0.00    +0.000 C 
ATOM     25  O   UNL     1      23.311  37.302  44.765  0.00  0.00    +0.000 OA
ENDBRANCH  18  25
BRANCH  22  26
ATOM     26  O   UNL     1      20.887  33.515  43.240  0.00  0.00    +0.000 OA
ATOM     27  C   UNL     1      21.640  32.385  42.786  0.00  0.00    +0.000 C 
ENDBRANCH  22  26
BRANCH  23  28
ATOM     28  O   UNL     1      22.007  35.960  42.778  0.00  0.00    +0.000 OA
ATOM     29  H   UNL     1      21.912  36.918  42.933  0.00  0.00    +0.000 HD
ENDBRANCH  23  28
ENDBRANCH   1  20
BRANCH   8  30
ATOM     30  N   UNL     1      23.848  33.570  51.378  0.00  0.00    +0.000 NA
ATOM     31  H   UNL     1      24.619  33.690  52.026  0.00  0.00    +0.000 HD
BRANCH  30  32
ATOM     32  C   UNL     1      22.642  33.313  52.167  0.00  0.00    +0.000 C 
BRANCH  32  33
ATOM     33  C   UNL     1      22.810  33.585  53.646  0.00  0.00    +0.000 A 
ATOM     34  C   UNL     1      24.062  33.434  54.262  0.00  0.00    +0.000 A 
ATOM     35  C   UNL     1      24.228  33.715  55.620  0.00  0.00    +0.000 A 
ATOM     36  C   UNL     1      23.144  34.148  56.383  0.00  0.00    +0.000 A 
ATOM     37  C   UNL     1      21.892  34.310  55.787  0.00  0.00    +0.000 A 
ATOM     38  C   UNL     1      21.727  34.033  54.423  0.00  0.00    +0.000 A 
BRANCH  37  39
ATOM     39  C   UNL     1      20.778  34.764  56.570  0.00  0.00    +0.000 C 
ATOM     40  N   UNL     1      19.876  35.137  57.199  0.00  0.00    +0.000 NA
ENDBRANCH  37  39
ENDBRANCH  32  33
ENDBRANCH  30  32
ENDBRANCH   8  30
TORSDOF 8
ENDMDL
MODEL 2
REMARK VINA RESULT:    -6.341      0.956      2.140
REMARK INTER + INTRA:         -10.527
REMARK INTER:                  -8.973
REMARK INTRA:                  -1.554
REMARK UNBOUND:                -1.407
REMARK  Name = 
REMARK  10 active torsions:
REMARK  status: ('A' for Active; 'I' for Inactive)
REMARK    1  A    between atoms: C_1  and  O_2
REMARK    2  A    between atoms: O_2  and  C_3
REMARK    3  A    between atoms: C_5  and  C_6
REMARK    4  A    between atoms: C_13  and  N_14
REMARK    5  A    between atoms: N_14  and  C_15
REMARK    6  A    between atoms: C_15  and  C_16
REMARK    7  A    between atoms: C_20  and  C_21
REMARK    8  A    between atoms: C_34  and  O_35
REMARK    9  A    between atoms: O_35  and  C_36
REMARK   10  A    between atoms: C_37  and  O_38
REMARK                            x       y       z     vdW  Elec       q    Type
REMARK                         _______ _______ _______ _____ _____    ______ ____
ROOT
ATOM      1  C   UNL     1      22.268  33.702  48.047  0.00  0.00    +0.000 C 
ATOM      2  C   UNL     1      21.528  34.566  49.088  0.00  0.00    +0.000 A 
ATOM      3  C   UNL     1      20.235  35.028  48.760  0.00  0.00    +0.000 A 
ATOM      4  C   UNL     1      19.612  35.907  49.617  0.00  0.00    +0.000 A 
ATOM      5  C   UNL     1      20.220  36.344  50.767  0.00  0.00    +0.000 A 
ATOM      6  C   UNL     1      21.474  35.909  51.137  0.00  0.00    +0.000 A 
ATOM      7  C   UNL     1      22.143  34.980  50.317  0.00  0.00    +0.000 A 
ATOM      8  C   UNL     1      23.503  34.430  50.773  0.00  0.00    +0.000 C 
ATOM      9  C   UNL     1      24.283  34.088  49.495  0.00  0.00    +0.000 C 
ATOM     10  C   UNL     1      25.642  33.445  49.596  0.00  0.00    +0.000 C 
ATOM     11  O   UNL     1      25.828  32.833  48.312  0.00  0.00    +0.000 OA
ATOM     12  C   UNL     1      24.603  32.547  47.762  0.00  0.00    +0.000 C 
ATOM     13  O   UNL     1      24.452  31.891  46.746  0.00  0.00    +0.000 OA
ATOM     14  C   UNL     1      23.520  33.075  48.659  0.00  0.00    +0.000 C 
ATOM     15  O   UNL     1      19.448  37.221  51.462  0.00  0.00    +0.000 OA
ATOM     16  C   UNL     1      18.281  37.285  50.614  0.00  0.00    +0.000 C 
ATOM     17  O   UNL     1      18.383  36.455  49.438  0.00  0.00    +0.000 OA
ENDROOT
BRANCH   1  20
ATOM     18  C   UNL     1      22.143  34.830  44.345  0.00  0.00    +0.000 A 
ATOM     19  C   UNL     1      21.864  34.137  45.531  0.00  0.00    +0.000 A 
ATOM     20  C   UNL     1      22.522  34.456  46.737  0.00  0.00    +0.000 A 
ATOM     21  C   UNL     1      23.463  35.499  46.725  0.00  0.00    +0.000 A 
ATOM     22  C   UNL     1      23.733  36.194  45.549  0.00  0.00    +0.000 A 
ATOM     23  C   UNL     1      23.104  35.839  44.356  0.00  0.00    +0.000 A 
BRANCH  18  25
ATOM     24  C   UNL     1      20.175  34.771  43.070  0.00  0.00    +0.000 C 
ATOM     25  O   UNL     1      21.572  34.503  43.144  0.00  0.00    +0.000 OA
ENDBRANCH  18  25
BRANCH  22  26
ATOM     26  O   UNL     1      24.670  37.194  45.530  0.00  0.00    +0.000 OA
ATOM     27  C   UNL     1      25.749  36.885  46.419  0.00  0.00    +0.000 C 
ENDBRANCH  22  26
BRANCH  23  28
ATOM     28  O   UNL     1      23.431  36.500  43.200  0.00  0.00    +0.000 OA
ATOM     29  H   UNL     1      23.620  35.801  42.548  0.00  0.00    +0.000 HD
ENDBRANCH  23  28
ENDBRANCH   1  20
BRANCH   8  30
ATOM     30  N   UNL     1      23.337  33.240  51.620  0.00  0.00    +0.000 NA
ATOM     31  H   UNL     1      23.493  32.388  51.093  0.00  0.00    +0.000 HD
BRANCH  30  32
ATOM     32  C   UNL     1      24.173  33.176  52.821  0.00  0.00    +0.000 C 
BRANCH  32  33
ATOM     33  C   UNL     1      23.452  33.582  54.088  0.00  0.00    +0.000 A 
ATOM     34  C   UNL     1      24.126  33.597  55.319  0.00  0.00    +0.000 A 
ATOM     35  C   UNL     1      23.473  34.001  56.486  0.00  0.00    +0.000 A 
ATOM     36  C   UNL     1      22.135  34.394  56.439  0.00  0.00    +0.000 A 
ATOM     37  C   UNL     1      21.449  34.392  55.222  0.00  0.00    +0.000 A 
ATOM     38  C   UNL     1      22.107  33.991  54.052  0.00  0.00    +0.000 A 
BRANCH  37  39
ATOM     39  C   UNL     1      20.076  34.805  55.172  0.00  0.00    +0.000 C 
ATOM     40  N   UNL     1      18.967  35.145  55.130  0.00  0.00    +0.000 NA
ENDBRANCH  37  39
ENDBRANCH  32  33
ENDBRANCH  30  32
ENDBRANCH   8  30
TORSDOF 8
ENDMDL
MODEL 3
REMARK VINA RESULT:    -6.318     11.003     14.292
REMARK INTER + INTRA:         -10.495
REMARK INTER:                  -9.088
REMARK INTRA:                  -1.407
REMARK UNBOUND:                -1.407
REMARK  Name = 
REMARK  10 active torsions:
REMARK  status: ('A' for Active; 'I' for Inactive)
REMARK    1  A    between atoms: C_1  and  O_2
REMARK    2  A    between atoms: O_2  and  C_3
REMARK    3  A    between atoms: C_5  and  C_6
REMARK    4  A    between atoms: C_13  and  N_14
REMARK    5  A    between atoms: N_14  and  C_15
REMARK    6  A    between atoms: C_15  and  C_16
REMARK    7  A    between atoms: C_20  and  C_21
REMARK    8  A    between atoms: C_34  and  O_35
REMARK    9  A    between atoms: O_35  and  C_36
REMARK   10  A    between atoms: C_37  and  O_38
REMARK                            x       y       z     vdW  Elec       q    Type
REMARK                         _______ _______ _______ _____ _____    ______ ____
ROOT
ATOM      1  C   UNL     1      15.412  42.383  43.009  0.00  0.00    +0.000 C 
ATOM      2  C   UNL     1      15.244  42.051  44.506  0.00  0.00    +0.000 A 
ATOM      3  C   UNL     1      15.913  40.912  45.006  0.00  0.00    +0.000 A 
ATOM      4  C   UNL     1      15.672  40.524  46.304  0.00  0.00    +0.000 A 
ATOM      5  C   UNL     1      14.800  41.208  47.110  0.00  0.00    +0.000 A 
ATOM      6  C   UNL     1      14.135  42.334  46.673  0.00  0.00    +0.000 A 
ATOM      7  C   UNL     1      14.372  42.800  45.365  0.00  0.00    +0.000 A 
ATOM      8  C   UNL     1      13.699  44.102  44.906  0.00  0.00    +0.000 C 
ATOM      9  C   UNL     1      13.513  43.983  43.387  0.00  0.00    +0.000 C 
ATOM     10  C   UNL     1      12.945  45.141  42.608  0.00  0.00    +0.000 C 
ATOM     11  O   UNL     1      13.374  44.892  41.261  0.00  0.00    +0.000 OA
ATOM     12  C   UNL     1      14.524  44.142  41.282  0.00  0.00    +0.000 C 
ATOM     13  O   UNL     1      15.197  43.906  40.293  0.00  0.00    +0.000 OA
ATOM     14  C   UNL     1      14.851  43.771  42.700  0.00  0.00    +0.000 C 
ATOM     15  O   UNL     1      14.687  40.652  48.347  0.00  0.00    +0.000 OA
ATOM     16  C   UNL     1      15.594  39.536  48.224  0.00  0.00    +0.000 C 
ATOM     17  O   UNL     1      16.219  39.447  46.926  0.00  0.00    +0.000 OA
ENDROOT
BRANCH   1  20
ATOM     18  C   UNL     1      13.036  40.021  41.068  0.00  0.00    +0.000 A 
ATOM     19  C   UNL     1      13.495  41.065  41.884  0.00  0.00    +0.000 A 
ATOM     20  C   UNL     1      14.872  41.273  42.101  0.00  0.00    +0.000 A 
ATOM     21  C   UNL     1      15.783  40.413  41.466  0.00  0.00    +0.000 A 
ATOM     22  C   UNL     1      15.328  39.381  40.646  0.00  0.00    +0.000 A 
ATOM     23  C   UNL     1      13.961  39.163  40.476  0.00  0.00    +0.000 A 
BRANCH  18  25
ATOM     24  C   UNL     1      11.061  39.207  42.038  0.00  0.00    +0.000 C 
ATOM     25  O   UNL     1      11.705  39.750  40.890  0.00  0.00    +0.000 OA
ENDBRANCH  18  25
BRANCH  22  26
ATOM     26  O   UNL     1      16.214  38.524  40.048  0.00  0.00    +0.000 OA
ATOM     27  C   UNL     1      17.529  38.709  40.585  0.00  0.00    +0.000 C 
ENDBRANCH  22  26
BRANCH  23  28
ATOM     28  O   UNL     1      13.539  38.106  39.713  0.00  0.00    +0.000 OA
ATOM     29  H   UNL     1      12.599  37.981  39.942  0.00  0.00    +0.000 HD
ENDBRANCH  23  28
ENDBRANCH   1  20
BRANCH   8  30
ATOM     30  N   UNL     1      14.523  45.273  45.243  0.00  0.00    +0.000 NA
ATOM     31  H   UNL     1      14.991  45.641  44.422  0.00  0.00    +0.000 HD
BRANCH  30  32
ATOM     32  C   UNL     1      13.833  46.385  45.898  0.00  0.00    +0.000 C 
BRANCH  32  33
ATOM     33  C   UNL     1      14.100  47.730  45.257  0.00  0.00    +0.000 A 
ATOM     34  C   UNL     1      13.051  48.480  44.705  0.00  0.00    +0.000 A 
ATOM     35  C   UNL     1      13.288  49.736  44.141  0.00  0.00    +0.000 A 
ATOM     36  C   UNL     1      14.581  50.260  44.120  0.00  0.00    +0.000 A 
ATOM     37  C   UNL     1      15.638  49.531  44.670  0.00  0.00    +0.000 A 
ATOM     38  C   UNL     1      15.398  48.274  45.239  0.00  0.00    +0.000 A 
BRANCH  37  39
ATOM     39  C   UNL     1      16.967  50.073  44.655  0.00  0.00    +0.000 C 
ATOM     40  N   UNL     1      18.039  50.518  44.644  0.00  0.00    +0.000 NA
ENDBRANCH  37  39
ENDBRANCH  32  33
ENDBRANCH  30  32
ENDBRANCH   8  30
TORSDOF 8
ENDMDL
