MODEL 1
REMARK VINA RESULT:    -6.308      0.000      0.000
REMARK INTER + INTRA:          -9.350
REMARK INTER:                  -7.764
REMARK INTRA:                  -1.587
REMARK UNBOUND:                -1.383
REMARK  Name = 
REMARK  7 active torsions:
REMARK  status: ('A' for Active; 'I' for Inactive)
REMARK    1  A    between atoms: C_1  and  O_2
REMARK    2  A    between atoms: O_2  and  C_3
REMARK    3  A    between atoms: C_4  and  C_5
REMARK    4  A    between atoms: C_5  and  O_6
REMARK    5  A    between atoms: C_8  and  N_9
REMARK    6  A    between atoms: C_36  and  O_37
REMARK    7  A    between atoms: C_38  and  O_39
REMARK                            x       y       z     vdW  Elec       q    Type
REMARK                         _______ _______ _______ _____ _____    ______ ____
ROOT
ATOM      1  N   UNL     1      16.791  38.480  49.515  0.00  0.00    +0.000 N 
ATOM      2  C   UNL     1      17.735  37.697  50.202  0.00  0.00    +0.000 A 
ATOM      3  C   UNL     1      18.237  37.696  51.523  0.00  0.00    +0.000 A 
ATOM      4 CL   UNL     1      18.104  39.030  52.600  0.00  0.00    +0.000 Cl
ATOM      5  C   UNL     1      19.027  36.622  51.952  0.00  0.00    +0.000 A 
ATOM      6  C   UNL     1      19.368  35.594  51.086  0.00  0.00    +0.000 A 
ATOM      7  C   UNL     1      18.995  35.666  49.745  0.00  0.00    +0.000 A 
ATOM      8  C   UNL     1      18.209  36.743  49.275  0.00  0.00    +0.000 A 
ATOM      9  C   UNL     1      17.853  37.203  47.975  0.00  0.00    +0.000 A 
ATOM     10  C   UNL     1      18.101  36.864  46.634  0.00  0.00    +0.000 A 
ATOM     11  C   UNL     1      17.686  37.636  45.522  0.00  0.00    +0.000 A 
ATOM     12  C   UNL     1      16.974  38.835  45.623  0.00  0.00    +0.000 A 
ATOM     13  C   UNL     1      16.421  39.842  44.770  0.00  0.00    +0.000 A 
ATOM     14  C   UNL     1      16.376  40.052  43.376  0.00  0.00    +0.000 A 
ATOM     15  C   UNL     1      15.721  41.176  42.856  0.00  0.00    +0.000 A 
ATOM     16  C   UNL     1      15.105  42.095  43.703  0.00  0.00    +0.000 A 
ATOM     17  C   UNL     1      15.135  41.913  45.085  0.00  0.00    +0.000 A 
ATOM     18 CL   UNL     1      14.370  43.044  46.129  0.00  0.00    +0.000 Cl
ATOM     19  C   UNL     1      15.798  40.790  45.594  0.00  0.00    +0.000 A 
ATOM     20  N   UNL     1      15.978  40.382  46.896  0.00  0.00    +0.000 N 
ATOM     21  C   UNL     1      16.663  39.210  46.922  0.00  0.00    +0.000 A 
ATOM     22  C   UNL     1      17.098  38.351  48.165  0.00  0.00    +0.000 A 
ATOM     23  C   UNL     1      18.155  36.947  44.321  0.00  0.00    +0.000 C 
ATOM     24  O   UNL     1      17.960  37.267  43.166  0.00  0.00    +0.000 OA
ATOM     25  N   UNL     1      18.838  35.851  44.745  0.00  0.00    +0.000 N 
ATOM     26  C   UNL     1      18.820  35.708  46.096  0.00  0.00    +0.000 C 
ATOM     27  O   UNL     1      19.282  34.774  46.722  0.00  0.00    +0.000 OA
ATOM     28  H   UNL     1      15.596  40.848  47.712  0.00  0.00    +0.000 HD
ATOM     29  H   UNL     1      19.239  35.171  44.119  0.00  0.00    +0.000 HD
ENDROOT
BRANCH   1  33
ATOM     30  C   UNL     1      12.580  39.543  49.912  0.00  0.00    +0.000 C 
ATOM     31  C   UNL     1      13.096  38.282  49.196  0.00  0.00    +0.000 C 
ATOM     32  O   UNL     1      14.491  38.412  48.866  0.00  0.00    +0.000 OA
ATOM     33  C   UNL     1      15.384  38.660  49.972  0.00  0.00    +0.000 C 
ATOM     34  C   UNL     1      14.978  39.985  50.643  0.00  0.00    +0.000 C 
ATOM     35  C   UNL     1      13.504  39.889  51.090  0.00  0.00    +0.000 C 
BRANCH  30  37
ATOM     36  C   UNL     1      11.853  40.389  47.802  0.00  0.00    +0.000 C 
ATOM     37  O   UNL     1      12.649  40.637  48.958  0.00  0.00    +0.000 OA
ENDBRANCH  30  37
BRANCH  34  38
ATOM     38  O   UNL     1      15.124  41.108  49.752  0.00  0.00    +0.000 OA
ATOM     39  H   UNL     1      14.359  41.094  49.136  0.00  0.00    +0.000 HD
ENDBRANCH  34  38
BRANCH  35  40
ATOM     40  O   UNL     1      13.098  41.129  51.685  0.00  0.00    +0.000 OA
ATOM     41  H   UNL     1      13.923  41.558  51.994  0.00  0.00    +0.000 HD
ENDBRANCH  35  40
BRANCH  31  42
ATOM     42  C   UNL     1      12.802  36.968  49.937  0.00  0.00    +0.000 C 
BRANCH  42  43
ATOM     43  O   UNL     1      13.259  35.862  49.177  0.00  0.00    +0.000 OA
ATOM     44  H   UNL     1      14.102  36.129  48.751  0.00  0.00    +0.000 HD
ENDBRANCH  42  43
ENDBRANCH  31  42
ENDBRANCH   1  33
TORSDOF 6
ENDMDL
MODEL 2
REMARK VINA RESULT:    -6.104      4.340      8.823
REMARK INTER + INTRA:          -9.093
REMARK INTER:                  -7.530
REMARK INTRA:                  -1.563
REMARK UNBOUND:                -1.383
REMARK  Name = 
REMARK  7 active torsions:
REMARK  status: ('A' for Active; 'I' for Inactive)
REMARK    1  A    between atoms: C_1  and  O_2
REMARK    2  A    between atoms: O_2  and  C_3
REMARK    3  A    between atoms: C_4  and  C_5
REMARK    4  A    between atoms: C_5  and  O_6
REMARK    5  A    between atoms: C_8  and  N_9
REMARK    6  A    between atoms: C_36  and  O_37
REMARK    7  A    between atoms: C_38  and  O_39
REMARK                            x       y       z     vdW  Elec       q    Type
REMARK                         _______ _______ _______ _____ _____    ______ ____
ROOT
ATOM      1  N   UNL     1      13.321  44.210  44.578  0.00  0.00    +0.000 N 
ATOM      2  C   UNL     1      12.756  45.181  45.425  0.00  0.00    +0.000 A 
ATOM      3  C   UNL     1      12.708  46.593  45.406  0.00  0.00    +0.000 A 
ATOM      4 CL   UNL     1      13.771  47.576  44.478  0.00  0.00    +0.000 Cl
ATOM      5  C   UNL     1      11.861  47.258  46.302  0.00  0.00    +0.000 A 
ATOM      6  C   UNL     1      11.118  46.557  47.238  0.00  0.00    +0.000 A 
ATOM      7  C   UNL     1      11.274  45.177  47.354  0.00  0.00    +0.000 A 
ATOM      8  C   UNL     1      12.130  44.475  46.475  0.00  0.00    +0.000 A 
ATOM      9  C   UNL     1      12.652  43.150  46.465  0.00  0.00    +0.000 A 
ATOM     10  C   UNL     1      12.602  41.992  47.260  0.00  0.00    +0.000 A 
ATOM     11  C   UNL     1      13.373  40.828  47.031  0.00  0.00    +0.000 A 
ATOM     12  C   UNL     1      14.282  40.686  45.978  0.00  0.00    +0.000 A 
ATOM     13  C   UNL     1      15.197  39.715  45.460  0.00  0.00    +0.000 A 
ATOM     14  C   UNL     1      15.588  38.413  45.837  0.00  0.00    +0.000 A 
ATOM     15  C   UNL     1      16.535  37.716  45.076  0.00  0.00    +0.000 A 
ATOM     16  C   UNL     1      17.097  38.293  43.939  0.00  0.00    +0.000 A 
ATOM     17  C   UNL     1      16.731  39.578  43.544  0.00  0.00    +0.000 A 
ATOM     18 CL   UNL     1      17.421  40.287  42.138  0.00  0.00    +0.000 Cl
ATOM     19  C   UNL     1      15.790  40.269  44.316  0.00  0.00    +0.000 A 
ATOM     20  N   UNL     1      15.265  41.531  44.154  0.00  0.00    +0.000 N 
ATOM     21  C   UNL     1      14.354  41.781  45.130  0.00  0.00    +0.000 A 
ATOM     22  C   UNL     1      13.488  43.072  45.360  0.00  0.00    +0.000 A 
ATOM     23  C   UNL     1      13.036  39.874  48.086  0.00  0.00    +0.000 C 
ATOM     24  O   UNL     1      13.452  38.740  48.212  0.00  0.00    +0.000 OA
ATOM     25  N   UNL     1      12.138  40.494  48.896  0.00  0.00    +0.000 N 
ATOM     26  C   UNL     1      11.799  41.734  48.457  0.00  0.00    +0.000 C 
ATOM     27  O   UNL     1      10.961  42.462  48.950  0.00  0.00    +0.000 OA
ATOM     28  H   UNL     1      15.473  42.155  43.382  0.00  0.00    +0.000 HD
ATOM     29  H   UNL     1      11.706  40.047  49.689  0.00  0.00    +0.000 HD
ENDROOT
BRANCH   1  33
ATOM     30  C   UNL     1      12.960  42.974  40.411  0.00  0.00    +0.000 C 
ATOM     31  C   UNL     1      11.982  42.566  41.529  0.00  0.00    +0.000 C 
ATOM     32  O   UNL     1      12.572  42.765  42.826  0.00  0.00    +0.000 OA
ATOM     33  C   UNL     1      13.011  44.108  43.124  0.00  0.00    +0.000 C 
ATOM     34  C   UNL     1      14.087  44.511  42.099  0.00  0.00    +0.000 C 
ATOM     35  C   UNL     1      13.495  44.389  40.678  0.00  0.00    +0.000 C 
BRANCH  30  37
ATOM     36  C   UNL     1      13.707  40.726  40.119  0.00  0.00    +0.000 C 
ATOM     37  O   UNL     1      14.084  42.056  40.467  0.00  0.00    +0.000 OA
ENDBRANCH  30  37
BRANCH  34  38
ATOM     38  O   UNL     1      15.258  43.678  42.190  0.00  0.00    +0.000 OA
ATOM     39  H   UNL     1      16.009  44.256  42.445  0.00  0.00    +0.000 HD
ENDBRANCH  34  38
BRANCH  35  40
ATOM     40  O   UNL     1      14.497  44.726  39.708  0.00  0.00    +0.000 OA
ATOM     41  H   UNL     1      14.011  44.901  38.875  0.00  0.00    +0.000 HD
ENDBRANCH  35  40
BRANCH  31  42
ATOM     42  C   UNL     1      10.593  43.216  41.424  0.00  0.00    +0.000 C 
BRANCH  42  43
ATOM     43  O   UNL     1      10.192  43.303  40.067  0.00  0.00    +0.000 OA
ATOM     44  H   UNL     1       9.520  44.017  40.008  0.00  0.00    +0.000 HD
ENDBRANCH  42  43
ENDBRANCH  31  42
ENDBRANCH   1  33
TORSDOF 6
ENDMDL
MODEL 3
REMARK VINA RESULT:    -6.056      2.747      6.667
REMARK INTER + INTRA:          -9.031
REMARK INTER:                  -7.649
REMARK INTRA:                  -1.383
REMARK UNBOUND:                -1.383
REMARK  Name = 
REMARK  7 active torsions:
REMARK  status: ('A' for Active; 'I' for Inactive)
REMARK    1  A    between atoms: C_1  and  O_2
REMARK    2  A    between atoms: O_2  and  C_3
REMARK    3  A    between atoms: C_4  and  C_5
REMARK    4  A    between atoms: C_5  and  O_6
REMARK    5  A    between atoms: C_8  and  N_9
REMARK    6  A    between atoms: C_36  and  O_37
REMARK    7  A    between atoms: C_38  and  O_39
REMARK                            x       y       z     vdW  Elec       q    Type
REMARK                         _______ _______ _______ _____ _____    ______ ____
ROOT
ATOM      1  N   UNL     1      13.782  40.419  50.655  0.00  0.00    +0.000 N 
ATOM      2  C   UNL     1      12.763  40.927  49.829  0.00  0.00    +0.000 A 
ATOM      3  C   UNL     1      11.418  41.302  50.045  0.00  0.00    +0.000 A 
ATOM      4 CL   UNL     1      10.490  40.803  51.404  0.00  0.00    +0.000 Cl
ATOM      5  C   UNL     1      10.731  41.987  49.034  0.00  0.00    +0.000 A 
ATOM      6  C   UNL     1      11.331  42.251  47.814  0.00  0.00    +0.000 A 
ATOM      7  C   UNL     1      12.607  41.756  47.547  0.00  0.00    +0.000 A 
ATOM      8  C   UNL     1      13.323  41.048  48.539  0.00  0.00    +0.000 A 
ATOM      9  C   UNL     1      14.510  40.260  48.516  0.00  0.00    +0.000 A 
ATOM     10  C   UNL     1      15.460  39.815  47.582  0.00  0.00    +0.000 A 
ATOM     11  C   UNL     1      16.497  38.894  47.869  0.00  0.00    +0.000 A 
ATOM     12  C   UNL     1      16.704  38.316  49.126  0.00  0.00    +0.000 A 
ATOM     13  C   UNL     1      17.592  37.388  49.758  0.00  0.00    +0.000 A 
ATOM     14  C   UNL     1      18.695  36.618  49.335  0.00  0.00    +0.000 A 
ATOM     15  C   UNL     1      19.367  35.793  50.247  0.00  0.00    +0.000 A 
ATOM     16  C   UNL     1      18.960  35.726  51.578  0.00  0.00    +0.000 A 
ATOM     17  C   UNL     1      17.872  36.475  52.023  0.00  0.00    +0.000 A 
ATOM     18 CL   UNL     1      17.375  36.396  53.666  0.00  0.00    +0.000 Cl
ATOM     19  C   UNL     1      17.203  37.290  51.102  0.00  0.00    +0.000 A 
ATOM     20  N   UNL     1      16.115  38.115  51.275  0.00  0.00    +0.000 N 
ATOM     21  C   UNL     1      15.821  38.742  50.106  0.00  0.00    +0.000 A 
ATOM     22  C   UNL     1      14.679  39.780  49.807  0.00  0.00    +0.000 A 
ATOM     23  C   UNL     1      17.245  38.688  46.631  0.00  0.00    +0.000 C 
ATOM     24  O   UNL     1      18.236  38.004  46.476  0.00  0.00    +0.000 OA
ATOM     25  N   UNL     1      16.628  39.435  45.677  0.00  0.00    +0.000 N 
ATOM     26  C   UNL     1      15.589  40.161  46.166  0.00  0.00    +0.000 C 
ATOM     27  O   UNL     1      14.927  40.968  45.544  0.00  0.00    +0.000 OA
ATOM     28  H   UNL     1      15.645  38.285  52.158  0.00  0.00    +0.000 HD
ATOM     29  H   UNL     1      16.962  39.509  44.729  0.00  0.00    +0.000 HD
ENDROOT
BRANCH   1  33
ATOM     30  C   UNL     1      15.901  41.628  54.271  0.00  0.00    +0.000 C 
ATOM     31  C   UNL     1      16.268  42.093  52.850  0.00  0.00    +0.000 C 
ATOM     32  O   UNL     1      15.683  41.228  51.858  0.00  0.00    +0.000 OA
ATOM     33  C   UNL     1      14.246  41.098  51.898  0.00  0.00    +0.000 C 
ATOM     34  C   UNL     1      13.844  40.515  53.265  0.00  0.00    +0.000 C 
ATOM     35  C   UNL     1      14.380  41.438  54.380  0.00  0.00    +0.000 C 
BRANCH  30  37
ATOM     36  C   UNL     1      17.796  40.245  53.833  0.00  0.00    +0.000 C 
ATOM     37  O   UNL     1      16.526  40.333  54.474  0.00  0.00    +0.000 OA
ENDBRANCH  30  37
BRANCH  34  38
ATOM     38  O   UNL     1      14.370  39.189  53.463  0.00  0.00    +0.000 OA
ATOM     39  H   UNL     1      14.021  38.860  54.319  0.00  0.00    +0.000 HD
ENDBRANCH  34  38
BRANCH  35  40
ATOM     40  O   UNL     1      14.045  40.889  55.663  0.00  0.00    +0.000 OA
ATOM     41  H   UNL     1      13.800  41.655  56.223  0.00  0.00    +0.000 HD
ENDBRANCH  35  40
BRANCH  31  42
ATOM     42  C   UNL     1      15.965  43.573  52.569  0.00  0.00    +0.000 C 
BRANCH  42  43
ATOM     43  O   UNL     1      15.969  44.314  53.777  0.00  0.00    +0.000 OA
ATOM     44  H   UNL     1      15.257  43.948  54.346  0.00  0.00    +0.000 HD
ENDBRANCH  42  43
ENDBRANCH  31  42
ENDBRANCH   1  33
TORSDOF 6
ENDMDL
