MODEL 1
REMARK VINA RESULT:    -7.485      0.000      0.000
REMARK INTER + INTRA:          -8.912
REMARK INTER:                  -8.420
REMARK INTRA:                  -0.491
REMARK UNBOUND:                -0.551
REMARK  Name = 
REMARK  10 active torsions:
REMARK  status: ('A' for Active; 'I' for Inactive)
REMARK    1  A    between atoms: C_2  and  C_3
REMARK    2  A    between atoms: C_2  and  C_4
REMARK    3  A    between atoms: C_7  and  C_8
REMARK    4  A    between atoms: C_11  and  C_12
REMARK    5  A    between atoms: C_17  and  C_18
REMARK    6  A    between atoms: C_24  and  C_25
REMARK    7  A    between atoms: C_25  and  C_26
REMARK    8  A    between atoms: C_31  and  C_32
REMARK    9  A    between atoms: C_31  and  C_33
REMARK   10  A    between atoms: C_37  and  C_38
REMARK                            x       y       z     vdW  Elec       q    Type
REMARK                         _______ _______ _______ _____ _____    ______ ____
ROOT
ATOM      1  C   UNL     1      14.961  41.533  54.136  0.00  0.00    +0.000 C 
ATOM      2  C   UNL     1      15.306  41.504  55.650  0.00  0.00    +0.000 C 
ATOM      3  C   UNL     1      16.143  40.235  55.887  0.00  0.00    +0.000 C 
ATOM      4  C   UNL     1      15.793  39.321  54.706  0.00  0.00    +0.000 C 
ATOM      5  C   UNL     1      14.428  38.648  54.992  0.00  0.00    +0.000 C 
ATOM      6  C   UNL     1      16.835  38.236  54.404  0.00  0.00    +0.000 C 
ATOM      7  C   UNL     1      16.598  37.573  53.027  0.00  0.00    +0.000 C 
ATOM      8  C   UNL     1      16.446  38.574  51.821  0.00  0.00    +0.000 C 
ATOM      9  C   UNL     1      17.867  39.189  51.616  0.00  0.00    +0.000 C 
ATOM     10  C   UNL     1      15.391  39.699  52.219  0.00  0.00    +0.000 C 
ATOM     11  C   UNL     1      15.118  40.699  51.084  0.00  0.00    +0.000 C 
ATOM     12  C   UNL     1      14.756  40.034  49.748  0.00  0.00    +0.000 C 
ATOM     13  C   UNL     1      15.810  38.989  49.353  0.00  0.00    +0.000 C 
ATOM     14  C   UNL     1      15.810  38.489  47.863  0.00  0.00    +0.000 C 
ATOM     15  C   UNL     1      14.660  37.513  47.566  0.00  0.00    +0.000 C 
ATOM     16  C   UNL     1      15.643  39.700  46.874  0.00  0.00    +0.000 C 
ATOM     17  C   UNL     1      16.085  39.356  45.485  0.00  0.00    +0.000 A 
ATOM     18  C   UNL     1      16.927  38.300  45.193  0.00  0.00    +0.000 A 
ATOM     19  N   UNL     1      17.117  38.286  43.835  0.00  0.00    +0.000 N 
ATOM     20  C   UNL     1      16.451  39.336  43.240  0.00  0.00    +0.000 A 
ATOM     21  C   UNL     1      16.400  39.727  41.889  0.00  0.00    +0.000 A 
ATOM     22  C   UNL     1      15.610  40.858  41.599  0.00  0.00    +0.000 A 
ATOM     23  C   UNL     1      14.925  41.553  42.591  0.00  0.00    +0.000 A 
ATOM     24  C   UNL     1      15.005  41.147  43.924  0.00  0.00    +0.000 A 
ATOM     25  C   UNL     1      15.781  40.019  44.259  0.00  0.00    +0.000 A 
ATOM     26  C   UNL     1      17.549  37.323  46.172  0.00  0.00    +0.000 C 
ATOM     27  C   UNL     1      16.998  35.906  45.923  0.00  0.00    +0.000 C 
ATOM     28  C   UNL     1      19.081  37.280  45.942  0.00  0.00    +0.000 C 
ATOM     29  C   UNL     1      17.256  37.883  47.623  0.00  0.00    +0.000 C 
ATOM     30  C   UNL     1      17.819  37.040  48.789  0.00  0.00    +0.000 C 
ATOM     31  C   UNL     1      16.864  36.719  49.936  0.00  0.00    +0.000 C 
ATOM     32  C   UNL     1      15.937  37.862  50.452  0.00  0.00    +0.000 C 
ATOM     33  C   UNL     1      14.564  37.159  50.737  0.00  0.00    +0.000 C 
ATOM     34  C   UNL     1      15.792  40.360  53.556  0.00  0.00    +0.000 C 
ATOM     35  H   UNL     1      17.683  37.615  43.335  0.00  0.00    +0.000 HD
ENDROOT
BRANCH   1  37
ATOM     36  C   UNL     1      16.349  43.304  52.983  0.00  0.00    +0.000 C 
ATOM     37  C   UNL     1      15.191  42.918  53.550  0.00  0.00    +0.000 C 
ATOM     38  C   UNL     1      14.034  43.875  53.646  0.00  0.00    +0.000 C 
ENDBRANCH   1  37
BRANCH  21  39
ATOM     39  C   UNL     1      17.117  39.006  40.778  0.00  0.00    +0.000 C 
ATOM     40  C   UNL     1      18.614  39.259  40.814  0.00  0.00    +0.000 C 
ENDBRANCH  21  39
TORSDOF 2
ENDMDL
MODEL 2
REMARK VINA RESULT:    -7.208      3.694      6.215
REMARK INTER + INTRA:          -8.602
REMARK INTER:                  -8.163
REMARK INTRA:                  -0.439
REMARK UNBOUND:                -0.551
REMARK  Name = 
REMARK  10 active torsions:
REMARK  status: ('A' for Active; 'I' for Inactive)
REMARK    1  A    between atoms: C_2  and  C_3
REMARK    2  A    between atoms: C_2  and  C_4
REMARK    3  A    between atoms: C_7  and  C_8
REMARK    4  A    between atoms: C_11  and  C_12
REMARK    5  A    between atoms: C_17  and  C_18
REMARK    6  A    between atoms: C_24  and  C_25
REMARK    7  A    between atoms: C_25  and  C_26
REMARK    8  A    between atoms: C_31  and  C_32
REMARK    9  A    between atoms: C_31  and  C_33
REMARK   10  A    between atoms: C_37  and  C_38
REMARK                            x       y       z     vdW  Elec       q    Type
REMARK                         _______ _______ _______ _____ _____    ______ ____
ROOT
ATOM      1  C   UNL     1      19.255  34.991  50.482  0.00  0.00    +0.000 C 
ATOM      2  C   UNL     1      20.144  33.835  51.014  0.00  0.00    +0.000 C 
ATOM      3  C   UNL     1      20.550  32.993  49.792  0.00  0.00    +0.000 C 
ATOM      4  C   UNL     1      19.485  33.316  48.736  0.00  0.00    +0.000 C 
ATOM      5  C   UNL     1      18.210  32.498  49.058  0.00  0.00    +0.000 C 
ATOM      6  C   UNL     1      19.911  33.036  47.289  0.00  0.00    +0.000 C 
ATOM      7  C   UNL     1      18.946  33.680  46.267  0.00  0.00    +0.000 C 
ATOM      8  C   UNL     1      18.658  35.211  46.494  0.00  0.00    +0.000 C 
ATOM      9  C   UNL     1      19.995  35.938  46.142  0.00  0.00    +0.000 C 
ATOM     10  C   UNL     1      18.272  35.439  48.021  0.00  0.00    +0.000 C 
ATOM     11  C   UNL     1      17.907  36.897  48.342  0.00  0.00    +0.000 C 
ATOM     12  C   UNL     1      16.850  37.491  47.399  0.00  0.00    +0.000 C 
ATOM     13  C   UNL     1      17.262  37.310  45.931  0.00  0.00    +0.000 C 
ATOM     14  C   UNL     1      16.509  38.173  44.855  0.00  0.00    +0.000 C 
ATOM     15  C   UNL     1      15.088  37.658  44.571  0.00  0.00    +0.000 C 
ATOM     16  C   UNL     1      16.361  39.660  45.345  0.00  0.00    +0.000 C 
ATOM     17  C   UNL     1      16.078  40.600  44.214  0.00  0.00    +0.000 A 
ATOM     18  C   UNL     1      16.345  40.302  42.891  0.00  0.00    +0.000 A 
ATOM     19  N   UNL     1      15.964  41.383  42.139  0.00  0.00    +0.000 N 
ATOM     20  C   UNL     1      15.492  42.395  42.947  0.00  0.00    +0.000 A 
ATOM     21  C   UNL     1      15.036  43.684  42.612  0.00  0.00    +0.000 A 
ATOM     22  C   UNL     1      14.606  44.490  43.684  0.00  0.00    +0.000 A 
ATOM     23  C   UNL     1      14.636  44.042  45.002  0.00  0.00    +0.000 A 
ATOM     24  C   UNL     1      15.105  42.762  45.303  0.00  0.00    +0.000 A 
ATOM     25  C   UNL     1      15.542  41.920  44.260  0.00  0.00    +0.000 A 
ATOM     26  C   UNL     1      16.954  39.027  42.342  0.00  0.00    +0.000 C 
ATOM     27  C   UNL     1      15.926  38.287  41.465  0.00  0.00    +0.000 C 
ATOM     28  C   UNL     1      18.165  39.388  41.445  0.00  0.00    +0.000 C 
ATOM     29  C   UNL     1      17.461  38.190  43.587  0.00  0.00    +0.000 C 
ATOM     30  C   UNL     1      18.137  36.841  43.253  0.00  0.00    +0.000 C 
ATOM     31  C   UNL     1      17.670  35.618  44.039  0.00  0.00    +0.000 C 
ATOM     32  C   UNL     1      17.447  35.782  45.573  0.00  0.00    +0.000 C 
ATOM     33  C   UNL     1      16.154  34.946  45.876  0.00  0.00    +0.000 C 
ATOM     34  C   UNL     1      19.361  34.846  48.943  0.00  0.00    +0.000 C 
ATOM     35  H   UNL     1      16.034  41.444  41.134  0.00  0.00    +0.000 HD
ENDROOT
BRANCH   1  37
ATOM     36  C   UNL     1      18.786  37.238  51.541  0.00  0.00    +0.000 C 
ATOM     37  C   UNL     1      19.665  36.322  51.096  0.00  0.00    +0.000 C 
ATOM     38  C   UNL     1      21.145  36.584  51.174  0.00  0.00    +0.000 C 
ENDBRANCH   1  37
BRANCH  21  39
ATOM     39  C   UNL     1      14.978  44.214  41.203  0.00  0.00    +0.000 C 
ATOM     40  C   UNL     1      13.689  43.817  40.503  0.00  0.00    +0.000 C 
ENDBRANCH  21  39
TORSDOF 2
ENDMDL
MODEL 3
REMARK VINA RESULT:    -7.204      1.626      2.559
REMARK INTER + INTRA:          -8.598
REMARK INTER:                  -8.047
REMARK INTRA:                  -0.551
REMARK UNBOUND:                -0.551
REMARK  Name = 
REMARK  10 active torsions:
REMARK  status: ('A' for Active; 'I' for Inactive)
REMARK    1  A    between atoms: C_2  and  C_3
REMARK    2  A    between atoms: C_2  and  C_4
REMARK    3  A    between atoms: C_7  and  C_8
REMARK    4  A    between atoms: C_11  and  C_12
REMARK    5  A    between atoms: C_17  and  C_18
REMARK    6  A    between atoms: C_24  and  C_25
REMARK    7  A    between atoms: C_25  and  C_26
REMARK    8  A    between atoms: C_31  and  C_32
REMARK    9  A    between atoms: C_31  and  C_33
REMARK   10  A    between atoms: C_37  and  C_38
REMARK                            x       y       z     vdW  Elec       q    Type
REMARK                         _______ _______ _______ _____ _____    ______ ____
ROOT
ATOM      1  C   UNL     1      16.631  38.510  54.592  0.00  0.00    +0.000 C 
ATOM      2  C   UNL     1      17.082  38.146  56.032  0.00  0.00    +0.000 C 
ATOM      3  C   UNL     1      17.929  36.866  55.919  0.00  0.00    +0.000 C 
ATOM      4  C   UNL     1      17.491  36.236  54.590  0.00  0.00    +0.000 C 
ATOM      5  C   UNL     1      16.147  35.501  54.814  0.00  0.00    +0.000 C 
ATOM      6  C   UNL     1      18.504  35.259  53.980  0.00  0.00    +0.000 C 
ATOM      7  C   UNL     1      18.166  34.919  52.509  0.00  0.00    +0.000 C 
ATOM      8  C   UNL     1      17.933  36.164  51.573  0.00  0.00    +0.000 C 
ATOM      9  C   UNL     1      19.339  36.826  51.412  0.00  0.00    +0.000 C 
ATOM     10  C   UNL     1      16.914  37.158  52.287  0.00  0.00    +0.000 C 
ATOM     11  C   UNL     1      16.565  38.385  51.428  0.00  0.00    +0.000 C 
ATOM     12  C   UNL     1      16.106  38.032  50.006  0.00  0.00    +0.000 C 
ATOM     13  C   UNL     1      17.124  37.115  49.313  0.00  0.00    +0.000 C 
ATOM     14  C   UNL     1      17.015  36.961  47.752  0.00  0.00    +0.000 C 
ATOM     15  C   UNL     1      15.842  36.064  47.325  0.00  0.00    +0.000 C 
ATOM     16  C   UNL     1      16.784  38.361  47.075  0.00  0.00    +0.000 C 
ATOM     17  C   UNL     1      17.124  38.344  45.616  0.00  0.00    +0.000 A 
ATOM     18  C   UNL     1      17.938  37.389  45.035  0.00  0.00    +0.000 A 
ATOM     19  N   UNL     1      18.030  37.683  43.699  0.00  0.00    +0.000 N 
ATOM     20  C   UNL     1      17.328  38.832  43.405  0.00  0.00    +0.000 A 
ATOM     21  C   UNL     1      17.182  39.516  42.183  0.00  0.00    +0.000 A 
ATOM     22  C   UNL     1      16.380  40.673  42.210  0.00  0.00    +0.000 A 
ATOM     23  C   UNL     1      15.770  41.120  43.379  0.00  0.00    +0.000 A 
ATOM     24  C   UNL     1      15.943  40.426  44.577  0.00  0.00    +0.000 A 
ATOM     25  C   UNL     1      16.736  39.261  44.595  0.00  0.00    +0.000 A 
ATOM     26  C   UNL     1      18.623  36.225  45.723  0.00  0.00    +0.000 C 
ATOM     27  C   UNL     1      18.049  34.893  45.202  0.00  0.00    +0.000 C 
ATOM     28  C   UNL     1      20.135  36.252  45.382  0.00  0.00    +0.000 C 
ATOM     29  C   UNL     1      18.438  36.442  47.280  0.00  0.00    +0.000 C 
ATOM     30  C   UNL     1      19.078  35.365  48.185  0.00  0.00    +0.000 C 
ATOM     31  C   UNL     1      18.206  34.784  49.295  0.00  0.00    +0.000 C 
ATOM     32  C   UNL     1      17.324  35.771  50.118  0.00  0.00    +0.000 C 
ATOM     33  C   UNL     1      15.972  35.006  50.334  0.00  0.00    +0.000 C 
ATOM     34  C   UNL     1      17.413  37.506  53.707  0.00  0.00    +0.000 C 
ATOM     35  H   UNL     1      18.555  37.148  43.023  0.00  0.00    +0.000 HD
ENDROOT
BRANCH   1  37
ATOM     36  C   UNL     1      15.896  40.929  54.591  0.00  0.00    +0.000 C 
ATOM     37  C   UNL     1      16.825  39.993  54.318  0.00  0.00    +0.000 C 
ATOM     38  C   UNL     1      18.138  40.383  53.694  0.00  0.00    +0.000 C 
ENDBRANCH   1  37
BRANCH  21  39
ATOM     39  C   UNL     1      17.815  39.070  40.890  0.00  0.00    +0.000 C 
ATOM     40  C   UNL     1      16.949  38.061  40.156  0.00  0.00    +0.000 C 
ENDBRANCH  21  39
TORSDOF 2
ENDMDL
