MODEL 1
REMARK VINA RESULT:    -6.605      0.000      0.000
REMARK INTER + INTRA:          -7.912
REMARK INTER:                  -7.181
REMARK INTRA:                  -0.731
REMARK UNBOUND:                -0.727
REMARK  Name = 
REMARK  11 active torsions:
REMARK  status: ('A' for Active; 'I' for Inactive)
REMARK    1  A    between atoms: C_1  and  C_2
REMARK    2  A    between atoms: C_11  and  C_12
REMARK    3  A    between atoms: C_15  and  O_16
REMARK    4  A    between atoms: C_18  and  C_19
REMARK    5  A    between atoms: C_19  and  C_20
REMARK    6  A    between atoms: C_24  and  C_25
REMARK    7  A    between atoms: C_24  and  C_26
REMARK    8  A    between atoms: C_30  and  C_31
REMARK    9  A    between atoms: C_32  and  C_33
REMARK   10  A    between atoms: C_38  and  C_39
REMARK   11  A    between atoms: C_38  and  C_40
REMARK                            x       y       z     vdW  Elec       q    Type
REMARK                         _______ _______ _______ _____ _____    ______ ____
ROOT
ATOM      1  C   UNL     1      27.634  31.809  50.907  0.00  0.00    +0.000 C 
ATOM      2  C   UNL     1      26.460  32.687  50.555  0.00  0.00    +0.000 C 
ATOM      3  O   UNL     1      26.458  33.349  49.522  0.00  0.00    +0.000 OA
ATOM      4  N   UNL     1      25.479  32.637  51.522  0.00  0.00    +0.000 N 
ATOM      5  C   UNL     1      24.261  33.265  51.487  0.00  0.00    +0.000 A 
ATOM      6  N   UNL     1      23.469  33.274  52.535  0.00  0.00    +0.000 NA
ATOM      7  C   UNL     1      22.295  33.945  52.230  0.00  0.00    +0.000 A 
ATOM      8  C   UNL     1      22.217  34.398  50.931  0.00  0.00    +0.000 A 
ATOM      9  S   UNL     1      23.650  34.028  50.090  0.00  0.00    +0.000 S 
ATOM     10  C   UNL     1      21.082  35.134  50.307  0.00  0.00    +0.000 C 
ATOM     11  C   UNL     1      19.756  34.970  51.138  0.00  0.00    +0.000 C 
ATOM     12  C   UNL     1      19.187  33.569  50.815  0.00  0.00    +0.000 C 
ATOM     13  C   UNL     1      18.778  36.152  50.713  0.00  0.00    +0.000 C 
ATOM     14  C   UNL     1      18.371  36.135  49.217  0.00  0.00    +0.000 C 
ATOM     15  C   UNL     1      17.547  37.347  48.744  0.00  0.00    +0.000 C 
ATOM     16  C   UNL     1      16.371  37.630  49.682  0.00  0.00    +0.000 C 
ATOM     17  C   UNL     1      15.495  38.895  49.444  0.00  0.00    +0.000 C 
ATOM     18  C   UNL     1      14.787  39.071  50.816  0.00  0.00    +0.000 C 
ATOM     19  C   UNL     1      15.521  38.179  51.835  0.00  0.00    +0.000 C 
ATOM     20  C   UNL     1      16.850  37.782  51.159  0.00  0.00    +0.000 C 
ATOM     21  C   UNL     1      17.808  39.011  51.340  0.00  0.00    +0.000 C 
ATOM     22  C   UNL     1      17.529  36.417  51.646  0.00  0.00    +0.000 C 
ATOM     23  C   UNL     1      16.515  35.236  51.584  0.00  0.00    +0.000 C 
ATOM     24  C   UNL     1      17.998  36.515  53.115  0.00  0.00    +0.000 C 
ATOM     25  C   UNL     1      18.857  35.326  53.501  0.00  0.00    +0.000 C 
ATOM     26  O   UNL     1      18.548  34.627  54.462  0.00  0.00    +0.000 OA
ATOM     27  C   UNL     1      20.123  35.132  52.669  0.00  0.00    +0.000 C 
ATOM     28  C   UNL     1      21.193  34.123  53.261  0.00  0.00    +0.000 C 
ATOM     29  C   UNL     1      20.656  32.730  53.655  0.00  0.00    +0.000 C 
ATOM     30  C   UNL     1      21.807  34.757  54.537  0.00  0.00    +0.000 C 
ATOM     31  H   UNL     1      25.658  32.169  52.399  0.00  0.00    +0.000 HD
ENDROOT
BRANCH  17  32
ATOM     32  C   UNL     1      14.539  38.929  48.201  0.00  0.00    +0.000 C 
ATOM     33  C   UNL     1      13.774  37.605  48.042  0.00  0.00    +0.000 C 
ATOM     34  C   UNL     1      13.534  40.102  48.303  0.00  0.00    +0.000 C 
ATOM     35  C   UNL     1      14.160  41.424  47.891  0.00  0.00    +0.000 C 
ATOM     36  C   UNL     1      14.767  41.365  46.493  0.00  0.00    +0.000 C 
ATOM     37  C   UNL     1      15.068  39.941  45.990  0.00  0.00    +0.000 C 
ATOM     38  C   UNL     1      16.312  39.987  45.085  0.00  0.00    +0.000 C 
ATOM     39  C   UNL     1      13.924  39.357  45.148  0.00  0.00    +0.000 C 
ATOM     40  O   UNL     1      15.422  39.072  47.070  0.00  0.00    +0.000 OA
ENDBRANCH  17  32
BRANCH  15  41
ATOM     41  O   UNL     1      17.093  37.011  47.437  0.00  0.00    +0.000 OA
ATOM     42  H   UNL     1      17.238  36.047  47.326  0.00  0.00    +0.000 HD
ENDBRANCH  15  41
TORSDOF 2
ENDMDL
MODEL 2
REMARK VINA RESULT:    -6.279      1.451      2.285
REMARK INTER + INTRA:          -7.557
REMARK INTER:                  -7.077
REMARK INTRA:                  -0.480
REMARK UNBOUND:                -0.727
REMARK  Name = 
REMARK  11 active torsions:
REMARK  status: ('A' for Active; 'I' for Inactive)
REMARK    1  A    between atoms: C_1  and  C_2
REMARK    2  A    between atoms: C_11  and  C_12
REMARK    3  A    between atoms: C_15  and  O_16
REMARK    4  A    between atoms: C_18  and  C_19
REMARK    5  A    between atoms: C_19  and  C_20
REMARK    6  A    between atoms: C_24  and  C_25
REMARK    7  A    between atoms: C_24  and  C_26
REMARK    8  A    between atoms: C_30  and  C_31
REMARK    9  A    between atoms: C_32  and  C_33
REMARK   10  A    between atoms: C_38  and  C_39
REMARK   11  A    between atoms: C_38  and  C_40
REMARK                            x       y       z     vdW  Elec       q    Type
REMARK                         _______ _______ _______ _____ _____    ______ ____
ROOT
ATOM      1  C   UNL     1      27.018  32.267  49.861  0.00  0.00    +0.000 C 
ATOM      2  C   UNL     1      25.872  33.239  49.739  0.00  0.00    +0.000 C 
ATOM      3  O   UNL     1      25.849  34.074  48.841  0.00  0.00    +0.000 OA
ATOM      4  N   UNL     1      24.942  33.057  50.740  0.00  0.00    +0.000 N 
ATOM      5  C   UNL     1      23.756  33.729  50.889  0.00  0.00    +0.000 A 
ATOM      6  N   UNL     1      23.021  33.582  51.968  0.00  0.00    +0.000 NA
ATOM      7  C   UNL     1      21.868  34.342  51.856  0.00  0.00    +0.000 A 
ATOM      8  C   UNL     1      21.744  35.022  50.664  0.00  0.00    +0.000 A 
ATOM      9  S   UNL     1      23.112  34.751  49.686  0.00  0.00    +0.000 S 
ATOM     10  C   UNL     1      20.616  35.901  50.248  0.00  0.00    +0.000 C 
ATOM     11  C   UNL     1      19.329  35.643  51.116  0.00  0.00    +0.000 C 
ATOM     12  C   UNL     1      18.675  34.346  50.588  0.00  0.00    +0.000 C 
ATOM     13  C   UNL     1      18.389  36.920  50.964  0.00  0.00    +0.000 C 
ATOM     14  C   UNL     1      17.904  37.185  49.516  0.00  0.00    +0.000 C 
ATOM     15  C   UNL     1      17.117  38.493  49.312  0.00  0.00    +0.000 C 
ATOM     16  C   UNL     1      16.007  38.651  50.355  0.00  0.00    +0.000 C 
ATOM     17  C   UNL     1      15.183  39.971  50.395  0.00  0.00    +0.000 C 
ATOM     18  C   UNL     1      14.558  39.928  51.817  0.00  0.00    +0.000 C 
ATOM     19  C   UNL     1      15.299  38.842  52.618  0.00  0.00    +0.000 C 
ATOM     20  C   UNL     1      16.569  38.519  51.804  0.00  0.00    +0.000 C 
ATOM     21  C   UNL     1      17.595  39.658  52.139  0.00  0.00    +0.000 C 
ATOM     22  C   UNL     1      17.205  37.064  52.003  0.00  0.00    +0.000 C 
ATOM     23  C   UNL     1      16.133  35.953  51.796  0.00  0.00    +0.000 C 
ATOM     24  C   UNL     1      17.755  36.880  53.435  0.00  0.00    +0.000 C 
ATOM     25  C   UNL     1      18.573  35.609  53.554  0.00  0.00    +0.000 C 
ATOM     26  O   UNL     1      18.280  34.763  54.395  0.00  0.00    +0.000 OA
ATOM     27  C   UNL     1      19.783  35.516  52.627  0.00  0.00    +0.000 C 
ATOM     28  C   UNL     1      20.831  34.378  52.968  0.00  0.00    +0.000 C 
ATOM     29  C   UNL     1      20.247  32.959  53.143  0.00  0.00    +0.000 C 
ATOM     30  C   UNL     1      21.541  34.750  54.295  0.00  0.00    +0.000 C 
ATOM     31  H   UNL     1      25.143  32.434  51.509  0.00  0.00    +0.000 HD
ENDROOT
BRANCH  17  32
ATOM     32  C   UNL     1      14.167  40.263  49.237  0.00  0.00    +0.000 C 
ATOM     33  C   UNL     1      14.831  41.038  48.087  0.00  0.00    +0.000 C 
ATOM     34  C   UNL     1      13.549  38.952  48.693  0.00  0.00    +0.000 C 
ATOM     35  C   UNL     1      12.429  38.440  49.583  0.00  0.00    +0.000 C 
ATOM     36  C   UNL     1      11.342  39.487  49.803  0.00  0.00    +0.000 C 
ATOM     37  C   UNL     1      11.788  40.935  49.526  0.00  0.00    +0.000 C 
ATOM     38  C   UNL     1      11.033  41.877  50.481  0.00  0.00    +0.000 C 
ATOM     39  C   UNL     1      11.463  41.391  48.097  0.00  0.00    +0.000 C 
ATOM     40  O   UNL     1      13.173  41.120  49.835  0.00  0.00    +0.000 OA
ENDBRANCH  17  32
BRANCH  15  41
ATOM     41  O   UNL     1      16.579  38.412  47.997  0.00  0.00    +0.000 OA
ATOM     42  H   UNL     1      17.226  38.843  47.399  0.00  0.00    +0.000 HD
ENDBRANCH  15  41
TORSDOF 2
ENDMDL
MODEL 3
REMARK VINA RESULT:    -6.221      4.939      9.278
REMARK INTER + INTRA:          -7.494
REMARK INTER:                  -6.767
REMARK INTRA:                  -0.727
REMARK UNBOUND:                -0.727
REMARK  Name = 
REMARK  11 active torsions:
REMARK  status: ('A' for Active; 'I' for Inactive)
REMARK    1  A    between atoms: C_1  and  C_2
REMARK    2  A    between atoms: C_11  and  C_12
REMARK    3  A    between atoms: C_15  and  O_16
REMARK    4  A    between atoms: C_18  and  C_19
REMARK    5  A    between atoms: C_19  and  C_20
REMARK    6  A    between atoms: C_24  and  C_25
REMARK    7  A    between atoms: C_24  and  C_26
REMARK    8  A    between atoms: C_30  and  C_31
REMARK    9  A    between atoms: C_32  and  C_33
REMARK   10  A    between atoms: C_38  and  C_39
REMARK   11  A    between atoms: C_38  and  C_40
REMARK                            x       y       z     vdW  Elec       q    Type
REMARK                         _______ _______ _______ _____ _____    ______ ____
ROOT
ATOM      1  C   UNL     1      15.175  42.693  41.375  0.00  0.00    +0.000 C 
ATOM      2  C   UNL     1      15.372  42.362  42.832  0.00  0.00    +0.000 C 
ATOM      3  O   UNL     1      15.170  43.205  43.701  0.00  0.00    +0.000 OA
ATOM      4  N   UNL     1      15.802  41.064  43.005  0.00  0.00    +0.000 N 
ATOM      5  C   UNL     1      16.020  40.426  44.199  0.00  0.00    +0.000 A 
ATOM      6  N   UNL     1      16.580  39.238  44.243  0.00  0.00    +0.000 NA
ATOM      7  C   UNL     1      16.658  38.806  45.558  0.00  0.00    +0.000 A 
ATOM      8  C   UNL     1      16.113  39.675  46.479  0.00  0.00    +0.000 A 
ATOM      9  S   UNL     1      15.542  41.076  45.700  0.00  0.00    +0.000 S 
ATOM     10  C   UNL     1      16.035  39.481  47.953  0.00  0.00    +0.000 C 
ATOM     11  C   UNL     1      16.230  37.971  48.352  0.00  0.00    +0.000 C 
ATOM     12  C   UNL     1      14.896  37.247  48.062  0.00  0.00    +0.000 C 
ATOM     13  C   UNL     1      16.636  37.934  49.892  0.00  0.00    +0.000 C 
ATOM     14  C   UNL     1      15.561  38.511  50.848  0.00  0.00    +0.000 C 
ATOM     15  C   UNL     1      15.983  38.625  52.324  0.00  0.00    +0.000 C 
ATOM     16  C   UNL     1      16.601  37.322  52.836  0.00  0.00    +0.000 C 
ATOM     17  C   UNL     1      17.209  37.278  54.268  0.00  0.00    +0.000 C 
ATOM     18  C   UNL     1      18.120  36.021  54.204  0.00  0.00    +0.000 C 
ATOM     19  C   UNL     1      18.276  35.636  52.721  0.00  0.00    +0.000 C 
ATOM     20  C   UNL     1      17.775  36.855  51.920  0.00  0.00    +0.000 C 
ATOM     21  C   UNL     1      18.959  37.884  51.918  0.00  0.00    +0.000 C 
ATOM     22  C   UNL     1      17.225  36.574  50.443  0.00  0.00    +0.000 C 
ATOM     23  C   UNL     1      16.144  35.452  50.455  0.00  0.00    +0.000 C 
ATOM     24  C   UNL     1      18.352  36.087  49.506  0.00  0.00    +0.000 C 
ATOM     25  C   UNL     1      17.895  36.057  48.060  0.00  0.00    +0.000 C 
ATOM     26  O   UNL     1      17.968  35.018  47.411  0.00  0.00    +0.000 OA
ATOM     27  C   UNL     1      17.427  37.396  47.491  0.00  0.00    +0.000 C 
ATOM     28  C   UNL     1      17.275  37.463  45.915  0.00  0.00    +0.000 C 
ATOM     29  C   UNL     1      16.427  36.343  45.274  0.00  0.00    +0.000 C 
ATOM     30  C   UNL     1      18.691  37.386  45.285  0.00  0.00    +0.000 C 
ATOM     31  H   UNL     1      16.074  40.511  42.205  0.00  0.00    +0.000 HD
ENDROOT
BRANCH  17  32
ATOM     32  C   UNL     1      16.241  37.327  55.501  0.00  0.00    +0.000 C 
ATOM     33  C   UNL     1      14.942  36.551  55.229  0.00  0.00    +0.000 C 
ATOM     34  C   UNL     1      16.927  36.766  56.771  0.00  0.00    +0.000 C 
ATOM     35  C   UNL     1      17.845  37.788  57.418  0.00  0.00    +0.000 C 
ATOM     36  C   UNL     1      17.124  39.094  57.737  0.00  0.00    +0.000 C 
ATOM     37  C   UNL     1      15.824  39.312  56.943  0.00  0.00    +0.000 C 
ATOM     38  C   UNL     1      15.645  40.821  56.691  0.00  0.00    +0.000 C 
ATOM     39  C   UNL     1      14.578  38.835  57.703  0.00  0.00    +0.000 C 
ATOM     40  O   UNL     1      15.904  38.722  55.641  0.00  0.00    +0.000 OA
ENDBRANCH  17  32
BRANCH  15  41
ATOM     41  O   UNL     1      14.792  38.943  53.036  0.00  0.00    +0.000 OA
ATOM     42  H   UNL     1      14.125  39.211  52.369  0.00  0.00    +0.000 HD
ENDBRANCH  15  41
TORSDOF 2
ENDMDL
