MODEL 1
REMARK VINA RESULT:    -7.348      0.000      0.000
REMARK INTER + INTRA:         -10.978
REMARK INTER:                  -9.154
REMARK INTRA:                  -1.824
REMARK UNBOUND:                -1.697
REMARK  Name = 
REMARK  5 active torsions:
REMARK  status: ('A' for Active; 'I' for Inactive)
REMARK    1  A    between atoms: O_1  and  C_2
REMARK    2  A    between atoms: C_6  and  C_7
REMARK    3  A    between atoms: C_10  and  C_11
REMARK    4  A    between atoms: C_12  and  C_13
REMARK    5  A    between atoms: C_13  and  C_14
REMARK                            x       y       z     vdW  Elec       q    Type
REMARK                         _______ _______ _______ _____ _____    ______ ____
ROOT
ATOM      1  C   UNL     1      19.693  36.382  50.400  0.00  0.00    +0.000 A 
ATOM      2  C   UNL     1      19.894  35.489  49.334  0.00  0.00    +0.000 A 
ATOM      3  C   UNL     1      21.114  34.826  49.168  0.00  0.00    +0.000 A 
ATOM      4  C   UNL     1      22.158  35.050  50.068  0.00  0.00    +0.000 A 
ATOM      5  C   UNL     1      21.971  35.921  51.142  0.00  0.00    +0.000 A 
ATOM      6  C   UNL     1      20.751  36.583  51.303  0.00  0.00    +0.000 A 
ENDROOT
BRANCH   4   7
ATOM      7  C   UNL     1      23.436  34.375  49.893  0.00  0.00    +0.000 A 
ATOM      8  C   UNL     1      23.748  33.221  50.595  0.00  0.00    +0.000 A 
ATOM      9  S   UNL     1      25.312  32.654  50.190  0.00  0.00    +0.000 S 
ATOM     10  C   UNL     1      25.582  33.920  49.061  0.00  0.00    +0.000 A 
ATOM     11  C   UNL     1      26.734  34.119  48.274  0.00  0.00    +0.000 A 
ATOM     12  C   UNL     1      26.781  35.210  47.404  0.00  0.00    +0.000 A 
ATOM     13  C   UNL     1      25.711  36.087  47.317  0.00  0.00    +0.000 A 
ATOM     14  C   UNL     1      24.570  35.886  48.101  0.00  0.00    +0.000 A 
ATOM     15  C   UNL     1      24.489  34.785  48.994  0.00  0.00    +0.000 A 
BRANCH   8  16
ATOM     16  C   UNL     1      22.938  32.464  51.619  0.00  0.00    +0.000 C 
BRANCH  16  17
ATOM     17  C   UNL     1      22.944  33.096  52.995  0.00  0.00    +0.000 A 
ATOM     18  C   UNL     1      21.750  33.550  53.575  0.00  0.00    +0.000 A 
ATOM     19  C   UNL     1      21.753  34.132  54.843  0.00  0.00    +0.000 A 
ATOM     20  C   UNL     1      22.949  34.273  55.543  0.00  0.00    +0.000 A 
ATOM     21  C   UNL     1      24.143  33.832  54.977  0.00  0.00    +0.000 A 
ATOM     22  C   UNL     1      24.142  33.249  53.708  0.00  0.00    +0.000 A 
ENDBRANCH  16  17
ENDBRANCH   8  16
ENDBRANCH   4   7
BRANCH   1  27
ATOM     23  C   UNL     1      15.966  38.463  50.883  0.00  0.00    +0.000 A 
ATOM     24  C   UNL     1      16.126  37.530  49.857  0.00  0.00    +0.000 A 
ATOM     25 BR   UNL     1      14.706  37.158  48.655  0.00  0.00    +0.000 Br
ATOM     26  C   UNL     1      17.337  36.851  49.696  0.00  0.00    +0.000 A 
ATOM     27  C   UNL     1      18.415  37.093  50.564  0.00  0.00    +0.000 A 
ATOM     28  C   UNL     1      18.241  38.035  51.593  0.00  0.00    +0.000 A 
ATOM     29  C   UNL     1      17.029  38.714  51.752  0.00  0.00    +0.000 A 
ATOM     30 BR   UNL     1      16.881  39.970  53.165  0.00  0.00    +0.000 Br
BRANCH  23  31
ATOM     31  O   UNL     1      14.784  39.134  51.048  0.00  0.00    +0.000 OA
ATOM     32  H   UNL     1      14.649  39.703  50.269  0.00  0.00    +0.000 HD
ENDBRANCH  23  31
ENDBRANCH   1  27
TORSDOF 5
ENDMDL
MODEL 2
REMARK VINA RESULT:    -7.325      0.150      1.909
REMARK INTER + INTRA:         -10.949
REMARK INTER:                  -9.178
REMARK INTRA:                  -1.772
REMARK UNBOUND:                -1.697
REMARK  Name = 
REMARK  5 active torsions:
REMARK  status: ('A' for Active; 'I' for Inactive)
REMARK    1  A    between atoms: O_1  and  C_2
REMARK    2  A    between atoms: C_6  and  C_7
REMARK    3  A    between atoms: C_10  and  C_11
REMARK    4  A    between atoms: C_12  and  C_13
REMARK    5  A    between atoms: C_13  and  C_14
REMARK                            x       y       z     vdW  Elec       q    Type
REMARK                         _______ _______ _______ _____ _____    ______ ____
ROOT
ATOM      1  C   UNL     1      19.652  36.378  50.351  0.00  0.00    +0.000 A 
ATOM      2  C   UNL     1      19.880  35.465  49.307  0.00  0.00    +0.000 A 
ATOM      3  C   UNL     1      21.106  34.804  49.181  0.00  0.00    +0.000 A 
ATOM      4  C   UNL     1      22.129  35.051  50.098  0.00  0.00    +0.000 A 
ATOM      5  C   UNL     1      21.915  35.943  51.150  0.00  0.00    +0.000 A 
ATOM      6  C   UNL     1      20.688  36.602  51.272  0.00  0.00    +0.000 A 
ENDROOT
BRANCH   4   7
ATOM      7  C   UNL     1      23.413  34.379  49.964  0.00  0.00    +0.000 A 
ATOM      8  C   UNL     1      23.721  33.250  50.708  0.00  0.00    +0.000 A 
ATOM      9  S   UNL     1      25.295  32.681  50.345  0.00  0.00    +0.000 S 
ATOM     10  C   UNL     1      25.574  33.912  49.180  0.00  0.00    +0.000 A 
ATOM     11  C   UNL     1      26.737  34.092  48.404  0.00  0.00    +0.000 A 
ATOM     12  C   UNL     1      26.791  35.156  47.501  0.00  0.00    +0.000 A 
ATOM     13  C   UNL     1      25.717  36.022  47.369  0.00  0.00    +0.000 A 
ATOM     14  C   UNL     1      24.566  35.839  48.142  0.00  0.00    +0.000 A 
ATOM     15  C   UNL     1      24.478  34.767  49.068  0.00  0.00    +0.000 A 
BRANCH   8  16
ATOM     16  C   UNL     1      22.900  32.521  51.743  0.00  0.00    +0.000 C 
BRANCH  16  17
ATOM     17  C   UNL     1      22.907  33.181  53.106  0.00  0.00    +0.000 A 
ATOM     18  C   UNL     1      24.096  33.273  53.845  0.00  0.00    +0.000 A 
ATOM     19  C   UNL     1      24.105  33.881  55.101  0.00  0.00    +0.000 A 
ATOM     20  C   UNL     1      22.927  34.398  55.636  0.00  0.00    +0.000 A 
ATOM     21  C   UNL     1      21.738  34.307  54.915  0.00  0.00    +0.000 A 
ATOM     22  C   UNL     1      21.726  33.700  53.658  0.00  0.00    +0.000 A 
ENDBRANCH  16  17
ENDBRANCH   8  16
ENDBRANCH   4   7
BRANCH   1  27
ATOM     23  C   UNL     1      15.898  38.438  50.700  0.00  0.00    +0.000 A 
ATOM     24  C   UNL     1      16.959  38.755  51.551  0.00  0.00    +0.000 A 
ATOM     25 BR   UNL     1      16.771  40.099  52.876  0.00  0.00    +0.000 Br
ATOM     26  C   UNL     1      18.181  38.087  51.440  0.00  0.00    +0.000 A 
ATOM     27  C   UNL     1      18.368  37.086  50.473  0.00  0.00    +0.000 A 
ATOM     28  C   UNL     1      17.291  36.777  49.622  0.00  0.00    +0.000 A 
ATOM     29  C   UNL     1      16.068  37.446  49.734  0.00  0.00    +0.000 A 
ATOM     30 BR   UNL     1      14.669  36.964  48.548  0.00  0.00    +0.000 Br
BRANCH  23  31
ATOM     31  O   UNL     1      14.696  39.086  50.800  0.00  0.00    +0.000 OA
ATOM     32  H   UNL     1      14.839  40.023  50.572  0.00  0.00    +0.000 HD
ENDBRANCH  23  31
ENDBRANCH   1  27
TORSDOF 5
ENDMDL
MODEL 3
REMARK VINA RESULT:    -6.695      4.345      7.444
REMARK INTER + INTRA:         -10.153
REMARK INTER:                  -8.456
REMARK INTRA:                  -1.697
REMARK UNBOUND:                -1.697
REMARK  Name = 
REMARK  5 active torsions:
REMARK  status: ('A' for Active; 'I' for Inactive)
REMARK    1  A    between atoms: O_1  and  C_2
REMARK    2  A    between atoms: C_6  and  C_7
REMARK    3  A    between atoms: C_10  and  C_11
REMARK    4  A    between atoms: C_12  and  C_13
REMARK    5  A    between atoms: C_13  and  C_14
REMARK                            x       y       z     vdW  Elec       q    Type
REMARK                         _______ _______ _______ _____ _____    ______ ____
ROOT
ATOM      1  C   UNL     1      21.061  35.327  49.333  0.00  0.00    +0.000 A 
ATOM      2  C   UNL     1      19.662  35.339  49.193  0.00  0.00    +0.000 A 
ATOM      3  C   UNL     1      18.840  35.852  50.201  0.00  0.00    +0.000 A 
ATOM      4  C   UNL     1      19.407  36.359  51.372  0.00  0.00    +0.000 A 
ATOM      5  C   UNL     1      20.795  36.370  51.522  0.00  0.00    +0.000 A 
ATOM      6  C   UNL     1      21.612  35.854  50.511  0.00  0.00    +0.000 A 
ENDROOT
BRANCH   4   7
ATOM      7  C   UNL     1      18.558  36.881  52.433  0.00  0.00    +0.000 A 
ATOM      8  C   UNL     1      18.225  36.113  53.538  0.00  0.00    +0.000 A 
ATOM      9  S   UNL     1      17.216  36.983  54.614  0.00  0.00    +0.000 S 
ATOM     10  C   UNL     1      17.230  38.395  53.637  0.00  0.00    +0.000 A 
ATOM     11  C   UNL     1      16.577  39.614  53.905  0.00  0.00    +0.000 A 
ATOM     12  C   UNL     1      16.698  40.663  52.991  0.00  0.00    +0.000 A 
ATOM     13  C   UNL     1      17.448  40.508  51.836  0.00  0.00    +0.000 A 
ATOM     14  C   UNL     1      18.094  39.295  51.575  0.00  0.00    +0.000 A 
ATOM     15  C   UNL     1      17.993  38.209  52.483  0.00  0.00    +0.000 A 
BRANCH   8  16
ATOM     16  C   UNL     1      18.604  34.692  53.877  0.00  0.00    +0.000 C 
BRANCH  16  17
ATOM     17  C   UNL     1      19.904  34.571  54.644  0.00  0.00    +0.000 A 
ATOM     18  C   UNL     1      21.083  34.188  53.989  0.00  0.00    +0.000 A 
ATOM     19  C   UNL     1      22.283  34.077  54.692  0.00  0.00    +0.000 A 
ATOM     20  C   UNL     1      22.317  34.341  56.060  0.00  0.00    +0.000 A 
ATOM     21  C   UNL     1      21.152  34.717  56.725  0.00  0.00    +0.000 A 
ATOM     22  C   UNL     1      19.950  34.829  56.022  0.00  0.00    +0.000 A 
ENDBRANCH  16  17
ENDBRANCH   8  16
ENDBRANCH   4   7
BRANCH   1  27
ATOM     23  C   UNL     1      23.587  33.704  46.259  0.00  0.00    +0.000 A 
ATOM     24  C   UNL     1      22.208  33.489  46.226  0.00  0.00    +0.000 A 
ATOM     25 BR   UNL     1      21.417  32.480  44.828  0.00  0.00    +0.000 Br
ATOM     26  C   UNL     1      21.383  34.015  47.224  0.00  0.00    +0.000 A 
ATOM     27  C   UNL     1      21.923  34.770  48.278  0.00  0.00    +0.000 A 
ATOM     28  C   UNL     1      23.314  34.980  48.300  0.00  0.00    +0.000 A 
ATOM     29  C   UNL     1      24.138  34.452  47.301  0.00  0.00    +0.000 A 
ATOM     30 BR   UNL     1      26.003  34.780  47.409  0.00  0.00    +0.000 Br
BRANCH  23  31
ATOM     31  O   UNL     1      24.404  33.193  45.287  0.00  0.00    +0.000 OA
ATOM     32  H   UNL     1      25.147  32.739  45.726  0.00  0.00    +0.000 HD
ENDBRANCH  23  31
ENDBRANCH   1  27
TORSDOF 5
ENDMDL
