MODEL 1
REMARK VINA RESULT:    -6.713      0.000      0.000
REMARK INTER + INTRA:          -8.941
REMARK INTER:                  -8.626
REMARK INTRA:                  -0.315
REMARK UNBOUND:                -0.462
REMARK  Name = 
REMARK  6 active torsions:
REMARK  status: ('A' for Active; 'I' for Inactive)
REMARK    1  A    between atoms: C_2  and  O_3
REMARK    2  A    between atoms: C_2  and  C_4
REMARK    3  A    between atoms: C_7  and  C_8
REMARK    4  A    between atoms: C_8  and  C_9
REMARK    5  A    between atoms: C_14  and  O_15
REMARK    6  A    between atoms: C_19  and  O_20
REMARK                            x       y       z     vdW  Elec       q    Type
REMARK                         _______ _______ _______ _____ _____    ______ ____
ROOT
ATOM      1  C   UNL     1      18.061  36.183  54.274  0.00  0.00    +0.000 A 
ATOM      2  C   UNL     1      18.453  36.314  52.934  0.00  0.00    +0.000 A 
ATOM      3  C   UNL     1      18.199  37.491  52.228  0.00  0.00    +0.000 A 
ATOM      4  C   UNL     1      17.548  38.572  52.843  0.00  0.00    +0.000 A 
ATOM      5  C   UNL     1      17.156  38.452  54.182  0.00  0.00    +0.000 A 
ATOM      6  C   UNL     1      17.414  37.263  54.892  0.00  0.00    +0.000 A 
ATOM      7  C   UNL     1      16.470  39.587  54.841  0.00  0.00    +0.000 C 
ATOM      8  O   UNL     1      16.120  39.493  56.019  0.00  0.00    +0.000 OA
ATOM      9  C   UNL     1      16.200  40.833  54.092  0.00  0.00    +0.000 A 
ATOM     10  C   UNL     1      15.547  41.910  54.713  0.00  0.00    +0.000 A 
ATOM     11  C   UNL     1      15.291  43.084  54.012  0.00  0.00    +0.000 A 
ATOM     12  C   UNL     1      15.685  43.195  52.681  0.00  0.00    +0.000 A 
ATOM     13  C   UNL     1      16.336  42.130  52.056  0.00  0.00    +0.000 A 
ATOM     14  C   UNL     1      16.599  40.939  52.755  0.00  0.00    +0.000 A 
ATOM     15  C   UNL     1      17.303  39.819  52.038  0.00  0.00    +0.000 C 
ENDROOT
BRANCH   6  16
ATOM     16  O   UNL     1      17.047  37.110  56.205  0.00  0.00    +0.000 OA
ATOM     17  H   UNL     1      17.234  36.181  56.468  0.00  0.00    +0.000 HD
ENDBRANCH   6  16
BRANCH  10  18
ATOM     18  O   UNL     1      15.127  41.882  56.016  0.00  0.00    +0.000 OA
ATOM     19  H   UNL     1      14.144  41.871  56.015  0.00  0.00    +0.000 HD
ENDBRANCH  10  18
BRANCH   1  20
ATOM     20  C   UNL     1      18.370  34.901  55.019  0.00  0.00    +0.000 C 
BRANCH  20  24
ATOM     21  C   UNL     1      22.589  33.958  55.187  0.00  0.00    +0.000 A 
ATOM     22  C   UNL     1      21.875  33.792  53.994  0.00  0.00    +0.000 A 
ATOM     23  C   UNL     1      20.515  34.102  53.942  0.00  0.00    +0.000 A 
ATOM     24  C   UNL     1      19.848  34.581  55.079  0.00  0.00    +0.000 A 
ATOM     25  C   UNL     1      20.568  34.743  56.271  0.00  0.00    +0.000 A 
ATOM     26  C   UNL     1      21.931  34.435  56.326  0.00  0.00    +0.000 A 
BRANCH  21  28
ATOM     27  O   UNL     1      24.762  33.570  54.224  0.00  0.00    +0.000 OA
ATOM     28  C   UNL     1      24.031  33.616  55.196  0.00  0.00    +0.000 C 
BRANCH  28  29
ATOM     29  O   UNL     1      24.497  33.345  56.429  0.00  0.00    +0.000 OA
ATOM     30  H   UNL     1      24.725  34.227  56.789  0.00  0.00    +0.000 HD
ENDBRANCH  28  29
ENDBRANCH  21  28
ENDBRANCH  20  24
ENDBRANCH   1  20
TORSDOF 6
ENDMDL
MODEL 2
REMARK VINA RESULT:    -6.608     11.160     15.034
REMARK INTER + INTRA:          -8.808
REMARK INTER:                  -8.347
REMARK INTRA:                  -0.462
REMARK UNBOUND:                -0.462
REMARK  Name = 
REMARK  6 active torsions:
REMARK  status: ('A' for Active; 'I' for Inactive)
REMARK    1  A    between atoms: C_2  and  O_3
REMARK    2  A    between atoms: C_2  and  C_4
REMARK    3  A    between atoms: C_7  and  C_8
REMARK    4  A    between atoms: C_8  and  C_9
REMARK    5  A    between atoms: C_14  and  O_15
REMARK    6  A    between atoms: C_19  and  O_20
REMARK                            x       y       z     vdW  Elec       q    Type
REMARK                         _______ _______ _______ _____ _____    ______ ____
ROOT
ATOM      1  C   UNL     1      13.197  44.998  44.962  0.00  0.00    +0.000 A 
ATOM      2  C   UNL     1      13.061  44.453  46.246  0.00  0.00    +0.000 A 
ATOM      3  C   UNL     1      13.622  43.213  46.560  0.00  0.00    +0.000 A 
ATOM      4  C   UNL     1      14.338  42.485  45.597  0.00  0.00    +0.000 A 
ATOM      5  C   UNL     1      14.482  43.023  44.312  0.00  0.00    +0.000 A 
ATOM      6  C   UNL     1      13.915  44.274  44.000  0.00  0.00    +0.000 A 
ATOM      7  C   UNL     1      15.238  42.263  43.289  0.00  0.00    +0.000 C 
ATOM      8  O   UNL     1      15.371  42.726  42.155  0.00  0.00    +0.000 OA
ATOM      9  C   UNL     1      15.830  40.950  43.620  0.00  0.00    +0.000 A 
ATOM     10  C   UNL     1      16.543  40.226  42.652  0.00  0.00    +0.000 A 
ATOM     11  C   UNL     1      17.103  38.989  42.959  0.00  0.00    +0.000 A 
ATOM     12  C   UNL     1      16.955  38.463  44.240  0.00  0.00    +0.000 A 
ATOM     13  C   UNL     1      16.249  39.176  45.209  0.00  0.00    +0.000 A 
ATOM     14  C   UNL     1      15.679  40.426  44.909  0.00  0.00    +0.000 A 
ATOM     15  C   UNL     1      14.926  41.157  45.988  0.00  0.00    +0.000 C 
ENDROOT
BRANCH   6  16
ATOM     16  O   UNL     1      14.039  44.834  42.753  0.00  0.00    +0.000 OA
ATOM     17  H   UNL     1      13.667  44.203  42.096  0.00  0.00    +0.000 HD
ENDBRANCH   6  16
BRANCH  10  18
ATOM     18  O   UNL     1      16.734  40.672  41.371  0.00  0.00    +0.000 OA
ATOM     19  H   UNL     1      15.923  41.154  41.097  0.00  0.00    +0.000 HD
ENDBRANCH  10  18
BRANCH   1  20
ATOM     20  C   UNL     1      12.596  46.354  44.661  0.00  0.00    +0.000 C 
BRANCH  20  24
ATOM     21  C   UNL     1      15.462  49.588  44.857  0.00  0.00    +0.000 A 
ATOM     22  C   UNL     1      15.757  48.348  45.434  0.00  0.00    +0.000 A 
ATOM     23  C   UNL     1      14.832  47.304  45.365  0.00  0.00    +0.000 A 
ATOM     24  C   UNL     1      13.600  47.485  44.719  0.00  0.00    +0.000 A 
ATOM     25  C   UNL     1      13.310  48.731  44.145  0.00  0.00    +0.000 A 
ATOM     26  C   UNL     1      14.236  49.777  44.211  0.00  0.00    +0.000 A 
BRANCH  21  28
ATOM     27  O   UNL     1      16.246  51.855  45.081  0.00  0.00    +0.000 OA
ATOM     28  C   UNL     1      16.475  50.667  44.954  0.00  0.00    +0.000 C 
BRANCH  28  29
ATOM     29  O   UNL     1      17.737  50.207  44.885  0.00  0.00    +0.000 OA
ATOM     30  H   UNL     1      17.634  49.303  44.520  0.00  0.00    +0.000 HD
ENDBRANCH  28  29
ENDBRANCH  21  28
ENDBRANCH  20  24
ENDBRANCH   1  20
TORSDOF 6
ENDMDL
MODEL 3
REMARK VINA RESULT:    -6.506     10.041     15.070
REMARK INTER + INTRA:          -8.680
REMARK INTER:                  -8.019
REMARK INTRA:                  -0.661
REMARK UNBOUND:                -0.462
REMARK  Name = 
REMARK  6 active torsions:
REMARK  status: ('A' for Active; 'I' for Inactive)
REMARK    1  A    between atoms: C_2  and  O_3
REMARK    2  A    between atoms: C_2  and  C_4
REMARK    3  A    between atoms: C_7  and  C_8
REMARK    4  A    between atoms: C_8  and  C_9
REMARK    5  A    between atoms: C_14  and  O_15
REMARK    6  A    between atoms: C_19  and  O_20
REMARK                            x       y       z     vdW  Elec       q    Type
REMARK                         _______ _______ _______ _____ _____    ______ ____
ROOT
ATOM      1  C   UNL     1      13.515  45.338  44.052  0.00  0.00    +0.000 A 
ATOM      2  C   UNL     1      13.681  45.165  42.670  0.00  0.00    +0.000 A 
ATOM      3  C   UNL     1      14.310  44.026  42.163  0.00  0.00    +0.000 A 
ATOM      4  C   UNL     1      14.788  43.026  43.024  0.00  0.00    +0.000 A 
ATOM      5  C   UNL     1      14.625  43.188  44.405  0.00  0.00    +0.000 A 
ATOM      6  C   UNL     1      13.989  44.338  44.913  0.00  0.00    +0.000 A 
ATOM      7  C   UNL     1      15.124  42.138  45.322  0.00  0.00    +0.000 C 
ATOM      8  O   UNL     1      14.986  42.269  46.540  0.00  0.00    +0.000 OA
ATOM      9  C   UNL     1      15.791  40.932  44.785  0.00  0.00    +0.000 A 
ATOM     10  C   UNL     1      16.269  39.937  45.652  0.00  0.00    +0.000 A 
ATOM     11  C   UNL     1      16.898  38.801  45.150  0.00  0.00    +0.000 A 
ATOM     12  C   UNL     1      17.055  38.648  43.775  0.00  0.00    +0.000 A 
ATOM     13  C   UNL     1      16.582  39.632  42.906  0.00  0.00    +0.000 A 
ATOM     14  C   UNL     1      15.946  40.785  43.402  0.00  0.00    +0.000 A 
ATOM     15  C   UNL     1      15.453  41.817  42.425  0.00  0.00    +0.000 C 
ENDROOT
BRANCH   6  16
ATOM     16  O   UNL     1      13.808  44.529  46.260  0.00  0.00    +0.000 OA
ATOM     17  H   UNL     1      12.842  44.585  46.434  0.00  0.00    +0.000 HD
ENDBRANCH   6  16
BRANCH  10  18
ATOM     18  O   UNL     1      16.154  40.011  47.015  0.00  0.00    +0.000 OA
ATOM     19  H   UNL     1      17.052  39.901  47.398  0.00  0.00    +0.000 HD
ENDBRANCH  10  18
BRANCH   1  20
ATOM     20  C   UNL     1      12.810  46.574  44.569  0.00  0.00    +0.000 C 
BRANCH  20  24
ATOM     21  C   UNL     1      15.320  50.097  44.572  0.00  0.00    +0.000 A 
ATOM     22  C   UNL     1      14.050  50.136  43.985  0.00  0.00    +0.000 A 
ATOM     23  C   UNL     1      13.240  48.998  43.990  0.00  0.00    +0.000 A 
ATOM     24  C   UNL     1      13.687  47.807  44.580  0.00  0.00    +0.000 A 
ATOM     25  C   UNL     1      14.962  47.775  45.165  0.00  0.00    +0.000 A 
ATOM     26  C   UNL     1      15.774  48.913  45.162  0.00  0.00    +0.000 A 
BRANCH  21  28
ATOM     27  O   UNL     1      16.045  52.239  43.741  0.00  0.00    +0.000 OA
ATOM     28  C   UNL     1      16.144  51.329  44.544  0.00  0.00    +0.000 C 
BRANCH  28  29
ATOM     29  O   UNL     1      17.063  51.366  45.526  0.00  0.00    +0.000 OA
ATOM     30  H   UNL     1      17.907  51.197  45.058  0.00  0.00    +0.000 HD
ENDBRANCH  28  29
ENDBRANCH  21  28
ENDBRANCH  20  24
ENDBRANCH   1  20
TORSDOF 6
ENDMDL
