MODEL 1
REMARK VINA RESULT:    -6.476      0.000      0.000
REMARK INTER + INTRA:          -7.383
REMARK INTER:                  -7.230
REMARK INTRA:                  -0.153
REMARK UNBOUND:                -0.150
REMARK  Name = 
REMARK  2 active torsions:
REMARK  status: ('A' for Active; 'I' for Inactive)
REMARK    1  A    between atoms: C_4  and  C_5
REMARK    2  A    between atoms: C_5  and  N_6
REMARK                            x       y       z     vdW  Elec       q    Type
REMARK                         _______ _______ _______ _____ _____    ______ ____
ROOT
ATOM      1  N   UNL     1      15.625  39.119  52.120  0.00  0.00    +0.000 NA
ATOM      2  C   UNL     1      16.838  39.180  52.970  0.00  0.00    +0.000 C 
ATOM      3  C   UNL     1      17.356  37.796  53.416  0.00  0.00    +0.000 C 
ATOM      4  N   UNL     1      17.704  36.949  52.263  0.00  0.00    +0.000 N 
ATOM      5  C   UNL     1      18.891  36.225  52.219  0.00  0.00    +0.000 A 
ATOM      6  N   UNL     1      19.544  36.184  51.089  0.00  0.00    +0.000 NA
ATOM      7  C   UNL     1      20.754  35.479  50.972  0.00  0.00    +0.000 A 
ATOM      8  C   UNL     1      21.405  35.553  49.746  0.00  0.00    +0.000 A 
ATOM      9  C   UNL     1      22.601  34.871  49.541  0.00  0.00    +0.000 A 
ATOM     10  C   UNL     1      23.147  34.050  50.510  0.00  0.00    +0.000 A 
ATOM     11  N   UNL     1      24.270  33.395  50.174  0.00  0.00    +0.000 NA
ATOM     12  C   UNL     1      24.792  32.517  51.050  0.00  0.00    +0.000 A 
ATOM     13  C   UNL     1      24.219  32.238  52.267  0.00  0.00    +0.000 A 
ATOM     14  C   UNL     1      23.062  32.931  52.613  0.00  0.00    +0.000 A 
ATOM     15  C   UNL     1      22.497  33.916  51.763  0.00  0.00    +0.000 A 
ATOM     16  C   UNL     1      21.332  34.720  52.004  0.00  0.00    +0.000 A 
ATOM     17  N   UNL     1      20.664  34.848  53.248  0.00  0.00    +0.000 N 
ATOM     18  C   UNL     1      21.048  34.482  54.518  0.00  0.00    +0.000 A 
ATOM     19  C   UNL     1      19.986  34.669  55.375  0.00  0.00    +0.000 A 
ATOM     20  C   UNL     1      18.967  35.296  54.631  0.00  0.00    +0.000 A 
ATOM     21  C   UNL     1      19.453  35.512  53.353  0.00  0.00    +0.000 A 
ATOM     22  C   UNL     1      17.043  37.321  51.000  0.00  0.00    +0.000 C 
ATOM     23  C   UNL     1      15.643  37.915  51.259  0.00  0.00    +0.000 C 
ENDROOT
BRANCH   1  24
ATOM     24  C   UNL     1      15.468  40.346  51.322  0.00  0.00    +0.000 C 
BRANCH  24  28
ATOM     25  C   UNL     1      14.757  43.878  53.706  0.00  0.00    +0.000 A 
ATOM     26  C   UNL     1      13.770  42.901  53.596  0.00  0.00    +0.000 A 
ATOM     27  C   UNL     1      14.002  41.760  52.828  0.00  0.00    +0.000 A 
ATOM     28  C   UNL     1      15.224  41.583  52.161  0.00  0.00    +0.000 A 
ATOM     29  C   UNL     1      16.209  42.574  52.278  0.00  0.00    +0.000 A 
ATOM     30  C   UNL     1      15.976  43.716  53.048  0.00  0.00    +0.000 A 
ENDBRANCH  24  28
ENDBRANCH   1  24
TORSDOF 2
ENDMDL
MODEL 2
REMARK VINA RESULT:    -6.457      6.462     11.753
REMARK INTER + INTRA:          -7.361
REMARK INTER:                  -7.334
REMARK INTRA:                  -0.027
REMARK UNBOUND:                -0.150
REMARK  Name = 
REMARK  2 active torsions:
REMARK  status: ('A' for Active; 'I' for Inactive)
REMARK    1  A    between atoms: C_4  and  C_5
REMARK    2  A    between atoms: C_5  and  N_6
REMARK                            x       y       z     vdW  Elec       q    Type
REMARK                         _______ _______ _______ _____ _____    ______ ____
ROOT
ATOM      1  N   UNL     1      17.119  36.678  48.121  0.00  0.00    +0.000 NA
ATOM      2  C   UNL     1      17.879  37.785  47.493  0.00  0.00    +0.000 C 
ATOM      3  C   UNL     1      17.305  38.242  46.135  0.00  0.00    +0.000 C 
ATOM      4  N   UNL     1      15.918  38.717  46.264  0.00  0.00    +0.000 N 
ATOM      5  C   UNL     1      15.490  39.897  45.665  0.00  0.00    +0.000 A 
ATOM      6  N   UNL     1      14.691  40.676  46.345  0.00  0.00    +0.000 NA
ATOM      7  C   UNL     1      14.224  41.887  45.809  0.00  0.00    +0.000 A 
ATOM      8  C   UNL     1      13.434  42.675  46.637  0.00  0.00    +0.000 A 
ATOM      9  C   UNL     1      12.917  43.883  46.178  0.00  0.00    +0.000 A 
ATOM     10  C   UNL     1      13.110  44.311  44.877  0.00  0.00    +0.000 A 
ATOM     11  N   UNL     1      12.510  45.462  44.533  0.00  0.00    +0.000 NA
ATOM     12  C   UNL     1      12.595  45.877  43.255  0.00  0.00    +0.000 A 
ATOM     13  C   UNL     1      13.246  45.167  42.276  0.00  0.00    +0.000 A 
ATOM     14  C   UNL     1      13.877  43.981  42.645  0.00  0.00    +0.000 A 
ATOM     15  C   UNL     1      13.880  43.522  43.987  0.00  0.00    +0.000 A 
ATOM     16  C   UNL     1      14.508  42.340  44.509  0.00  0.00    +0.000 A 
ATOM     17  N   UNL     1      15.448  41.535  43.817  0.00  0.00    +0.000 N 
ATOM     18  C   UNL     1      16.157  41.769  42.661  0.00  0.00    +0.000 A 
ATOM     19  C   UNL     1      16.822  40.617  42.306  0.00  0.00    +0.000 A 
ATOM     20  C   UNL     1      16.624  39.692  43.350  0.00  0.00    +0.000 A 
ATOM     21  C   UNL     1      15.877  40.323  44.332  0.00  0.00    +0.000 A 
ATOM     22  C   UNL     1      15.196  38.206  47.442  0.00  0.00    +0.000 C 
ATOM     23  C   UNL     1      15.675  36.789  47.816  0.00  0.00    +0.000 C 
ENDROOT
BRANCH   1  24
ATOM     24  C   UNL     1      17.358  36.618  49.572  0.00  0.00    +0.000 C 
BRANCH  24  28
ATOM     25  C   UNL     1      21.456  35.715  50.602  0.00  0.00    +0.000 A 
ATOM     26  C   UNL     1      20.882  35.151  49.465  0.00  0.00    +0.000 A 
ATOM     27  C   UNL     1      19.560  35.445  49.132  0.00  0.00    +0.000 A 
ATOM     28  C   UNL     1      18.796  36.308  49.933  0.00  0.00    +0.000 A 
ATOM     29  C   UNL     1      19.383  36.868  51.076  0.00  0.00    +0.000 A 
ATOM     30  C   UNL     1      20.708  36.573  51.408  0.00  0.00    +0.000 A 
ENDBRANCH  24  28
ENDBRANCH   1  24
TORSDOF 2
ENDMDL
MODEL 3
REMARK VINA RESULT:    -6.449      5.691      9.105
REMARK INTER + INTRA:          -7.353
REMARK INTER:                  -7.203
REMARK INTRA:                  -0.150
REMARK UNBOUND:                -0.150
REMARK  Name = 
REMARK  2 active torsions:
REMARK  status: ('A' for Active; 'I' for Inactive)
REMARK    1  A    between atoms: C_4  and  C_5
REMARK    2  A    between atoms: C_5  and  N_6
REMARK                            x       y       z     vdW  Elec       q    Type
REMARK                         _______ _______ _______ _____ _____    ______ ____
ROOT
ATOM      1  N   UNL     1      14.947  40.282  45.690  0.00  0.00    +0.000 NA
ATOM      2  C   UNL     1      14.725  41.448  46.578  0.00  0.00    +0.000 C 
ATOM      3  C   UNL     1      13.946  41.110  47.867  0.00  0.00    +0.000 C 
ATOM      4  N   UNL     1      14.649  40.103  48.679  0.00  0.00    +0.000 N 
ATOM      5  C   UNL     1      14.806  40.251  50.052  0.00  0.00    +0.000 A 
ATOM      6  N   UNL     1      15.957  39.923  50.578  0.00  0.00    +0.000 NA
ATOM      7  C   UNL     1      16.191  40.052  51.957  0.00  0.00    +0.000 A 
ATOM      8  C   UNL     1      17.468  39.741  52.406  0.00  0.00    +0.000 A 
ATOM      9  C   UNL     1      17.780  39.827  53.760  0.00  0.00    +0.000 A 
ATOM     10  C   UNL     1      16.828  40.156  54.707  0.00  0.00    +0.000 A 
ATOM     11  N   UNL     1      17.233  40.146  55.988  0.00  0.00    +0.000 NA
ATOM     12  C   UNL     1      16.324  40.374  56.953  0.00  0.00    +0.000 A 
ATOM     13  C   UNL     1      14.992  40.594  56.696  0.00  0.00    +0.000 A 
ATOM     14  C   UNL     1      14.584  40.616  55.365  0.00  0.00    +0.000 A 
ATOM     15  C   UNL     1      15.503  40.448  54.298  0.00  0.00    +0.000 A 
ATOM     16  C   UNL     1      15.227  40.474  52.889  0.00  0.00    +0.000 A 
ATOM     17  N   UNL     1      14.016  40.914  52.296  0.00  0.00    +0.000 N 
ATOM     18  C   UNL     1      12.957  41.616  52.827  0.00  0.00    +0.000 A 
ATOM     19  C   UNL     1      11.944  41.663  51.895  0.00  0.00    +0.000 A 
ATOM     20  C   UNL     1      12.451  41.092  50.711  0.00  0.00    +0.000 A 
ATOM     21  C   UNL     1      13.773  40.751  50.943  0.00  0.00    +0.000 A 
ATOM     22  C   UNL     1      15.601  39.262  47.933  0.00  0.00    +0.000 C 
ATOM     23  C   UNL     1      15.131  39.044  46.480  0.00  0.00    +0.000 C 
ENDROOT
BRANCH   1  24
ATOM     24  C   UNL     1      16.080  40.510  44.778  0.00  0.00    +0.000 C 
BRANCH  24  28
ATOM     25  C   UNL     1      15.205  43.302  41.599  0.00  0.00    +0.000 A 
ATOM     26  C   UNL     1      14.701  42.005  41.546  0.00  0.00    +0.000 A 
ATOM     27  C   UNL     1      14.983  41.105  42.574  0.00  0.00    +0.000 A 
ATOM     28  C   UNL     1      15.771  41.493  43.669  0.00  0.00    +0.000 A 
ATOM     29  C   UNL     1      16.273  42.801  43.710  0.00  0.00    +0.000 A 
ATOM     30  C   UNL     1      15.991  43.701  42.680  0.00  0.00    +0.000 A 
ENDBRANCH  24  28
ENDBRANCH   1  24
TORSDOF 2
ENDMDL
