MODEL 1
REMARK VINA RESULT:    -6.741      0.000      0.000
REMARK INTER + INTRA:          -8.784
REMARK INTER:                  -7.898
REMARK INTRA:                  -0.887
REMARK UNBOUND:                -0.861
REMARK  Name = 
REMARK  4 active torsions:
REMARK  status: ('A' for Active; 'I' for Inactive)
REMARK    1  A    between atoms: C_1  and  N_2
REMARK    2  A    between atoms: N_2  and  C_23
REMARK    3  A    between atoms: C_7  and  C_8
REMARK    4  A    between atoms: C_14  and  C_15
REMARK                            x       y       z     vdW  Elec       q    Type
REMARK                         _______ _______ _______ _____ _____    ______ ____
ROOT
ATOM      1  C   UNL     1      16.793  36.599  52.499  0.00  0.00    +0.000 C 
ATOM      2  N   UNL     1      17.619  37.413  51.602  0.00  0.00    +0.000 N 
ATOM      3  C   UNL     1      17.146  38.673  51.179  0.00  0.00    +0.000 C 
ATOM      4  O   UNL     1      17.189  39.127  50.039  0.00  0.00    +0.000 OA
ATOM      5  N   UNL     1      16.619  39.496  52.230  0.00  0.00    +0.000 N 
ATOM      6  N   UNL     1      16.023  40.690  51.951  0.00  0.00    +0.000 NA
ATOM      7  C   UNL     1      15.761  41.195  53.164  0.00  0.00    +0.000 A 
ATOM      8  C   UNL     1      16.161  40.248  54.157  0.00  0.00    +0.000 A 
ATOM      9  N   UNL     1      16.740  39.198  53.557  0.00  0.00    +0.000 NA
ENDROOT
BRANCH   8  10
ATOM     10  C   UNL     1      16.013  40.282  55.611  0.00  0.00    +0.000 A 
ATOM     11  C   UNL     1      14.769  40.548  56.205  0.00  0.00    +0.000 A 
ATOM     12  C   UNL     1      14.641  40.573  57.597  0.00  0.00    +0.000 A 
ATOM     13  C   UNL     1      15.752  40.321  58.391  0.00  0.00    +0.000 A 
ATOM     14  F   UNL     1      15.627  40.344  59.724  0.00  0.00    +0.000 F 
ATOM     15  C   UNL     1      16.989  40.041  57.824  0.00  0.00    +0.000 A 
ATOM     16  C   UNL     1      17.119  40.018  56.434  0.00  0.00    +0.000 A 
ENDBRANCH   8  10
BRANCH   7  17
ATOM     17  C   UNL     1      15.164  42.520  53.303  0.00  0.00    +0.000 A 
ATOM     18  C   UNL     1      13.797  42.645  53.562  0.00  0.00    +0.000 A 
ATOM     19  C   UNL     1      13.264  43.915  53.694  0.00  0.00    +0.000 A 
ATOM     20  N   UNL     1      13.991  45.047  53.585  0.00  0.00    +0.000 NA
ATOM     21  C   UNL     1      15.303  44.904  53.308  0.00  0.00    +0.000 A 
ATOM     22  C   UNL     1      15.929  43.679  53.156  0.00  0.00    +0.000 A 
ENDBRANCH   7  17
BRANCH   2  23
ATOM     23  C   UNL     1      18.770  36.796  50.987  0.00  0.00    +0.000 A 
ATOM     24  C   UNL     1      18.659  36.078  49.782  0.00  0.00    +0.000 A 
ATOM     25  C   UNL     1      19.767  35.454  49.193  0.00  0.00    +0.000 A 
ATOM     26  C   UNL     1      21.012  35.519  49.805  0.00  0.00    +0.000 A 
ATOM     27  C   UNL     1      21.145  36.203  51.007  0.00  0.00    +0.000 A 
ATOM     28  C   UNL     1      20.036  36.826  51.594  0.00  0.00    +0.000 A 
ENDBRANCH   2  23
TORSDOF 3
ENDMDL
MODEL 2
REMARK VINA RESULT:    -6.343      6.844      8.633
REMARK INTER + INTRA:          -8.317
REMARK INTER:                  -7.547
REMARK INTRA:                  -0.770
REMARK UNBOUND:                -0.861
REMARK  Name = 
REMARK  4 active torsions:
REMARK  status: ('A' for Active; 'I' for Inactive)
REMARK    1  A    between atoms: C_1  and  N_2
REMARK    2  A    between atoms: N_2  and  C_23
REMARK    3  A    between atoms: C_7  and  C_8
REMARK    4  A    between atoms: C_14  and  C_15
REMARK                            x       y       z     vdW  Elec       q    Type
REMARK                         _______ _______ _______ _____ _____    ______ ____
ROOT
ATOM      1  C   UNL     1      14.730  38.611  48.926  0.00  0.00    +0.000 C 
ATOM      2  N   UNL     1      16.162  38.776  48.658  0.00  0.00    +0.000 N 
ATOM      3  C   UNL     1      16.593  39.045  47.342  0.00  0.00    +0.000 C 
ATOM      4  O   UNL     1      17.542  38.524  46.762  0.00  0.00    +0.000 OA
ATOM      5  N   UNL     1      15.854  40.074  46.670  0.00  0.00    +0.000 N 
ATOM      6  N   UNL     1      16.085  40.357  45.357  0.00  0.00    +0.000 NA
ATOM      7  C   UNL     1      15.296  41.414  45.125  0.00  0.00    +0.000 A 
ATOM      8  C   UNL     1      14.553  41.708  46.311  0.00  0.00    +0.000 A 
ATOM      9  N   UNL     1      14.946  40.882  47.292  0.00  0.00    +0.000 NA
ENDROOT
BRANCH   8  10
ATOM     10  C   UNL     1      13.507  42.700  46.552  0.00  0.00    +0.000 A 
ATOM     11  C   UNL     1      12.317  42.349  47.210  0.00  0.00    +0.000 A 
ATOM     12  C   UNL     1      11.326  43.307  47.438  0.00  0.00    +0.000 A 
ATOM     13  C   UNL     1      11.530  44.616  47.020  0.00  0.00    +0.000 A 
ATOM     14  F   UNL     1      10.580  45.533  47.241  0.00  0.00    +0.000 F 
ATOM     15  C   UNL     1      12.706  44.988  46.380  0.00  0.00    +0.000 A 
ATOM     16  C   UNL     1      13.696  44.031  46.149  0.00  0.00    +0.000 A 
ENDBRANCH   8  10
BRANCH   7  17
ATOM     17  C   UNL     1      15.297  42.070  43.821  0.00  0.00    +0.000 A 
ATOM     18  C   UNL     1      14.501  41.571  42.788  0.00  0.00    +0.000 A 
ATOM     19  C   UNL     1      14.521  42.220  41.566  0.00  0.00    +0.000 A 
ATOM     20  N   UNL     1      15.270  43.313  41.311  0.00  0.00    +0.000 NA
ATOM     21  C   UNL     1      16.052  43.763  42.315  0.00  0.00    +0.000 A 
ATOM     22  C   UNL     1      16.104  43.183  43.570  0.00  0.00    +0.000 A 
ENDBRANCH   7  17
BRANCH   2  23
ATOM     23  C   UNL     1      17.096  38.417  49.698  0.00  0.00    +0.000 A 
ATOM     24  C   UNL     1      17.816  37.209  49.648  0.00  0.00    +0.000 A 
ATOM     25  C   UNL     1      18.706  36.841  50.667  0.00  0.00    +0.000 A 
ATOM     26  C   UNL     1      18.884  37.664  51.770  0.00  0.00    +0.000 A 
ATOM     27  C   UNL     1      18.170  38.853  51.855  0.00  0.00    +0.000 A 
ATOM     28  C   UNL     1      17.281  39.219  50.836  0.00  0.00    +0.000 A 
ENDBRANCH   2  23
TORSDOF 3
ENDMDL
MODEL 3
REMARK VINA RESULT:    -5.735      6.589      9.312
REMARK INTER + INTRA:          -7.602
REMARK INTER:                  -6.741
REMARK INTRA:                  -0.861
REMARK UNBOUND:                -0.861
REMARK  Name = 
REMARK  4 active torsions:
REMARK  status: ('A' for Active; 'I' for Inactive)
REMARK    1  A    between atoms: C_1  and  N_2
REMARK    2  A    between atoms: N_2  and  C_23
REMARK    3  A    between atoms: C_7  and  C_8
REMARK    4  A    between atoms: C_14  and  C_15
REMARK                            x       y       z     vdW  Elec       q    Type
REMARK                         _______ _______ _______ _____ _____    ______ ____
ROOT
ATOM      1  C   UNL     1      14.370  39.329  50.057  0.00  0.00    +0.000 C 
ATOM      2  N   UNL     1      15.826  39.185  50.134  0.00  0.00    +0.000 N 
ATOM      3  C   UNL     1      16.533  38.690  49.018  0.00  0.00    +0.000 C 
ATOM      4  O   UNL     1      17.430  37.851  49.032  0.00  0.00    +0.000 OA
ATOM      5  N   UNL     1      16.173  39.294  47.767  0.00  0.00    +0.000 N 
ATOM      6  N   UNL     1      16.690  38.832  46.593  0.00  0.00    +0.000 NA
ATOM      7  C   UNL     1      16.211  39.693  45.686  0.00  0.00    +0.000 A 
ATOM      8  C   UNL     1      15.354  40.630  46.341  0.00  0.00    +0.000 A 
ATOM      9  N   UNL     1      15.373  40.395  47.662  0.00  0.00    +0.000 NA
ENDROOT
BRANCH   8  10
ATOM     10  C   UNL     1      14.529  41.705  45.792  0.00  0.00    +0.000 A 
ATOM     11  C   UNL     1      13.342  41.422  45.099  0.00  0.00    +0.000 A 
ATOM     12  C   UNL     1      12.560  42.459  44.583  0.00  0.00    +0.000 A 
ATOM     13  C   UNL     1      12.959  43.776  44.769  0.00  0.00    +0.000 A 
ATOM     14  F   UNL     1      12.208  44.768  44.276  0.00  0.00    +0.000 F 
ATOM     15  C   UNL     1      14.123  44.079  45.465  0.00  0.00    +0.000 A 
ATOM     16  C   UNL     1      14.907  43.044  45.980  0.00  0.00    +0.000 A 
ENDBRANCH   8  10
BRANCH   7  17
ATOM     17  C   UNL     1      16.589  39.577  44.281  0.00  0.00    +0.000 A 
ATOM     18  C   UNL     1      17.020  38.349  43.773  0.00  0.00    +0.000 A 
ATOM     19  C   UNL     1      17.366  38.273  42.435  0.00  0.00    +0.000 A 
ATOM     20  N   UNL     1      17.313  39.321  41.587  0.00  0.00    +0.000 NA
ATOM     21  C   UNL     1      16.921  40.504  42.104  0.00  0.00    +0.000 A 
ATOM     22  C   UNL     1      16.556  40.683  43.428  0.00  0.00    +0.000 A 
ENDBRANCH   7  17
BRANCH   2  23
ATOM     23  C   UNL     1      16.458  39.321  51.425  0.00  0.00    +0.000 A 
ATOM     24  C   UNL     1      17.540  40.198  51.621  0.00  0.00    +0.000 A 
ATOM     25  C   UNL     1      18.175  40.315  52.865  0.00  0.00    +0.000 A 
ATOM     26  C   UNL     1      17.754  39.544  53.940  0.00  0.00    +0.000 A 
ATOM     27  C   UNL     1      16.701  38.654  53.768  0.00  0.00    +0.000 A 
ATOM     28  C   UNL     1      16.068  38.538  52.524  0.00  0.00    +0.000 A 
ENDBRANCH   2  23
TORSDOF 3
ENDMDL
