MODEL 1
REMARK VINA RESULT:    -6.504      0.000      0.000
REMARK INTER + INTRA:          -7.358
REMARK INTER:                  -6.822
REMARK INTRA:                  -0.536
REMARK UNBOUND:                -0.474
REMARK  Name = 
REMARK  2 active torsions:
REMARK  status: ('A' for Active; 'I' for Inactive)
REMARK    1  A    between atoms: C_1  and  N_2
REMARK    2  A    between atoms: C_5  and  C_6
REMARK                            x       y       z     vdW  Elec       q    Type
REMARK                         _______ _______ _______ _____ _____    ______ ____
ROOT
ATOM      1  C   UNL     1      13.914  48.587  44.861  0.00  0.00    +0.000 C 
ATOM      2  C   UNL     1      14.455  47.451  45.358  0.00  0.00    +0.000 C 
ATOM      3  C   UNL     1      13.777  46.187  45.689  0.00  0.00    +0.000 A 
ATOM      4  C   UNL     1      14.436  44.980  45.419  0.00  0.00    +0.000 A 
ATOM      5  C   UNL     1      13.847  43.766  45.768  0.00  0.00    +0.000 A 
ATOM      6 CL   UNL     1      14.662  42.290  45.423  0.00  0.00    +0.000 Cl
ATOM      7  C   UNL     1      12.605  43.736  46.396  0.00  0.00    +0.000 A 
ATOM      8  C   UNL     1      11.946  44.932  46.682  0.00  0.00    +0.000 A 
ATOM      9  C   UNL     1      12.528  46.163  46.338  0.00  0.00    +0.000 A 
ATOM     10  C   UNL     1      11.807  47.457  46.637  0.00  0.00    +0.000 C 
ATOM     11  C   UNL     1      11.455  48.191  45.363  0.00  0.00    +0.000 A 
ATOM     12  C   UNL     1      10.099  48.328  45.011  0.00  0.00    +0.000 A 
ATOM     13  C   UNL     1       9.732  48.945  43.819  0.00  0.00    +0.000 A 
ATOM     14  C   UNL     1      10.716  49.419  42.961  0.00  0.00    +0.000 A 
ATOM     15  C   UNL     1      12.065  49.286  43.302  0.00  0.00    +0.000 A 
ATOM     16  C   UNL     1      12.465  48.689  44.508  0.00  0.00    +0.000 A 
ENDROOT
BRANCH   1  21
ATOM     17  C   UNL     1      17.530  53.100  45.276  0.00  0.00    +0.000 C 
ATOM     18  N   UNL     1      16.691  51.920  45.488  0.00  0.00    +0.000 NA
ATOM     19  C   UNL     1      15.283  52.236  45.214  0.00  0.00    +0.000 C 
ATOM     20  C   UNL     1      14.377  51.034  45.494  0.00  0.00    +0.000 C 
ATOM     21  C   UNL     1      14.836  49.802  44.698  0.00  0.00    +0.000 C 
ATOM     22  C   UNL     1      16.335  49.539  44.923  0.00  0.00    +0.000 C 
ATOM     23  C   UNL     1      17.157  50.802  44.656  0.00  0.00    +0.000 C 
ENDBRANCH   1  21
TORSDOF 1
ENDMDL
MODEL 2
REMARK VINA RESULT:    -6.256      6.934      9.969
REMARK INTER + INTRA:          -7.095
REMARK INTER:                  -6.548
REMARK INTRA:                  -0.547
REMARK UNBOUND:                -0.474
REMARK  Name = 
REMARK  2 active torsions:
REMARK  status: ('A' for Active; 'I' for Inactive)
REMARK    1  A    between atoms: C_1  and  N_2
REMARK    2  A    between atoms: C_5  and  C_6
REMARK                            x       y       z     vdW  Elec       q    Type
REMARK                         _______ _______ _______ _____ _____    ______ ____
ROOT
ATOM      1  C   UNL     1      16.466  39.758  42.569  0.00  0.00    +0.000 C 
ATOM      2  C   UNL     1      16.546  39.867  43.916  0.00  0.00    +0.000 C 
ATOM      3  C   UNL     1      15.890  40.853  44.791  0.00  0.00    +0.000 A 
ATOM      4  C   UNL     1      15.409  40.430  46.038  0.00  0.00    +0.000 A 
ATOM      5  C   UNL     1      14.831  41.347  46.914  0.00  0.00    +0.000 A 
ATOM      6 CL   UNL     1      14.236  40.814  48.438  0.00  0.00    +0.000 Cl
ATOM      7  C   UNL     1      14.732  42.692  46.568  0.00  0.00    +0.000 A 
ATOM      8  C   UNL     1      15.219  43.126  45.335  0.00  0.00    +0.000 A 
ATOM      9  C   UNL     1      15.806  42.214  44.442  0.00  0.00    +0.000 A 
ATOM     10  C   UNL     1      16.322  42.685  43.102  0.00  0.00    +0.000 C 
ATOM     11  C   UNL     1      15.550  42.050  41.968  0.00  0.00    +0.000 A 
ATOM     12  C   UNL     1      14.738  42.868  41.159  0.00  0.00    +0.000 A 
ATOM     13  C   UNL     1      13.964  42.317  40.142  0.00  0.00    +0.000 A 
ATOM     14  C   UNL     1      13.985  40.945  39.931  0.00  0.00    +0.000 A 
ATOM     15  C   UNL     1      14.787  40.125  40.730  0.00  0.00    +0.000 A 
ATOM     16  C   UNL     1      15.595  40.654  41.749  0.00  0.00    +0.000 A 
ENDROOT
BRANCH   1  21
ATOM     17  C   UNL     1      20.548  36.223  40.459  0.00  0.00    +0.000 C 
ATOM     18  N   UNL     1      19.769  37.243  41.160  0.00  0.00    +0.000 NA
ATOM     19  C   UNL     1      19.138  38.158  40.200  0.00  0.00    +0.000 C 
ATOM     20  C   UNL     1      18.371  39.274  40.914  0.00  0.00    +0.000 C 
ATOM     21  C   UNL     1      17.336  38.693  41.890  0.00  0.00    +0.000 C 
ATOM     22  C   UNL     1      17.992  37.666  42.829  0.00  0.00    +0.000 C 
ATOM     23  C   UNL     1      18.766  36.614  42.031  0.00  0.00    +0.000 C 
ENDBRANCH   1  21
TORSDOF 1
ENDMDL
MODEL 3
REMARK VINA RESULT:    -6.243     11.330     14.037
REMARK INTER + INTRA:          -7.082
REMARK INTER:                  -6.608
REMARK INTRA:                  -0.474
REMARK UNBOUND:                -0.474
REMARK  Name = 
REMARK  2 active torsions:
REMARK  status: ('A' for Active; 'I' for Inactive)
REMARK    1  A    between atoms: C_1  and  N_2
REMARK    2  A    between atoms: C_5  and  C_6
REMARK                            x       y       z     vdW  Elec       q    Type
REMARK                         _______ _______ _______ _____ _____    ______ ____
ROOT
ATOM      1  C   UNL     1      18.329  37.459  51.160  0.00  0.00    +0.000 C 
ATOM      2  C   UNL     1      19.471  36.788  51.438  0.00  0.00    +0.000 C 
ATOM      3  C   UNL     1      20.268  35.933  50.543  0.00  0.00    +0.000 A 
ATOM      4  C   UNL     1      21.665  35.976  50.640  0.00  0.00    +0.000 A 
ATOM      5  C   UNL     1      22.449  35.141  49.845  0.00  0.00    +0.000 A 
ATOM      6 CL   UNL     1      24.165  35.210  49.966  0.00  0.00    +0.000 Cl
ATOM      7  C   UNL     1      21.857  34.248  48.956  0.00  0.00    +0.000 A 
ATOM      8  C   UNL     1      20.466  34.188  48.862  0.00  0.00    +0.000 A 
ATOM      9  C   UNL     1      19.663  35.021  49.657  0.00  0.00    +0.000 A 
ATOM     10  C   UNL     1      18.157  34.962  49.544  0.00  0.00    +0.000 C 
ATOM     11  C   UNL     1      17.597  36.272  49.036  0.00  0.00    +0.000 A 
ATOM     12  C   UNL     1      16.994  36.304  47.765  0.00  0.00    +0.000 A 
ATOM     13  C   UNL     1      16.519  37.499  47.233  0.00  0.00    +0.000 A 
ATOM     14  C   UNL     1      16.652  38.674  47.961  0.00  0.00    +0.000 A 
ATOM     15  C   UNL     1      17.251  38.651  49.223  0.00  0.00    +0.000 A 
ATOM     16  C   UNL     1      17.720  37.458  49.796  0.00  0.00    +0.000 A 
ENDROOT
BRANCH   1  21
ATOM     17  C   UNL     1      16.642  40.147  56.012  0.00  0.00    +0.000 C 
ATOM     18  N   UNL     1      17.360  39.463  54.936  0.00  0.00    +0.000 NA
ATOM     19  C   UNL     1      16.769  38.142  54.683  0.00  0.00    +0.000 C 
ATOM     20  C   UNL     1      17.547  37.381  53.606  0.00  0.00    +0.000 C 
ATOM     21  C   UNL     1      17.644  38.204  52.312  0.00  0.00    +0.000 C 
ATOM     22  C   UNL     1      18.177  39.617  52.606  0.00  0.00    +0.000 C 
ATOM     23  C   UNL     1      17.365  40.285  53.718  0.00  0.00    +0.000 C 
ENDBRANCH   1  21
TORSDOF 1
ENDMDL
