MODEL 1
REMARK VINA RESULT:    -6.715      0.000      0.000
REMARK INTER + INTRA:          -8.542
REMARK INTER:                  -7.880
REMARK INTRA:                  -0.662
REMARK UNBOUND:                -0.650
REMARK  Name = 
REMARK  6 active torsions:
REMARK  status: ('A' for Active; 'I' for Inactive)
REMARK    1  A    between atoms: C_1  and  C_2
REMARK    2  A    between atoms: C_5  and  C_6
REMARK    3  A    between atoms: C_8  and  C_9
REMARK    4  A    between atoms: C_9  and  C_10
REMARK    5  A    between atoms: C_9  and  C_11
REMARK    6  A    between atoms: C_13  and  C_14
REMARK                            x       y       z     vdW  Elec       q    Type
REMARK                         _______ _______ _______ _____ _____    ______ ____
ROOT
ATOM      1  C   UNL     1      13.694  45.668  45.476  0.00  0.00    +0.000 A 
ATOM      2  C   UNL     1      12.559  45.755  46.288  0.00  0.00    +0.000 A 
ATOM      3  C   UNL     1      11.967  47.001  46.546  0.00  0.00    +0.000 A 
ATOM      4  C   UNL     1      12.546  48.133  45.969  0.00  0.00    +0.000 A 
ATOM      5  C   UNL     1      13.675  47.970  45.179  0.00  0.00    +0.000 A 
ATOM      6  N   UNL     1      14.262  46.768  44.923  0.00  0.00    +0.000 NA
ENDROOT
BRANCH   5   7
ATOM      7  C   UNL     1      14.327  49.159  44.540  0.00  0.00    +0.000 C 
ATOM      8  O   UNL     1      13.662  49.933  43.865  0.00  0.00    +0.000 OA
ATOM      9  N   UNL     1      15.672  49.222  44.813  0.00  0.00    +0.000 N 
ATOM     10  C   UNL     1      16.533  50.187  44.379  0.00  0.00    +0.000 A 
ATOM     11  N   UNL     1      17.856  50.115  44.739  0.00  0.00    +0.000 NA
ATOM     12  N   UNL     1      18.457  51.162  44.191  0.00  0.00    +0.000 NA
ATOM     13  N   UNL     1      17.479  51.801  43.538  0.00  0.00    +0.000 N 
ATOM     14  N   UNL     1      16.264  51.250  43.616  0.00  0.00    +0.000 NA
ATOM     15  H   UNL     1      16.068  48.489  45.387  0.00  0.00    +0.000 HD
ATOM     16  H   UNL     1      17.653  52.655  43.015  0.00  0.00    +0.000 HD
ENDBRANCH   5   7
BRANCH   1  21
ATOM     17  C   UNL     1      16.300  40.625  44.211  0.00  0.00    +0.000 C 
ATOM     18  C   UNL     1      15.650  41.932  44.553  0.00  0.00    +0.000 A 
ATOM     19  C   UNL     1      15.666  42.992  43.642  0.00  0.00    +0.000 A 
ATOM     20  C   UNL     1      15.031  44.200  43.949  0.00  0.00    +0.000 A 
ATOM     21  C   UNL     1      14.356  44.386  45.168  0.00  0.00    +0.000 A 
ATOM     22  C   UNL     1      14.331  43.302  46.064  0.00  0.00    +0.000 A 
ATOM     23  C   UNL     1      14.966  42.092  45.760  0.00  0.00    +0.000 A 
ENDBRANCH   1  21
BRANCH   3  24
ATOM     24  C   UNL     1      10.737  47.141  47.424  0.00  0.00    +0.000 C 
ATOM     25  C   UNL     1       9.574  47.784  46.666  0.00  0.00    +0.000 C 
ATOM     26  C   UNL     1      10.320  45.795  48.023  0.00  0.00    +0.000 C 
ENDBRANCH   3  24
TORSDOF 3
ENDMDL
MODEL 2
REMARK VINA RESULT:    -6.701      1.739      2.852
REMARK INTER + INTRA:          -8.526
REMARK INTER:                  -7.854
REMARK INTRA:                  -0.672
REMARK UNBOUND:                -0.650
REMARK  Name = 
REMARK  6 active torsions:
REMARK  status: ('A' for Active; 'I' for Inactive)
REMARK    1  A    between atoms: C_1  and  C_2
REMARK    2  A    between atoms: C_5  and  C_6
REMARK    3  A    between atoms: C_8  and  C_9
REMARK    4  A    between atoms: C_9  and  C_10
REMARK    5  A    between atoms: C_9  and  C_11
REMARK    6  A    between atoms: C_13  and  C_14
REMARK                            x       y       z     vdW  Elec       q    Type
REMARK                         _______ _______ _______ _____ _____    ______ ____
ROOT
ATOM      1  C   UNL     1      13.073  47.898  45.844  0.00  0.00    +0.000 A 
ATOM      2  C   UNL     1      12.129  48.637  46.563  0.00  0.00    +0.000 A 
ATOM      3  C   UNL     1      12.097  50.036  46.460  0.00  0.00    +0.000 A 
ATOM      4  C   UNL     1      13.032  50.653  45.625  0.00  0.00    +0.000 A 
ATOM      5  C   UNL     1      13.942  49.855  44.947  0.00  0.00    +0.000 A 
ATOM      6  N   UNL     1      13.986  48.496  45.040  0.00  0.00    +0.000 NA
ENDROOT
BRANCH   5   7
ATOM      7  C   UNL     1      14.961  50.475  44.040  0.00  0.00    +0.000 C 
ATOM      8  O   UNL     1      14.600  51.092  43.046  0.00  0.00    +0.000 OA
ATOM      9  N   UNL     1      16.245  50.252  44.471  0.00  0.00    +0.000 N 
ATOM     10  C   UNL     1      17.384  50.693  43.863  0.00  0.00    +0.000 A 
ATOM     11  N   UNL     1      18.602  50.388  44.419  0.00  0.00    +0.000 NA
ATOM     12  N   UNL     1      19.524  50.934  43.637  0.00  0.00    +0.000 NA
ATOM     13  N   UNL     1      18.824  51.529  42.665  0.00  0.00    +0.000 N 
ATOM     14  N   UNL     1      17.494  51.418  42.747  0.00  0.00    +0.000 NA
ATOM     15  H   UNL     1      16.368  49.709  45.317  0.00  0.00    +0.000 HD
ATOM     16  H   UNL     1      19.278  52.034  41.909  0.00  0.00    +0.000 HD
ENDBRANCH   5   7
BRANCH   1  21
ATOM     17  C   UNL     1      13.353  42.097  46.155  0.00  0.00    +0.000 C 
ATOM     18  C   UNL     1      13.269  43.590  46.049  0.00  0.00    +0.000 A 
ATOM     19  C   UNL     1      12.260  44.293  46.714  0.00  0.00    +0.000 A 
ATOM     20  C   UNL     1      12.203  45.688  46.642  0.00  0.00    +0.000 A 
ATOM     21  C   UNL     1      13.151  46.426  45.911  0.00  0.00    +0.000 A 
ATOM     22  C   UNL     1      14.172  45.705  45.266  0.00  0.00    +0.000 A 
ATOM     23  C   UNL     1      14.232  44.308  45.336  0.00  0.00    +0.000 A 
ENDBRANCH   1  21
BRANCH   3  24
ATOM     24  C   UNL     1      11.093  50.876  47.226  0.00  0.00    +0.000 C 
ATOM     25  C   UNL     1      10.066  50.004  47.952  0.00  0.00    +0.000 C 
ATOM     26  C   UNL     1      11.786  51.829  48.202  0.00  0.00    +0.000 C 
ENDBRANCH   3  24
TORSDOF 3
ENDMDL
MODEL 3
REMARK VINA RESULT:    -6.396      5.151      8.954
REMARK INTER + INTRA:          -8.167
REMARK INTER:                  -7.517
REMARK INTRA:                  -0.650
REMARK UNBOUND:                -0.650
REMARK  Name = 
REMARK  6 active torsions:
REMARK  status: ('A' for Active; 'I' for Inactive)
REMARK    1  A    between atoms: C_1  and  C_2
REMARK    2  A    between atoms: C_5  and  C_6
REMARK    3  A    between atoms: C_8  and  C_9
REMARK    4  A    between atoms: C_9  and  C_10
REMARK    5  A    between atoms: C_9  and  C_11
REMARK    6  A    between atoms: C_13  and  C_14
REMARK                            x       y       z     vdW  Elec       q    Type
REMARK                         _______ _______ _______ _____ _____    ______ ____
ROOT
ATOM      1  C   UNL     1      14.512  43.763  45.316  0.00  0.00    +0.000 A 
ATOM      2  C   UNL     1      15.015  43.459  44.048  0.00  0.00    +0.000 A 
ATOM      3  C   UNL     1      15.634  42.223  43.809  0.00  0.00    +0.000 A 
ATOM      4  C   UNL     1      15.727  41.321  44.871  0.00  0.00    +0.000 A 
ATOM      5  C   UNL     1      15.210  41.694  46.104  0.00  0.00    +0.000 A 
ATOM      6  N   UNL     1      14.610  42.892  46.350  0.00  0.00    +0.000 NA
ENDROOT
BRANCH   5   7
ATOM      7  C   UNL     1      15.288  40.756  47.270  0.00  0.00    +0.000 C 
ATOM      8  O   UNL     1      14.547  40.914  48.232  0.00  0.00    +0.000 OA
ATOM      9  N   UNL     1      16.243  39.785  47.094  0.00  0.00    +0.000 N 
ATOM     10  C   UNL     1      16.544  38.789  47.974  0.00  0.00    +0.000 A 
ATOM     11  N   UNL     1      17.529  37.887  47.654  0.00  0.00    +0.000 NA
ATOM     12  N   UNL     1      17.614  37.038  48.670  0.00  0.00    +0.000 NA
ATOM     13  N   UNL     1      16.689  37.467  49.537  0.00  0.00    +0.000 N 
ATOM     14  N   UNL     1      15.992  38.546  49.166  0.00  0.00    +0.000 NA
ATOM     15  H   UNL     1      16.778  39.805  46.235  0.00  0.00    +0.000 HD
ATOM     16  H   UNL     1      16.529  36.999  50.424  0.00  0.00    +0.000 HD
ENDBRANCH   5   7
BRANCH   1  21
ATOM     17  C   UNL     1      11.853  48.790  46.535  0.00  0.00    +0.000 C 
ATOM     18  C   UNL     1      12.557  47.500  46.242  0.00  0.00    +0.000 A 
ATOM     19  C   UNL     1      12.026  46.285  46.686  0.00  0.00    +0.000 A 
ATOM     20  C   UNL     1      12.666  45.079  46.383  0.00  0.00    +0.000 A 
ATOM     21  C   UNL     1      13.849  45.045  45.624  0.00  0.00    +0.000 A 
ATOM     22  C   UNL     1      14.358  46.274  45.167  0.00  0.00    +0.000 A 
ATOM     23  C   UNL     1      13.720  47.483  45.468  0.00  0.00    +0.000 A 
ENDBRANCH   1  21
BRANCH   3  24
ATOM     24  C   UNL     1      16.196  41.854  42.449  0.00  0.00    +0.000 C 
ATOM     25  C   UNL     1      16.931  40.512  42.489  0.00  0.00    +0.000 C 
ATOM     26  C   UNL     1      15.107  41.848  41.374  0.00  0.00    +0.000 C 
ENDBRANCH   3  24
TORSDOF 3
ENDMDL
