MODEL 1
REMARK VINA RESULT:    -6.209      0.000      0.000
REMARK INTER + INTRA:          -8.267
REMARK INTER:                  -7.995
REMARK INTRA:                  -0.273
REMARK UNBOUND:                -0.607
REMARK  Name = 
REMARK  6 active torsions:
REMARK  status: ('A' for Active; 'I' for Inactive)
REMARK    1  A    between atoms: C_1  and  N_2
REMARK    2  A    between atoms: N_2  and  C_3
REMARK    3  A    between atoms: C_3  and  C_4
REMARK    4  A    between atoms: N_12  and  C_13
REMARK    5  A    between atoms: C_14  and  C_16
REMARK    6  A    between atoms: C_17  and  C_18
REMARK                            x       y       z     vdW  Elec       q    Type
REMARK                         _______ _______ _______ _____ _____    ______ ____
ROOT
ATOM      1  C   UNL     1      17.380  34.613  52.948  0.00  0.00    +0.000 C 
ATOM      2  N   UNL     1      18.550  35.191  52.301  0.00  0.00    +0.000 N 
ATOM      3  C   UNL     1      18.777  36.551  52.159  0.00  0.00    +0.000 C 
ATOM      4  O   UNL     1      19.704  37.039  51.519  0.00  0.00    +0.000 OA
ENDROOT
BRANCH   3   5
ATOM      5  C   UNL     1      17.829  37.474  52.823  0.00  0.00    +0.000 C 
ATOM      6  C   UNL     1      17.690  38.723  52.351  0.00  0.00    +0.000 C 
BRANCH   6   7
ATOM      7  C   UNL     1      16.761  39.716  52.897  0.00  0.00    +0.000 A 
ATOM      8  C   UNL     1      15.665  39.395  53.692  0.00  0.00    +0.000 A 
ATOM      9  N   UNL     1      14.777  40.295  54.180  0.00  0.00    +0.000 NA
ATOM     10  C   UNL     1      14.966  41.587  53.864  0.00  0.00    +0.000 A 
ATOM     11  C   UNL     1      16.023  42.017  53.058  0.00  0.00    +0.000 A 
ATOM     12  C   UNL     1      16.920  41.063  52.563  0.00  0.00    +0.000 A 
ATOM     13  C   UNL     1      16.144  43.461  52.650  0.00  0.00    +0.000 C 
ATOM     14  C   UNL     1      15.231  44.381  53.461  0.00  0.00    +0.000 C 
ATOM     15  C   UNL     1      13.874  43.720  53.680  0.00  0.00    +0.000 C 
ATOM     16  N   UNL     1      14.070  42.492  54.417  0.00  0.00    +0.000 N 
ATOM     17  H   UNL     1      13.254  41.991  54.756  0.00  0.00    +0.000 HD
ENDBRANCH   6   7
ENDBRANCH   3   5
BRANCH   2  18
ATOM     18  C   UNL     1      19.633  34.281  51.945  0.00  0.00    +0.000 C 
BRANCH  18  19
ATOM     19  C   UNL     1      20.608  34.223  53.080  0.00  0.00    +0.000 A 
ATOM     20  C   UNL     1      20.393  34.519  54.414  0.00  0.00    +0.000 A 
ATOM     21  C   UNL     1      21.597  34.292  55.124  0.00  0.00    +0.000 A 
ATOM     22  C   UNL     1      21.957  34.407  56.481  0.00  0.00    +0.000 A 
ATOM     23  C   UNL     1      23.262  34.099  56.877  0.00  0.00    +0.000 A 
ATOM     24  C   UNL     1      24.204  33.685  55.941  0.00  0.00    +0.000 A 
ATOM     25  C   UNL     1      23.870  33.568  54.587  0.00  0.00    +0.000 A 
ATOM     26  C   UNL     1      22.555  33.876  54.195  0.00  0.00    +0.000 A 
ATOM     27  N   UNL     1      21.936  33.861  52.956  0.00  0.00    +0.000 N 
ATOM     28  C   UNL     1      22.585  33.520  51.706  0.00  0.00    +0.000 C 
ENDBRANCH  18  19
ENDBRANCH   2  18
TORSDOF 4
ENDMDL
MODEL 2
REMARK VINA RESULT:    -6.146      9.264     12.133
REMARK INTER + INTRA:          -8.190
REMARK INTER:                  -7.517
REMARK INTRA:                  -0.673
REMARK UNBOUND:                -0.607
REMARK  Name = 
REMARK  6 active torsions:
REMARK  status: ('A' for Active; 'I' for Inactive)
REMARK    1  A    between atoms: C_1  and  N_2
REMARK    2  A    between atoms: N_2  and  C_3
REMARK    3  A    between atoms: C_3  and  C_4
REMARK    4  A    between atoms: N_12  and  C_13
REMARK    5  A    between atoms: C_14  and  C_16
REMARK    6  A    between atoms: C_17  and  C_18
REMARK                            x       y       z     vdW  Elec       q    Type
REMARK                         _______ _______ _______ _____ _____    ______ ____
ROOT
ATOM      1  C   UNL     1      15.601  43.700  43.532  0.00  0.00    +0.000 C 
ATOM      2  N   UNL     1      14.571  43.369  44.509  0.00  0.00    +0.000 N 
ATOM      3  C   UNL     1      14.040  44.264  45.424  0.00  0.00    +0.000 C 
ATOM      4  O   UNL     1      13.255  43.961  46.319  0.00  0.00    +0.000 OA
ENDROOT
BRANCH   3   5
ATOM      5  C   UNL     1      14.456  45.680  45.313  0.00  0.00    +0.000 C 
ATOM      6  C   UNL     1      13.569  46.648  45.591  0.00  0.00    +0.000 C 
BRANCH   6   7
ATOM      7  C   UNL     1      13.868  48.083  45.554  0.00  0.00    +0.000 A 
ATOM      8  C   UNL     1      12.957  49.072  45.910  0.00  0.00    +0.000 A 
ATOM      9  N   UNL     1      13.203  50.404  45.853  0.00  0.00    +0.000 NA
ATOM     10  C   UNL     1      14.411  50.792  45.411  0.00  0.00    +0.000 A 
ATOM     11  C   UNL     1      15.394  49.883  45.011  0.00  0.00    +0.000 A 
ATOM     12  C   UNL     1      15.107  48.514  45.075  0.00  0.00    +0.000 A 
ATOM     13  C   UNL     1      16.699  50.362  44.433  0.00  0.00    +0.000 C 
ATOM     14  C   UNL     1      16.928  51.858  44.655  0.00  0.00    +0.000 C 
ATOM     15  C   UNL     1      15.628  52.627  44.449  0.00  0.00    +0.000 C 
ATOM     16  N   UNL     1      14.653  52.159  45.409  0.00  0.00    +0.000 N 
ATOM     17  H   UNL     1      13.772  52.656  45.491  0.00  0.00    +0.000 HD
ENDBRANCH   6   7
ENDBRANCH   3   5
BRANCH   2  18
ATOM     18  C   UNL     1      13.935  42.061  44.390  0.00  0.00    +0.000 C 
BRANCH  18  19
ATOM     19  C   UNL     1      14.907  41.009  44.827  0.00  0.00    +0.000 A 
ATOM     20  C   UNL     1      15.400  40.770  46.096  0.00  0.00    +0.000 A 
ATOM     21  C   UNL     1      16.270  39.654  46.037  0.00  0.00    +0.000 A 
ATOM     22  C   UNL     1      17.026  38.962  47.004  0.00  0.00    +0.000 A 
ATOM     23  C   UNL     1      17.804  37.867  46.618  0.00  0.00    +0.000 A 
ATOM     24  C   UNL     1      17.837  37.459  45.289  0.00  0.00    +0.000 A 
ATOM     25  C   UNL     1      17.097  38.133  44.310  0.00  0.00    +0.000 A 
ATOM     26  C   UNL     1      16.315  39.232  44.705  0.00  0.00    +0.000 A 
ATOM     27  N   UNL     1      15.494  40.084  43.984  0.00  0.00    +0.000 N 
ATOM     28  C   UNL     1      15.283  40.022  42.553  0.00  0.00    +0.000 C 
ENDBRANCH  18  19
ENDBRANCH   2  18
TORSDOF 4
ENDMDL
MODEL 3
REMARK VINA RESULT:    -6.006      2.381      9.911
REMARK INTER + INTRA:          -8.017
REMARK INTER:                  -7.410
REMARK INTRA:                  -0.607
REMARK UNBOUND:                -0.607
REMARK  Name = 
REMARK  6 active torsions:
REMARK  status: ('A' for Active; 'I' for Inactive)
REMARK    1  A    between atoms: C_1  and  N_2
REMARK    2  A    between atoms: N_2  and  C_3
REMARK    3  A    between atoms: C_3  and  C_4
REMARK    4  A    between atoms: N_12  and  C_13
REMARK    5  A    between atoms: C_14  and  C_16
REMARK    6  A    between atoms: C_17  and  C_18
REMARK                            x       y       z     vdW  Elec       q    Type
REMARK                         _______ _______ _______ _____ _____    ______ ____
ROOT
ATOM      1  C   UNL     1      16.325  37.203  52.904  0.00  0.00    +0.000 C 
ATOM      2  N   UNL     1      16.462  37.713  51.546  0.00  0.00    +0.000 N 
ATOM      3  C   UNL     1      17.518  37.416  50.699  0.00  0.00    +0.000 C 
ATOM      4  O   UNL     1      17.691  37.930  49.597  0.00  0.00    +0.000 OA
ENDROOT
BRANCH   3   5
ATOM      5  C   UNL     1      18.504  36.414  51.162  0.00  0.00    +0.000 C 
ATOM      6  C   UNL     1      19.757  36.455  50.682  0.00  0.00    +0.000 C 
BRANCH   6   7
ATOM      7  C   UNL     1      20.831  35.544  51.089  0.00  0.00    +0.000 A 
ATOM      8  C   UNL     1      20.770  34.734  52.217  0.00  0.00    +0.000 A 
ATOM      9  N   UNL     1      21.764  33.908  52.627  0.00  0.00    +0.000 NA
ATOM     10  C   UNL     1      22.890  33.881  51.894  0.00  0.00    +0.000 A 
ATOM     11  C   UNL     1      23.062  34.667  50.752  0.00  0.00    +0.000 A 
ATOM     12  C   UNL     1      22.020  35.515  50.358  0.00  0.00    +0.000 A 
ATOM     13  C   UNL     1      24.374  34.678  50.014  0.00  0.00    +0.000 C 
ATOM     14  C   UNL     1      25.299  33.535  50.439  0.00  0.00    +0.000 C 
ATOM     15  C   UNL     1      25.229  33.334  51.948  0.00  0.00    +0.000 C 
ATOM     16  N   UNL     1      23.871  32.991  52.309  0.00  0.00    +0.000 N 
ATOM     17  H   UNL     1      23.679  32.700  53.263  0.00  0.00    +0.000 HD
ENDBRANCH   6   7
ENDBRANCH   3   5
BRANCH   2  18
ATOM     18  C   UNL     1      15.323  38.431  50.987  0.00  0.00    +0.000 C 
BRANCH  18  19
ATOM     19  C   UNL     1      15.237  39.779  51.633  0.00  0.00    +0.000 A 
ATOM     20  C   UNL     1      16.224  40.741  51.747  0.00  0.00    +0.000 A 
ATOM     21  C   UNL     1      15.677  41.868  52.410  0.00  0.00    +0.000 A 
ATOM     22  C   UNL     1      16.201  43.123  52.777  0.00  0.00    +0.000 A 
ATOM     23  C   UNL     1      15.383  44.046  53.437  0.00  0.00    +0.000 A 
ATOM     24  C   UNL     1      14.061  43.730  53.734  0.00  0.00    +0.000 A 
ATOM     25  C   UNL     1      13.521  42.488  53.382  0.00  0.00    +0.000 A 
ATOM     26  C   UNL     1      14.348  41.566  52.716  0.00  0.00    +0.000 A 
ATOM     27  N   UNL     1      14.108  40.283  52.252  0.00  0.00    +0.000 N 
ATOM     28  C   UNL     1      12.858  39.565  52.397  0.00  0.00    +0.000 C 
ENDBRANCH  18  19
ENDBRANCH   2  18
TORSDOF 4
ENDMDL
