MODEL 1
REMARK VINA RESULT:    -7.503      0.000      0.000
REMARK INTER + INTRA:         -10.665
REMARK INTER:                  -9.017
REMARK INTRA:                  -1.648
REMARK UNBOUND:                -1.188
REMARK  Name = 
REMARK  5 active torsions:
REMARK  status: ('A' for Active; 'I' for Inactive)
REMARK    1  A    between atoms: C_2  and  C_3
REMARK    2  A    between atoms: C_2  and  C_30
REMARK    3  A    between atoms: C_5  and  C_6
REMARK    4  A    between atoms: C_18  and  C_19
REMARK    5  A    between atoms: C_36  and  O_37
REMARK                            x       y       z     vdW  Elec       q    Type
REMARK                         _______ _______ _______ _____ _____    ______ ____
ROOT
ATOM      1  C   UNL     1      13.991  44.819  45.027  0.00  0.00    +0.000 A 
ATOM      2  C   UNL     1      14.252  44.827  43.610  0.00  0.00    +0.000 A 
ATOM      3  C   UNL     1      14.813  43.767  43.008  0.00  0.00    +0.000 A 
ATOM      4  C   UNL     1      15.161  42.547  43.798  0.00  0.00    +0.000 A 
ATOM      5  N   UNL     1      15.675  41.513  43.199  0.00  0.00    +0.000 NA
ATOM      6  C   UNL     1      15.966  40.459  43.994  0.00  0.00    +0.000 A 
ATOM      7  S   UNL     1      16.642  39.037  43.342  0.00  0.00    +0.000 S 
ATOM      8  C   UNL     1      16.688  38.286  44.876  0.00  0.00    +0.000 A 
ATOM      9  C   UNL     1      16.199  39.102  45.879  0.00  0.00    +0.000 A 
ATOM     10  C   UNL     1      15.783  40.373  45.355  0.00  0.00    +0.000 A 
ATOM     11  C   UNL     1      15.208  41.523  46.030  0.00  0.00    +0.000 A 
ATOM     12  O   UNL     1      15.007  41.543  47.242  0.00  0.00    +0.000 OA
ATOM     13  N   UNL     1      14.905  42.609  45.183  0.00  0.00    +0.000 N 
ATOM     14  C   UNL     1      14.339  43.749  45.756  0.00  0.00    +0.000 A 
ENDROOT
BRANCH   3  15
ATOM     15  C   UNL     1      15.005  43.870  41.542  0.00  0.00    +0.000 C 
ATOM     16  O   UNL     1      16.047  44.356  41.102  0.00  0.00    +0.000 OA
ATOM     17  N   UNL     1      14.024  43.342  40.739  0.00  0.00    +0.000 N 
ATOM     18  C   UNL     1      12.808  42.652  41.146  0.00  0.00    +0.000 C 
ATOM     19  C   UNL     1      12.316  41.980  39.871  0.00  0.00    +0.000 C 
ATOM     20  C   UNL     1      12.776  42.944  38.785  0.00  0.00    +0.000 C 
ATOM     21  C   UNL     1      14.135  43.403  39.292  0.00  0.00    +0.000 C 
ENDBRANCH   3  15
BRANCH   9  22
ATOM     22  C   UNL     1      16.169  38.628  47.256  0.00  0.00    +0.000 A 
ATOM     23  C   UNL     1      14.992  38.085  47.790  0.00  0.00    +0.000 A 
ATOM     24  C   UNL     1      14.968  37.617  49.105  0.00  0.00    +0.000 A 
ATOM     25  C   UNL     1      16.116  37.687  49.891  0.00  0.00    +0.000 A 
ATOM     26  C   UNL     1      17.290  38.226  49.367  0.00  0.00    +0.000 A 
ATOM     27  C   UNL     1      17.317  38.694  48.051  0.00  0.00    +0.000 A 
ENDBRANCH   9  22
BRANCH   1  29
ATOM     28  O   UNL     1      12.598  45.920  46.585  0.00  0.00    +0.000 OA
ATOM     29  C   UNL     1      13.425  46.034  45.682  0.00  0.00    +0.000 C 
BRANCH  29  30
ATOM     30  C   UNL     1      13.836  47.392  45.241  0.00  0.00    +0.000 A 
ATOM     31  C   UNL     1      15.148  47.854  45.407  0.00  0.00    +0.000 A 
ATOM     32  C   UNL     1      15.485  49.132  44.971  0.00  0.00    +0.000 A 
ATOM     33  F   UNL     1      16.742  49.566  45.129  0.00  0.00    +0.000 F 
ATOM     34  C   UNL     1      14.543  49.968  44.381  0.00  0.00    +0.000 A 
ATOM     35  C   UNL     1      13.231  49.526  44.234  0.00  0.00    +0.000 A 
ATOM     36  C   UNL     1      12.878  48.249  44.674  0.00  0.00    +0.000 A 
BRANCH  36  37
ATOM     37  O   UNL     1      11.564  47.901  44.517  0.00  0.00    +0.000 OA
ATOM     38  H   UNL     1      11.498  47.258  43.775  0.00  0.00    +0.000 HD
ENDBRANCH  36  37
ENDBRANCH  29  30
ENDBRANCH   1  29
TORSDOF 5
ENDMDL
MODEL 2
REMARK VINA RESULT:    -7.201      4.828      9.542
REMARK INTER + INTRA:         -10.284
REMARK INTER:                  -8.666
REMARK INTRA:                  -1.617
REMARK UNBOUND:                -1.188
REMARK  Name = 
REMARK  5 active torsions:
REMARK  status: ('A' for Active; 'I' for Inactive)
REMARK    1  A    between atoms: C_2  and  C_3
REMARK    2  A    between atoms: C_2  and  C_30
REMARK    3  A    between atoms: C_5  and  C_6
REMARK    4  A    between atoms: C_18  and  C_19
REMARK    5  A    between atoms: C_36  and  O_37
REMARK                            x       y       z     vdW  Elec       q    Type
REMARK                         _______ _______ _______ _____ _____    ______ ____
ROOT
ATOM      1  C   UNL     1      13.633  45.281  45.631  0.00  0.00    +0.000 A 
ATOM      2  C   UNL     1      12.349  45.311  46.284  0.00  0.00    +0.000 A 
ATOM      3  C   UNL     1      11.769  46.477  46.608  0.00  0.00    +0.000 A 
ATOM      4  C   UNL     1      12.440  47.771  46.280  0.00  0.00    +0.000 A 
ATOM      5  N   UNL     1      11.855  48.896  46.569  0.00  0.00    +0.000 NA
ATOM      6  C   UNL     1      12.540  50.014  46.245  0.00  0.00    +0.000 A 
ATOM      7  S   UNL     1      11.891  51.557  46.565  0.00  0.00    +0.000 S 
ATOM      8  C   UNL     1      13.261  52.336  45.904  0.00  0.00    +0.000 A 
ATOM      9  C   UNL     1      14.208  51.439  45.446  0.00  0.00    +0.000 A 
ATOM     10  C   UNL     1      13.781  50.083  45.652  0.00  0.00    +0.000 A 
ATOM     11  C   UNL     1      14.439  48.832  45.324  0.00  0.00    +0.000 A 
ATOM     12  O   UNL     1      15.548  48.789  44.795  0.00  0.00    +0.000 OA
ATOM     13  N   UNL     1      13.705  47.677  45.665  0.00  0.00    +0.000 N 
ATOM     14  C   UNL     1      14.268  46.433  45.371  0.00  0.00    +0.000 A 
ENDROOT
BRANCH   3  15
ATOM     15  C   UNL     1      10.433  46.391  47.244  0.00  0.00    +0.000 C 
ATOM     16  O   UNL     1      10.347  46.415  48.472  0.00  0.00    +0.000 OA
ATOM     17  N   UNL     1       9.340  46.363  46.414  0.00  0.00    +0.000 N 
ATOM     18  C   UNL     1       9.316  46.440  44.960  0.00  0.00    +0.000 C 
ATOM     19  C   UNL     1       7.861  46.738  44.625  0.00  0.00    +0.000 C 
ATOM     20  C   UNL     1       7.108  46.033  45.746  0.00  0.00    +0.000 C 
ATOM     21  C   UNL     1       7.995  46.279  46.957  0.00  0.00    +0.000 C 
ENDBRANCH   3  15
BRANCH   9  22
ATOM     22  C   UNL     1      15.448  51.925  44.856  0.00  0.00    +0.000 A 
ATOM     23  C   UNL     1      16.516  52.312  45.677  0.00  0.00    +0.000 A 
ATOM     24  C   UNL     1      17.710  52.763  45.112  0.00  0.00    +0.000 A 
ATOM     25  C   UNL     1      17.843  52.831  43.726  0.00  0.00    +0.000 A 
ATOM     26  C   UNL     1      16.785  52.448  42.903  0.00  0.00    +0.000 A 
ATOM     27  C   UNL     1      15.590  51.995  43.466  0.00  0.00    +0.000 A 
ENDBRANCH   9  22
BRANCH   1  29
ATOM     28  O   UNL     1      14.861  43.355  46.234  0.00  0.00    +0.000 OA
ATOM     29  C   UNL     1      14.285  43.971  45.339  0.00  0.00    +0.000 C 
BRANCH  29  30
ATOM     30  C   UNL     1      14.265  43.406  43.964  0.00  0.00    +0.000 A 
ATOM     31  C   UNL     1      13.087  42.914  43.389  0.00  0.00    +0.000 A 
ATOM     32  C   UNL     1      13.119  42.401  42.095  0.00  0.00    +0.000 A 
ATOM     33  F   UNL     1      11.988  41.935  41.549  0.00  0.00    +0.000 F 
ATOM     34  C   UNL     1      14.299  42.357  41.362  0.00  0.00    +0.000 A 
ATOM     35  C   UNL     1      15.480  42.823  41.936  0.00  0.00    +0.000 A 
ATOM     36  C   UNL     1      15.463  43.333  43.235  0.00  0.00    +0.000 A 
BRANCH  36  37
ATOM     37  O   UNL     1      16.669  43.745  43.734  0.00  0.00    +0.000 OA
ATOM     38  H   UNL     1      17.337  43.701  43.012  0.00  0.00    +0.000 HD
ENDBRANCH  36  37
ENDBRANCH  29  30
ENDBRANCH   1  29
TORSDOF 5
ENDMDL
MODEL 3
REMARK VINA RESULT:    -6.939      1.995      2.328
REMARK INTER + INTRA:          -9.953
REMARK INTER:                  -8.765
REMARK INTRA:                  -1.188
REMARK UNBOUND:                -1.188
REMARK  Name = 
REMARK  5 active torsions:
REMARK  status: ('A' for Active; 'I' for Inactive)
REMARK    1  A    between atoms: C_2  and  C_3
REMARK    2  A    between atoms: C_2  and  C_30
REMARK    3  A    between atoms: C_5  and  C_6
REMARK    4  A    between atoms: C_18  and  C_19
REMARK    5  A    between atoms: C_36  and  O_37
REMARK                            x       y       z     vdW  Elec       q    Type
REMARK                         _______ _______ _______ _____ _____    ______ ____
ROOT
ATOM      1  C   UNL     1      14.013  43.158  44.960  0.00  0.00    +0.000 A 
ATOM      2  C   UNL     1      14.129  43.702  43.631  0.00  0.00    +0.000 A 
ATOM      3  C   UNL     1      14.833  43.063  42.685  0.00  0.00    +0.000 A 
ATOM      4  C   UNL     1      15.497  41.759  42.990  0.00  0.00    +0.000 A 
ATOM      5  N   UNL     1      16.150  41.131  42.057  0.00  0.00    +0.000 NA
ATOM      6  C   UNL     1      16.725  39.965  42.426  0.00  0.00    +0.000 A 
ATOM      7  S   UNL     1      17.610  39.036  41.304  0.00  0.00    +0.000 S 
ATOM      8  C   UNL     1      17.956  37.842  42.476  0.00  0.00    +0.000 A 
ATOM      9  C   UNL     1      17.411  38.141  43.711  0.00  0.00    +0.000 A 
ATOM     10  C   UNL     1      16.696  39.386  43.674  0.00  0.00    +0.000 A 
ATOM     11  C   UNL     1      15.967  40.080  44.720  0.00  0.00    +0.000 A 
ATOM     12  O   UNL     1      15.884  39.644  45.866  0.00  0.00    +0.000 OA
ATOM     13  N   UNL     1      15.369  41.291  44.313  0.00  0.00    +0.000 N 
ATOM     14  C   UNL     1      14.640  42.013  45.261  0.00  0.00    +0.000 A 
ENDROOT
BRANCH   3  15
ATOM     15  C   UNL     1      14.858  43.694  41.344  0.00  0.00    +0.000 C 
ATOM     16  O   UNL     1      15.740  44.509  41.077  0.00  0.00    +0.000 OA
ATOM     17  N   UNL     1      13.920  43.275  40.432  0.00  0.00    +0.000 N 
ATOM     18  C   UNL     1      12.903  42.247  40.601  0.00  0.00    +0.000 C 
ATOM     19  C   UNL     1      12.425  41.959  39.185  0.00  0.00    +0.000 C 
ATOM     20  C   UNL     1      12.585  43.308  38.495  0.00  0.00    +0.000 C 
ATOM     21  C   UNL     1      13.875  43.844  39.097  0.00  0.00    +0.000 C 
ENDBRANCH   3  15
BRANCH   9  22
ATOM     22  C   UNL     1      17.611  37.236  44.835  0.00  0.00    +0.000 A 
ATOM     23  C   UNL     1      16.621  36.304  45.175  0.00  0.00    +0.000 A 
ATOM     24  C   UNL     1      16.820  35.426  46.243  0.00  0.00    +0.000 A 
ATOM     25  C   UNL     1      18.006  35.474  46.974  0.00  0.00    +0.000 A 
ATOM     26  C   UNL     1      18.994  36.398  46.640  0.00  0.00    +0.000 A 
ATOM     27  C   UNL     1      18.799  37.277  45.572  0.00  0.00    +0.000 A 
ENDBRANCH   9  22
BRANCH   1  29
ATOM     28  O   UNL     1      12.664  43.322  46.893  0.00  0.00    +0.000 OA
ATOM     29  C   UNL     1      13.277  43.921  46.010  0.00  0.00    +0.000 C 
BRANCH  29  30
ATOM     30  C   UNL     1      13.258  45.407  45.993  0.00  0.00    +0.000 A 
ATOM     31  C   UNL     1      14.359  46.151  45.552  0.00  0.00    +0.000 A 
ATOM     32  C   UNL     1      14.289  47.541  45.548  0.00  0.00    +0.000 A 
ATOM     33  F   UNL     1      15.343  48.248  45.121  0.00  0.00    +0.000 F 
ATOM     34  C   UNL     1      13.150  48.210  45.984  0.00  0.00    +0.000 A 
ATOM     35  C   UNL     1      12.060  47.478  46.447  0.00  0.00    +0.000 A 
ATOM     36  C   UNL     1      12.120  46.084  46.463  0.00  0.00    +0.000 A 
BRANCH  36  37
ATOM     37  O   UNL     1      11.018  45.440  46.957  0.00  0.00    +0.000 OA
ATOM     38  H   UNL     1      10.323  45.434  46.261  0.00  0.00    +0.000 HD
ENDBRANCH  36  37
ENDBRANCH  29  30
ENDBRANCH   1  29
TORSDOF 5
ENDMDL
