MODEL 1
REMARK VINA RESULT:    -6.831      0.000      0.000
REMARK INTER + INTRA:          -9.428
REMARK INTER:                  -8.740
REMARK INTRA:                  -0.688
REMARK UNBOUND:                -0.999
REMARK  Name = 
REMARK  6 active torsions:
REMARK  status: ('A' for Active; 'I' for Inactive)
REMARK    1  A    between atoms: C_1  and  C_2
REMARK    2  A    between atoms: C_2  and  C_3
REMARK    3  A    between atoms: C_2  and  C_4
REMARK    4  A    between atoms: C_12  and  C_14
REMARK    5  A    between atoms: C_17  and  C_18
REMARK    6  A    between atoms: C_22  and  C_23
REMARK                            x       y       z     vdW  Elec       q    Type
REMARK                         _______ _______ _______ _____ _____    ______ ____
ROOT
ATOM      1  C   UNL     1      19.069  35.938  50.904  0.00  0.00    +0.000 A 
ATOM      2  C   UNL     1      19.061  34.546  51.035  0.00  0.00    +0.000 A 
ATOM      3  C   UNL     1      20.243  33.872  51.354  0.00  0.00    +0.000 A 
ATOM      4  C   UNL     1      21.431  34.583  51.568  0.00  0.00    +0.000 A 
ATOM      5  C   UNL     1      21.427  35.978  51.440  0.00  0.00    +0.000 A 
ATOM      6  C   UNL     1      20.248  36.658  51.122  0.00  0.00    +0.000 A 
ENDROOT
BRANCH   1  15
ATOM      7  C   UNL     1      16.411  40.771  52.930  0.00  0.00    +0.000 A 
ATOM      8  N   UNL     1      17.150  40.747  54.022  0.00  0.00    +0.000 NA
ATOM      9  N   UNL     1      17.617  39.467  54.209  0.00  0.00    +0.000 NA
ATOM     10  C   UNL     1      17.158  38.725  53.226  0.00  0.00    +0.000 A 
ATOM     11  N   UNL     1      16.375  39.506  52.414  0.00  0.00    +0.000 N 
ATOM     12  C   UNL     1      15.695  39.013  51.233  0.00  0.00    +0.000 C 
ATOM     13  C   UNL     1      15.611  37.488  51.276  0.00  0.00    +0.000 C 
ATOM     14  N   UNL     1      16.909  36.914  51.639  0.00  0.00    +0.000 N 
ATOM     15  C   UNL     1      17.796  36.634  50.599  0.00  0.00    +0.000 C 
ATOM     16  O   UNL     1      17.553  36.916  49.427  0.00  0.00    +0.000 OA
ATOM     17  C   UNL     1      17.374  37.267  52.990  0.00  0.00    +0.000 C 
BRANCH   7  19
ATOM     18  C   UNL     1      14.210  41.858  52.560  0.00  0.00    +0.000 C 
ATOM     19  C   UNL     1      15.719  41.960  52.340  0.00  0.00    +0.000 C 
ATOM     20  C   UNL     1      16.262  43.259  52.936  0.00  0.00    +0.000 C 
ENDBRANCH   7  19
ENDBRANCH   1  15
BRANCH   4  21
ATOM     21  C   UNL     1      22.688  33.904  51.896  0.00  0.00    +0.000 C 
ATOM     22  C   UNL     1      23.792  33.961  51.141  0.00  0.00    +0.000 C 
ATOM     23  O   UNL     1      23.922  34.654  49.944  0.00  0.00    +0.000 OA
ATOM     24  C   UNL     1      25.206  34.425  49.500  0.00  0.00    +0.000 A 
ATOM     25  C   UNL     1      25.787  34.916  48.345  0.00  0.00    +0.000 A 
ATOM     26  C   UNL     1      27.125  34.553  48.094  0.00  0.00    +0.000 A 
ATOM     27  C   UNL     1      27.842  33.723  48.979  0.00  0.00    +0.000 A 
ATOM     28  C   UNL     1      27.240  33.234  50.138  0.00  0.00    +0.000 A 
ATOM     29  C   UNL     1      25.930  33.603  50.368  0.00  0.00    +0.000 A 
ATOM     30  C   UNL     1      25.052  33.251  51.478  0.00  0.00    +0.000 C 
ATOM     31  O   UNL     1      25.302  32.550  52.431  0.00  0.00    +0.000 OA
BRANCH  25  32
ATOM     32  C   UNL     1      25.092  35.790  47.366  0.00  0.00    +0.000 C 
ATOM     33  N   UNL     1      23.858  35.415  46.921  0.00  0.00    +0.000 N 
ATOM     34  O   UNL     1      25.612  36.821  46.957  0.00  0.00    +0.000 OA
ATOM     35  H   UNL     1      23.408  36.003  46.229  0.00  0.00    +0.000 HD
ATOM     36  H   UNL     1      23.400  34.552  47.184  0.00  0.00    +0.000 HD
ENDBRANCH  25  32
ENDBRANCH   4  21
TORSDOF 4
ENDMDL
MODEL 2
REMARK VINA RESULT:    -6.402      8.629     11.949
REMARK INTER + INTRA:          -8.899
REMARK INTER:                  -8.322
REMARK INTRA:                  -0.576
REMARK UNBOUND:                -0.999
REMARK  Name = 
REMARK  6 active torsions:
REMARK  status: ('A' for Active; 'I' for Inactive)
REMARK    1  A    between atoms: C_1  and  C_2
REMARK    2  A    between atoms: C_2  and  C_3
REMARK    3  A    between atoms: C_2  and  C_4
REMARK    4  A    between atoms: C_12  and  C_14
REMARK    5  A    between atoms: C_17  and  C_18
REMARK    6  A    between atoms: C_22  and  C_23
REMARK                            x       y       z     vdW  Elec       q    Type
REMARK                         _______ _______ _______ _____ _____    ______ ____
ROOT
ATOM      1  C   UNL     1      13.880  44.252  43.687  0.00  0.00    +0.000 A 
ATOM      2  C   UNL     1      15.248  44.307  43.407  0.00  0.00    +0.000 A 
ATOM      3  C   UNL     1      16.000  43.129  43.379  0.00  0.00    +0.000 A 
ATOM      4  C   UNL     1      15.386  41.890  43.604  0.00  0.00    +0.000 A 
ATOM      5  C   UNL     1      14.013  41.844  43.878  0.00  0.00    +0.000 A 
ATOM      6  C   UNL     1      13.257  43.019  43.907  0.00  0.00    +0.000 A 
ENDROOT
BRANCH   1  15
ATOM      7  C   UNL     1      15.174  49.933  44.453  0.00  0.00    +0.000 A 
ATOM      8  N   UNL     1      16.308  49.618  45.048  0.00  0.00    +0.000 NA
ATOM      9  N   UNL     1      16.210  48.333  45.531  0.00  0.00    +0.000 NA
ATOM     10  C   UNL     1      15.015  47.880  45.224  0.00  0.00    +0.000 A 
ATOM     11  N   UNL     1      14.325  48.867  44.567  0.00  0.00    +0.000 N 
ATOM     12  C   UNL     1      12.966  48.719  44.087  0.00  0.00    +0.000 C 
ATOM     13  C   UNL     1      12.292  47.535  44.781  0.00  0.00    +0.000 C 
ATOM     14  N   UNL     1      13.177  46.368  44.776  0.00  0.00    +0.000 N 
ATOM     15  C   UNL     1      13.097  45.511  43.678  0.00  0.00    +0.000 C 
ATOM     16  O   UNL     1      12.376  45.742  42.709  0.00  0.00    +0.000 OA
ATOM     17  C   UNL     1      14.423  46.546  45.540  0.00  0.00    +0.000 C 
BRANCH   7  19
ATOM     18  C   UNL     1      14.099  52.153  44.729  0.00  0.00    +0.000 C 
ATOM     19  C   UNL     1      14.845  51.224  43.772  0.00  0.00    +0.000 C 
ATOM     20  C   UNL     1      16.112  51.901  43.246  0.00  0.00    +0.000 C 
ENDBRANCH   7  19
ENDBRANCH   1  15
BRANCH   4  21
ATOM     21  C   UNL     1      16.148  40.638  43.589  0.00  0.00    +0.000 C 
ATOM     22  C   UNL     1      16.358  39.873  44.667  0.00  0.00    +0.000 C 
ATOM     23  O   UNL     1      15.902  40.138  45.952  0.00  0.00    +0.000 OA
ATOM     24  C   UNL     1      16.360  39.110  46.746  0.00  0.00    +0.000 A 
ATOM     25  C   UNL     1      16.150  38.951  48.104  0.00  0.00    +0.000 A 
ATOM     26  C   UNL     1      16.712  37.811  48.712  0.00  0.00    +0.000 A 
ATOM     27  C   UNL     1      17.460  36.873  47.972  0.00  0.00    +0.000 A 
ATOM     28  C   UNL     1      17.665  37.051  46.604  0.00  0.00    +0.000 A 
ATOM     29  C   UNL     1      17.104  38.172  46.026  0.00  0.00    +0.000 A 
ATOM     30  C   UNL     1      17.149  38.616  44.638  0.00  0.00    +0.000 C 
ATOM     31  O   UNL     1      17.702  38.083  43.704  0.00  0.00    +0.000 OA
BRANCH  25  32
ATOM     32  C   UNL     1      15.378  39.899  48.948  0.00  0.00    +0.000 C 
ATOM     33  N   UNL     1      14.910  41.046  48.376  0.00  0.00    +0.000 N 
ATOM     34  O   UNL     1      15.168  39.666  50.132  0.00  0.00    +0.000 OA
ATOM     35  H   UNL     1      14.413  41.699  48.969  0.00  0.00    +0.000 HD
ATOM     36  H   UNL     1      15.094  41.314  47.418  0.00  0.00    +0.000 HD
ENDBRANCH  25  32
ENDBRANCH   4  21
TORSDOF 4
ENDMDL
MODEL 3
REMARK VINA RESULT:    -6.196      8.297     10.719
REMARK INTER + INTRA:          -8.643
REMARK INTER:                  -7.644
REMARK INTRA:                  -0.999
REMARK UNBOUND:                -0.999
REMARK  Name = 
REMARK  6 active torsions:
REMARK  status: ('A' for Active; 'I' for Inactive)
REMARK    1  A    between atoms: C_1  and  C_2
REMARK    2  A    between atoms: C_2  and  C_3
REMARK    3  A    between atoms: C_2  and  C_4
REMARK    4  A    between atoms: C_12  and  C_14
REMARK    5  A    between atoms: C_17  and  C_18
REMARK    6  A    between atoms: C_22  and  C_23
REMARK                            x       y       z     vdW  Elec       q    Type
REMARK                         _______ _______ _______ _____ _____    ______ ____
ROOT
ATOM      1  C   UNL     1      15.073  42.300  41.759  0.00  0.00    +0.000 A 
ATOM      2  C   UNL     1      14.664  41.081  41.211  0.00  0.00    +0.000 A 
ATOM      3  C   UNL     1      15.449  39.940  41.392  0.00  0.00    +0.000 A 
ATOM      4  C   UNL     1      16.631  40.002  42.142  0.00  0.00    +0.000 A 
ATOM      5  C   UNL     1      17.030  41.227  42.693  0.00  0.00    +0.000 A 
ATOM      6  C   UNL     1      16.248  42.372  42.515  0.00  0.00    +0.000 A 
ENDROOT
BRANCH   1  15
ATOM      7  C   UNL     1      12.723  46.281  45.387  0.00  0.00    +0.000 A 
ATOM      8  N   UNL     1      12.898  45.478  46.419  0.00  0.00    +0.000 NA
ATOM      9  N   UNL     1      12.999  44.185  45.958  0.00  0.00    +0.000 NA
ATOM     10  C   UNL     1      12.885  44.216  44.649  0.00  0.00    +0.000 A 
ATOM     11  N   UNL     1      12.685  45.515  44.256  0.00  0.00    +0.000 N 
ATOM     12  C   UNL     1      12.507  45.922  42.876  0.00  0.00    +0.000 C 
ATOM     13  C   UNL     1      12.138  44.712  42.018  0.00  0.00    +0.000 C 
ATOM     14  N   UNL     1      13.024  43.584  42.316  0.00  0.00    +0.000 N 
ATOM     15  C   UNL     1      14.207  43.491  41.582  0.00  0.00    +0.000 C 
ATOM     16  O   UNL     1      14.550  44.345  40.767  0.00  0.00    +0.000 OA
ATOM     17  C   UNL     1      12.914  43.072  43.692  0.00  0.00    +0.000 C 
BRANCH   7  19
ATOM     18  C   UNL     1      11.775  48.197  46.649  0.00  0.00    +0.000 C 
ATOM     19  C   UNL     1      12.582  47.770  45.423  0.00  0.00    +0.000 C 
ATOM     20  C   UNL     1      13.952  48.448  45.420  0.00  0.00    +0.000 C 
ENDBRANCH   7  19
ENDBRANCH   1  15
BRANCH   4  21
ATOM     21  C   UNL     1      17.480  38.824  42.344  0.00  0.00    +0.000 C 
ATOM     22  C   UNL     1      17.661  38.222  43.526  0.00  0.00    +0.000 C 
ATOM     23  O   UNL     1      17.090  38.610  44.731  0.00  0.00    +0.000 OA
ATOM     24  C   UNL     1      17.559  37.732  45.684  0.00  0.00    +0.000 A 
ATOM     25  C   UNL     1      17.257  37.730  47.034  0.00  0.00    +0.000 A 
ATOM     26  C   UNL     1      17.852  36.727  47.823  0.00  0.00    +0.000 A 
ATOM     27  C   UNL     1      18.720  35.766  47.265  0.00  0.00    +0.000 A 
ATOM     28  C   UNL     1      19.015  35.785  45.903  0.00  0.00    +0.000 A 
ATOM     29  C   UNL     1      18.421  36.774  45.145  0.00  0.00    +0.000 A 
ATOM     30  C   UNL     1      18.540  37.041  43.716  0.00  0.00    +0.000 C 
ATOM     31  O   UNL     1      19.200  36.440  42.900  0.00  0.00    +0.000 OA
BRANCH  25  32
ATOM     32  C   UNL     1      16.357  38.712  47.691  0.00  0.00    +0.000 C 
ATOM     33  N   UNL     1      16.244  39.958  47.146  0.00  0.00    +0.000 N 
ATOM     34  O   UNL     1      15.732  38.419  48.703  0.00  0.00    +0.000 OA
ATOM     35  H   UNL     1      15.652  40.628  47.621  0.00  0.00    +0.000 HD
ATOM     36  H   UNL     1      16.772  40.272  46.342  0.00  0.00    +0.000 HD
ENDBRANCH  25  32
ENDBRANCH   4  21
TORSDOF 4
ENDMDL
