MODEL 1
REMARK VINA RESULT:    -6.723      0.000      0.000
REMARK INTER + INTRA:          -9.432
REMARK INTER:                  -8.440
REMARK INTRA:                  -0.992
REMARK UNBOUND:                -0.744
REMARK  Name = 
REMARK  5 active torsions:
REMARK  status: ('A' for Active; 'I' for Inactive)
REMARK    1  A    between atoms: N_11  and  C_12
REMARK    2  A    between atoms: C_12  and  C_13
REMARK    3  A    between atoms: C_13  and  N_14
REMARK    4  A    between atoms: C_17  and  C_18
REMARK    5  A    between atoms: C_18  and  C_19
REMARK                            x       y       z     vdW  Elec       q    Type
REMARK                         _______ _______ _______ _____ _____    ______ ____
ROOT
ATOM      1  N   UNL     1      14.233  41.863  42.246  0.00  0.00    +0.000 NA
ATOM      2  C   UNL     1      13.178  42.221  43.203  0.00  0.00    +0.000 C 
ATOM      3  C   UNL     1      13.077  43.731  43.413  0.00  0.00    +0.000 C 
ATOM      4  C   UNL     1      14.375  44.313  44.006  0.00  0.00    +0.000 C 
ATOM      5  C   UNL     1      15.592  43.450  43.619  0.00  0.00    +0.000 C 
ATOM      6  C   UNL     1      15.387  42.773  42.267  0.00  0.00    +0.000 C 
ENDROOT
BRANCH   1   7
ATOM      7  C   UNL     1      14.629  40.449  42.327  0.00  0.00    +0.000 C 
BRANCH   7   8
ATOM      8  C   UNL     1      16.102  40.160  41.965  0.00  0.00    +0.000 C 
BRANCH   8  19
ATOM      9  O   UNL     1      16.098  37.163  42.643  0.00  0.00    +0.000 OA
ATOM     10  S   UNL     1      17.265  37.924  43.030  0.00  0.00    +0.000 S 
ATOM     11  O   UNL     1      18.583  37.757  42.466  0.00  0.00    +0.000 OA
ATOM     12  C   UNL     1      17.389  37.770  44.773  0.00  0.00    +0.000 A 
ATOM     13  C   UNL     1      17.963  36.714  45.456  0.00  0.00    +0.000 A 
ATOM     14  C   UNL     1      17.959  36.778  46.848  0.00  0.00    +0.000 A 
ATOM     15  C   UNL     1      17.392  37.882  47.510  0.00  0.00    +0.000 A 
ATOM     16  C   UNL     1      16.828  38.943  46.790  0.00  0.00    +0.000 A 
ATOM     17  C   UNL     1      16.839  38.885  45.404  0.00  0.00    +0.000 A 
ATOM     18  C   UNL     1      16.301  39.905  44.441  0.00  0.00    +0.000 C 
ATOM     19  N   UNL     1      16.865  39.588  43.099  0.00  0.00    +0.000 NA
ENDBRANCH   8  19
ENDBRANCH   7   8
ENDBRANCH   1   7
BRANCH   4  20
ATOM     20  C   UNL     1      14.258  44.476  45.534  0.00  0.00    +0.000 C 
BRANCH  20  21
ATOM     21  C   UNL     1      13.363  45.605  45.949  0.00  0.00    +0.000 A 
ATOM     22  C   UNL     1      12.166  45.494  46.631  0.00  0.00    +0.000 A 
ATOM     23  N   UNL     1      11.657  46.749  46.819  0.00  0.00    +0.000 N 
ATOM     24  C   UNL     1      12.493  47.690  46.268  0.00  0.00    +0.000 A 
ATOM     25  C   UNL     1      12.373  49.086  46.220  0.00  0.00    +0.000 A 
ATOM     26  C   UNL     1      13.391  49.798  45.583  0.00  0.00    +0.000 A 
ATOM     27  C   UNL     1      14.474  49.133  45.023  0.00  0.00    +0.000 A 
ATOM     28  F   UNL     1      15.435  49.844  44.417  0.00  0.00    +0.000 F 
ATOM     29  C   UNL     1      14.588  47.744  45.074  0.00  0.00    +0.000 A 
ATOM     30  C   UNL     1      13.574  47.002  45.711  0.00  0.00    +0.000 A 
ATOM     31  H   UNL     1      10.790  46.960  47.293  0.00  0.00    +0.000 HD
ENDBRANCH  20  21
ENDBRANCH   4  20
TORSDOF 5
ENDMDL
MODEL 2
REMARK VINA RESULT:    -6.666      3.125      5.045
REMARK INTER + INTRA:          -9.359
REMARK INTER:                  -8.415
REMARK INTRA:                  -0.944
REMARK UNBOUND:                -0.744
REMARK  Name = 
REMARK  5 active torsions:
REMARK  status: ('A' for Active; 'I' for Inactive)
REMARK    1  A    between atoms: N_11  and  C_12
REMARK    2  A    between atoms: C_12  and  C_13
REMARK    3  A    between atoms: C_13  and  N_14
REMARK    4  A    between atoms: C_17  and  C_18
REMARK    5  A    between atoms: C_18  and  C_19
REMARK                            x       y       z     vdW  Elec       q    Type
REMARK                         _______ _______ _______ _____ _____    ______ ____
ROOT
ATOM      1  N   UNL     1      13.383  44.926  45.446  0.00  0.00    +0.000 NA
ATOM      2  C   UNL     1      14.246  45.844  44.690  0.00  0.00    +0.000 C 
ATOM      3  C   UNL     1      14.686  47.044  45.529  0.00  0.00    +0.000 C 
ATOM      4  C   UNL     1      13.484  47.897  45.978  0.00  0.00    +0.000 C 
ATOM      5  C   UNL     1      12.206  47.041  46.077  0.00  0.00    +0.000 C 
ATOM      6  C   UNL     1      12.533  45.595  46.441  0.00  0.00    +0.000 C 
ENDROOT
BRANCH   1   7
ATOM      7  C   UNL     1      12.624  44.008  44.583  0.00  0.00    +0.000 C 
BRANCH   7   8
ATOM      8  C   UNL     1      13.208  43.804  43.169  0.00  0.00    +0.000 C 
BRANCH   8  19
ATOM      9  O   UNL     1      16.235  43.701  42.652  0.00  0.00    +0.000 OA
ATOM     10  S   UNL     1      15.648  42.577  43.346  0.00  0.00    +0.000 S 
ATOM     11  O   UNL     1      15.908  42.229  44.722  0.00  0.00    +0.000 OA
ATOM     12  C   UNL     1      15.972  41.169  42.352  0.00  0.00    +0.000 A 
ATOM     13  C   UNL     1      17.143  40.434  42.342  0.00  0.00    +0.000 A 
ATOM     14  C   UNL     1      17.205  39.346  41.473  0.00  0.00    +0.000 A 
ATOM     15  C   UNL     1      16.110  39.025  40.652  0.00  0.00    +0.000 A 
ATOM     16  C   UNL     1      14.931  39.781  40.692  0.00  0.00    +0.000 A 
ATOM     17  C   UNL     1      14.864  40.859  41.563  0.00  0.00    +0.000 A 
ATOM     18  C   UNL     1      13.708  41.795  41.774  0.00  0.00    +0.000 C 
ATOM     19  N   UNL     1      13.962  42.535  43.041  0.00  0.00    +0.000 NA
ENDBRANCH   8  19
ENDBRANCH   7   8
ENDBRANCH   1   7
BRANCH   4  20
ATOM     20  C   UNL     1      13.286  49.106  45.042  0.00  0.00    +0.000 C 
BRANCH  20  21
ATOM     21  C   UNL     1      13.952  50.357  45.531  0.00  0.00    +0.000 A 
ATOM     22  C   UNL     1      13.389  51.318  46.349  0.00  0.00    +0.000 A 
ATOM     23  N   UNL     1      14.317  52.300  46.566  0.00  0.00    +0.000 N 
ATOM     24  C   UNL     1      15.483  52.009  45.898  0.00  0.00    +0.000 A 
ATOM     25  C   UNL     1      16.686  52.726  45.830  0.00  0.00    +0.000 A 
ATOM     26  C   UNL     1      17.717  52.180  45.062  0.00  0.00    +0.000 A 
ATOM     27  C   UNL     1      17.539  50.974  44.396  0.00  0.00    +0.000 A 
ATOM     28  F   UNL     1      18.547  50.477  43.665  0.00  0.00    +0.000 F 
ATOM     29  C   UNL     1      16.340  50.267  44.467  0.00  0.00    +0.000 A 
ATOM     30  C   UNL     1      15.284  50.795  45.236  0.00  0.00    +0.000 A 
ATOM     31  H   UNL     1      14.171  53.124  47.132  0.00  0.00    +0.000 HD
ENDBRANCH  20  21
ENDBRANCH   4  20
TORSDOF 5
ENDMDL
MODEL 3
REMARK VINA RESULT:    -6.620      9.046     11.826
REMARK INTER + INTRA:          -9.299
REMARK INTER:                  -8.555
REMARK INTRA:                  -0.744
REMARK UNBOUND:                -0.744
REMARK  Name = 
REMARK  5 active torsions:
REMARK  status: ('A' for Active; 'I' for Inactive)
REMARK    1  A    between atoms: N_11  and  C_12
REMARK    2  A    between atoms: C_12  and  C_13
REMARK    3  A    between atoms: C_13  and  N_14
REMARK    4  A    between atoms: C_17  and  C_18
REMARK    5  A    between atoms: C_18  and  C_19
REMARK                            x       y       z     vdW  Elec       q    Type
REMARK                         _______ _______ _______ _____ _____    ______ ____
ROOT
ATOM      1  N   UNL     1      20.203  33.671  49.762  0.00  0.00    +0.000 NA
ATOM      2  C   UNL     1      18.933  33.830  50.482  0.00  0.00    +0.000 C 
ATOM      3  C   UNL     1      18.161  35.067  50.022  0.00  0.00    +0.000 C 
ATOM      4  C   UNL     1      18.946  36.364  50.297  0.00  0.00    +0.000 C 
ATOM      5  C   UNL     1      20.463  36.098  50.307  0.00  0.00    +0.000 C 
ATOM      6  C   UNL     1      20.832  34.943  49.380  0.00  0.00    +0.000 C 
ENDROOT
BRANCH   1   7
ATOM      7  C   UNL     1      21.139  32.761  50.439  0.00  0.00    +0.000 C 
BRANCH   7   8
ATOM      8  C   UNL     1      22.594  33.270  50.533  0.00  0.00    +0.000 C 
BRANCH   8  19
ATOM      9  O   UNL     1      24.204  31.696  52.624  0.00  0.00    +0.000 OA
ATOM     10  S   UNL     1      24.268  33.138  52.694  0.00  0.00    +0.000 S 
ATOM     11  O   UNL     1      25.449  33.926  52.431  0.00  0.00    +0.000 OA
ATOM     12  C   UNL     1      23.657  33.575  54.279  0.00  0.00    +0.000 A 
ATOM     13  C   UNL     1      24.381  33.577  55.456  0.00  0.00    +0.000 A 
ATOM     14  C   UNL     1      23.709  33.955  56.618  0.00  0.00    +0.000 A 
ATOM     15  C   UNL     1      22.352  34.319  56.570  0.00  0.00    +0.000 A 
ATOM     16  C   UNL     1      21.647  34.319  55.360  0.00  0.00    +0.000 A 
ATOM     17  C   UNL     1      22.316  33.952  54.202  0.00  0.00    +0.000 A 
ATOM     18  C   UNL     1      21.763  33.887  52.806  0.00  0.00    +0.000 C 
ATOM     19  N   UNL     1      22.923  33.811  51.874  0.00  0.00    +0.000 NA
ENDBRANCH   8  19
ENDBRANCH   7   8
ENDBRANCH   1   7
BRANCH   4  20
ATOM     20  C   UNL     1      18.476  37.026  51.607  0.00  0.00    +0.000 C 
BRANCH  20  21
ATOM     21  C   UNL     1      17.697  38.289  51.395  0.00  0.00    +0.000 A 
ATOM     22  C   UNL     1      17.255  38.785  50.183  0.00  0.00    +0.000 A 
ATOM     23  N   UNL     1      16.585  39.955  50.412  0.00  0.00    +0.000 N 
ATOM     24  C   UNL     1      16.582  40.246  51.756  0.00  0.00    +0.000 A 
ATOM     25  C   UNL     1      16.023  41.335  52.441  0.00  0.00    +0.000 A 
ATOM     26  C   UNL     1      16.179  41.370  53.829  0.00  0.00    +0.000 A 
ATOM     27  C   UNL     1      16.865  40.357  54.488  0.00  0.00    +0.000 A 
ATOM     28  F   UNL     1      16.999  40.420  55.820  0.00  0.00    +0.000 F 
ATOM     29  C   UNL     1      17.418  39.278  53.800  0.00  0.00    +0.000 A 
ATOM     30  C   UNL     1      17.275  39.219  52.400  0.00  0.00    +0.000 A 
ATOM     31  H   UNL     1      16.154  40.529  49.700  0.00  0.00    +0.000 HD
ENDBRANCH  20  21
ENDBRANCH   4  20
TORSDOF 5
ENDMDL
