MODEL 1
REMARK VINA RESULT:    -6.779      0.000      0.000
REMARK INTER + INTRA:          -9.447
REMARK INTER:                  -8.818
REMARK INTRA:                  -0.628
REMARK UNBOUND:                -0.884
REMARK  Name = 
REMARK  8 active torsions:
REMARK  status: ('A' for Active; 'I' for Inactive)
REMARK    1  A    between atoms: C_1  and  C_2
REMARK    2  A    between atoms: C_2  and  C_3
REMARK    3  A    between atoms: C_4  and  C_5
REMARK    4  A    between atoms: C_5  and  C_7
REMARK    5  A    between atoms: C_8  and  O_9
REMARK    6  A    between atoms: C_10  and  C_11
REMARK    7  A    between atoms: N_12  and  C_13
REMARK    8  A    between atoms: C_16  and  C_17
REMARK                            x       y       z     vdW  Elec       q    Type
REMARK                         _______ _______ _______ _____ _____    ______ ____
ROOT
ATOM      1  C   UNL     1      13.271  45.905  45.811  0.00  0.00    +0.000 C 
ATOM      2  C   UNL     1      13.914  46.947  45.259  0.00  0.00    +0.000 C 
ENDROOT
BRANCH   1   4
ATOM      3  C   UNL     1      12.405  43.516  45.575  0.00  0.00    +0.000 C 
ATOM      4  C   UNL     1      13.560  44.489  45.571  0.00  0.00    +0.000 C 
ATOM      5  C   UNL     1      14.841  44.124  45.350  0.00  0.00    +0.000 C 
BRANCH   5   6
ATOM      6  C   UNL     1      15.307  42.756  45.111  0.00  0.00    +0.000 A 
ATOM      7  C   UNL     1      15.227  41.793  46.120  0.00  0.00    +0.000 A 
ATOM      8  C   UNL     1      15.678  40.493  45.887  0.00  0.00    +0.000 A 
ATOM      9  C   UNL     1      16.220  40.134  44.641  0.00  0.00    +0.000 A 
ATOM     10  C   UNL     1      16.678  38.830  44.392  0.00  0.00    +0.000 A 
ATOM     11  C   UNL     1      17.215  38.488  43.149  0.00  0.00    +0.000 A 
ATOM     12  C   UNL     1      17.299  39.444  42.141  0.00  0.00    +0.000 A 
ATOM     13  C   UNL     1      16.848  40.745  42.374  0.00  0.00    +0.000 A 
ATOM     14  C   UNL     1      16.305  41.105  43.618  0.00  0.00    +0.000 A 
ATOM     15  C   UNL     1      15.847  42.410  43.866  0.00  0.00    +0.000 A 
ENDBRANCH   5   6
ENDBRANCH   1   4
BRANCH   2  16
ATOM     16  C   UNL     1      13.618  48.384  45.521  0.00  0.00    +0.000 C 
ATOM     17  O   UNL     1      12.679  48.686  46.253  0.00  0.00    +0.000 OA
BRANCH  16  18
ATOM     18  C   UNL     1      14.471  49.406  44.915  0.00  0.00    +0.000 C 
ATOM     19  C   UNL     1      14.083  50.440  44.157  0.00  0.00    +0.000 C 
ATOM     20  C   UNL     1      15.231  51.260  43.638  0.00  0.00    +0.000 C 
ATOM     21  C   UNL     1      15.165  52.710  44.095  0.00  0.00    +0.000 C 
ATOM     22  N   UNL     1      16.341  50.541  44.218  0.00  0.00    +0.000 N 
ATOM     23  C   UNL     1      17.720  50.836  43.899  0.00  0.00    +0.000 C 
ATOM     24  C   UNL     1      15.940  49.436  44.951  0.00  0.00    +0.000 C 
ATOM     25  O   UNL     1      16.655  48.644  45.536  0.00  0.00    +0.000 OA
BRANCH  19  26
ATOM     26  O   UNL     1      12.781  50.735  43.833  0.00  0.00    +0.000 OA
ATOM     27  H   UNL     1      12.690  51.693  43.685  0.00  0.00    +0.000 HD
ENDBRANCH  19  26
ENDBRANCH  16  18
ENDBRANCH   2  16
TORSDOF 5
ENDMDL
MODEL 2
REMARK VINA RESULT:    -6.368      1.120      2.511
REMARK INTER + INTRA:          -8.928
REMARK INTER:                  -8.209
REMARK INTRA:                  -0.719
REMARK UNBOUND:                -0.884
REMARK  Name = 
REMARK  8 active torsions:
REMARK  status: ('A' for Active; 'I' for Inactive)
REMARK    1  A    between atoms: C_1  and  C_2
REMARK    2  A    between atoms: C_2  and  C_3
REMARK    3  A    between atoms: C_4  and  C_5
REMARK    4  A    between atoms: C_5  and  C_7
REMARK    5  A    between atoms: C_8  and  O_9
REMARK    6  A    between atoms: C_10  and  C_11
REMARK    7  A    between atoms: N_12  and  C_13
REMARK    8  A    between atoms: C_16  and  C_17
REMARK                            x       y       z     vdW  Elec       q    Type
REMARK                         _______ _______ _______ _____ _____    ______ ____
ROOT
ATOM      1  C   UNL     1      13.550  46.554  44.304  0.00  0.00    +0.000 C 
ATOM      2  C   UNL     1      14.448  47.443  44.758  0.00  0.00    +0.000 C 
ENDROOT
BRANCH   1   4
ATOM      3  C   UNL     1      12.639  44.274  43.611  0.00  0.00    +0.000 C 
ATOM      4  C   UNL     1      13.807  45.140  44.019  0.00  0.00    +0.000 C 
ATOM      5  C   UNL     1      15.072  44.683  44.128  0.00  0.00    +0.000 C 
BRANCH   5   6
ATOM      6  C   UNL     1      15.500  43.300  43.898  0.00  0.00    +0.000 A 
ATOM      7  C   UNL     1      15.874  42.878  42.620  0.00  0.00    +0.000 A 
ATOM      8  C   UNL     1      16.275  41.557  42.407  0.00  0.00    +0.000 A 
ATOM      9  C   UNL     1      16.307  40.638  43.467  0.00  0.00    +0.000 A 
ATOM     10  C   UNL     1      16.708  39.307  43.269  0.00  0.00    +0.000 A 
ATOM     11  C   UNL     1      16.734  38.402  44.332  0.00  0.00    +0.000 A 
ATOM     12  C   UNL     1      16.360  38.818  45.607  0.00  0.00    +0.000 A 
ATOM     13  C   UNL     1      15.959  40.138  45.821  0.00  0.00    +0.000 A 
ATOM     14  C   UNL     1      15.927  41.060  44.762  0.00  0.00    +0.000 A 
ATOM     15  C   UNL     1      15.526  42.392  44.962  0.00  0.00    +0.000 A 
ENDBRANCH   5   6
ENDBRANCH   1   4
BRANCH   2  16
ATOM     16  C   UNL     1      14.172  48.878  45.056  0.00  0.00    +0.000 C 
ATOM     17  O   UNL     1      13.226  49.176  45.780  0.00  0.00    +0.000 OA
BRANCH  16  18
ATOM     18  C   UNL     1      15.052  49.901  44.492  0.00  0.00    +0.000 C 
ATOM     19  C   UNL     1      16.351  50.090  44.759  0.00  0.00    +0.000 C 
ATOM     20  C   UNL     1      16.936  51.282  44.055  0.00  0.00    +0.000 C 
ATOM     21  C   UNL     1      18.087  50.907  43.131  0.00  0.00    +0.000 C 
ATOM     22  N   UNL     1      15.774  51.750  43.336  0.00  0.00    +0.000 N 
ATOM     23  C   UNL     1      15.755  52.993  42.600  0.00  0.00    +0.000 C 
ATOM     24  C   UNL     1      14.646  50.985  43.586  0.00  0.00    +0.000 C 
ATOM     25  O   UNL     1      13.529  51.153  43.131  0.00  0.00    +0.000 OA
BRANCH  19  26
ATOM     26  O   UNL     1      17.101  49.315  45.611  0.00  0.00    +0.000 OA
ATOM     27  H   UNL     1      18.000  49.210  45.253  0.00  0.00    +0.000 HD
ENDBRANCH  19  26
ENDBRANCH  16  18
ENDBRANCH   2  16
TORSDOF 5
ENDMDL
MODEL 3
REMARK VINA RESULT:    -5.846      5.938      8.467
REMARK INTER + INTRA:          -8.268
REMARK INTER:                  -7.384
REMARK INTRA:                  -0.884
REMARK UNBOUND:                -0.884
REMARK  Name = 
REMARK  8 active torsions:
REMARK  status: ('A' for Active; 'I' for Inactive)
REMARK    1  A    between atoms: C_1  and  C_2
REMARK    2  A    between atoms: C_2  and  C_3
REMARK    3  A    between atoms: C_4  and  C_5
REMARK    4  A    between atoms: C_5  and  C_7
REMARK    5  A    between atoms: C_8  and  O_9
REMARK    6  A    between atoms: C_10  and  C_11
REMARK    7  A    between atoms: N_12  and  C_13
REMARK    8  A    between atoms: C_16  and  C_17
REMARK                            x       y       z     vdW  Elec       q    Type
REMARK                         _______ _______ _______ _____ _____    ______ ____
ROOT
ATOM      1  C   UNL     1      14.014  40.572  49.256  0.00  0.00    +0.000 C 
ATOM      2  C   UNL     1      15.100  40.561  50.047  0.00  0.00    +0.000 C 
ENDROOT
BRANCH   1   4
ATOM      3  C   UNL     1      12.994  39.947  47.003  0.00  0.00    +0.000 C 
ATOM      4  C   UNL     1      14.011  40.728  47.799  0.00  0.00    +0.000 C 
ATOM      5  C   UNL     1      14.910  41.566  47.242  0.00  0.00    +0.000 C 
BRANCH   5   6
ATOM      6  C   UNL     1      15.056  41.825  45.807  0.00  0.00    +0.000 A 
ATOM      7  C   UNL     1      15.857  40.999  45.016  0.00  0.00    +0.000 A 
ATOM      8  C   UNL     1      15.996  41.256  43.650  0.00  0.00    +0.000 A 
ATOM      9  C   UNL     1      15.338  42.344  43.054  0.00  0.00    +0.000 A 
ATOM     10  C   UNL     1      15.468  42.615  41.683  0.00  0.00    +0.000 A 
ATOM     11  C   UNL     1      14.809  43.701  41.103  0.00  0.00    +0.000 A 
ATOM     12  C   UNL     1      14.011  44.528  41.888  0.00  0.00    +0.000 A 
ATOM     13  C   UNL     1      13.871  44.272  43.254  0.00  0.00    +0.000 A 
ATOM     14  C   UNL     1      14.528  43.185  43.852  0.00  0.00    +0.000 A 
ATOM     15  C   UNL     1      14.396  42.914  45.224  0.00  0.00    +0.000 A 
ENDBRANCH   5   6
ENDBRANCH   1   4
BRANCH   2  16
ATOM     16  C   UNL     1      15.092  40.390  51.528  0.00  0.00    +0.000 C 
ATOM     17  O   UNL     1      15.395  39.303  52.014  0.00  0.00    +0.000 OA
BRANCH  16  18
ATOM     18  C   UNL     1      14.741  41.532  52.372  0.00  0.00    +0.000 C 
ATOM     19  C   UNL     1      15.580  42.330  53.045  0.00  0.00    +0.000 C 
ATOM     20  C   UNL     1      14.877  43.369  53.873  0.00  0.00    +0.000 C 
ATOM     21  C   UNL     1      15.253  44.788  53.471  0.00  0.00    +0.000 C 
ATOM     22  N   UNL     1      13.502  43.048  53.571  0.00  0.00    +0.000 N 
ATOM     23  C   UNL     1      12.385  43.670  54.245  0.00  0.00    +0.000 C 
ATOM     24  C   UNL     1      13.379  41.964  52.717  0.00  0.00    +0.000 C 
ATOM     25  O   UNL     1      12.348  41.466  52.305  0.00  0.00    +0.000 OA
BRANCH  19  26
ATOM     26  O   UNL     1      16.950  42.222  53.033  0.00  0.00    +0.000 OA
ATOM     27  H   UNL     1      17.293  42.304  53.940  0.00  0.00    +0.000 HD
ENDBRANCH  19  26
ENDBRANCH  16  18
ENDBRANCH   2  16
TORSDOF 5
ENDMDL
