MODEL 1
REMARK VINA RESULT:    -6.895      0.000      0.000
REMARK INTER + INTRA:          -9.158
REMARK INTER:                  -8.508
REMARK INTRA:                  -0.650
REMARK UNBOUND:                -0.650
REMARK  Name = 
REMARK  4 active torsions:
REMARK  status: ('A' for Active; 'I' for Inactive)
REMARK    1  A    between atoms: C_1  and  C_9
REMARK    2  A    between atoms: N_2  and  N_3
REMARK    3  A    between atoms: C_12  and  C_13
REMARK    4  A    between atoms: N_14  and  N_15
REMARK                            x       y       z     vdW  Elec       q    Type
REMARK                         _______ _______ _______ _____ _____    ______ ____
ROOT
ATOM      1  C   UNL     1      13.834  49.175  45.419  0.00  0.00    +0.000 A 
ATOM      2  C   UNL     1      13.137  50.327  45.803  0.00  0.00    +0.000 A 
ATOM      3  C   UNL     1      11.947  50.219  46.505  0.00  0.00    +0.000 A 
ATOM      4  C   UNL     1      11.435  48.956  46.820  0.00  0.00    +0.000 A 
ATOM      5  C   UNL     1      12.141  47.765  46.488  0.00  0.00    +0.000 A 
ATOM      6  C   UNL     1      11.700  46.470  46.861  0.00  0.00    +0.000 A 
ATOM      7  C   UNL     1      12.407  45.300  46.546  0.00  0.00    +0.000 A 
ATOM      8  C   UNL     1      11.938  44.029  46.922  0.00  0.00    +0.000 A 
ATOM      9  C   UNL     1      12.661  42.878  46.606  0.00  0.00    +0.000 A 
ATOM     10  C   UNL     1      13.863  42.984  45.913  0.00  0.00    +0.000 A 
ATOM     11  C   UNL     1      14.340  44.241  45.537  0.00  0.00    +0.000 A 
ATOM     12  C   UNL     1      13.617  45.407  45.846  0.00  0.00    +0.000 A 
ATOM     13  C   UNL     1      14.079  46.683  45.481  0.00  0.00    +0.000 A 
ATOM     14  C   UNL     1      13.367  47.876  45.775  0.00  0.00    +0.000 A 
ENDROOT
BRANCH   1  15
ATOM     15  C   UNL     1      15.059  49.368  44.604  0.00  0.00    +0.000 C 
ATOM     16  N   UNL     1      16.059  50.082  45.024  0.00  0.00    +0.000 NA
BRANCH  16  17
ATOM     17  N   UNL     1      17.139  50.146  44.178  0.00  0.00    +0.000 N 
ATOM     18  C   UNL     1      18.048  51.170  44.083  0.00  0.00    +0.000 C 
ATOM     19  N   UNL     1      18.196  52.212  44.855  0.00  0.00    +0.000 NA
ATOM     20  C   UNL     1      19.314  52.972  44.238  0.00  0.00    +0.000 C 
ATOM     21  C   UNL     1      19.969  52.025  43.232  0.00  0.00    +0.000 C 
ATOM     22  N   UNL     1      18.930  51.032  43.046  0.00  0.00    +0.000 N 
ATOM     23  H   UNL     1      16.936  49.754  43.262  0.00  0.00    +0.000 HD
ATOM     24  H   UNL     1      19.269  50.085  42.920  0.00  0.00    +0.000 HD
ENDBRANCH  16  17
ENDBRANCH   1  15
BRANCH   4  25
ATOM     25  C   UNL     1      10.128  48.982  47.518  0.00  0.00    +0.000 C 
ATOM     26  N   UNL     1      10.024  48.977  48.810  0.00  0.00    +0.000 NA
BRANCH  26  27
ATOM     27  N   UNL     1       8.742  49.021  49.294  0.00  0.00    +0.000 N 
ATOM     28  C   UNL     1       8.008  47.945  49.729  0.00  0.00    +0.000 C 
ATOM     29  N   UNL     1       8.406  46.721  49.942  0.00  0.00    +0.000 NA
ATOM     30  C   UNL     1       7.176  46.007  50.372  0.00  0.00    +0.000 C 
ATOM     31  C   UNL     1       6.142  47.088  50.686  0.00  0.00    +0.000 C 
ATOM     32  N   UNL     1       6.698  48.234  49.996  0.00  0.00    +0.000 N 
ATOM     33  H   UNL     1       8.156  49.672  48.778  0.00  0.00    +0.000 HD
ATOM     34  H   UNL     1       6.560  49.119  50.469  0.00  0.00    +0.000 HD
ENDBRANCH  26  27
ENDBRANCH   4  25
TORSDOF 4
ENDMDL
MODEL 2
REMARK VINA RESULT:    -6.881      7.709     10.493
REMARK INTER + INTRA:          -9.140
REMARK INTER:                  -8.591
REMARK INTRA:                  -0.549
REMARK UNBOUND:                -0.650
REMARK  Name = 
REMARK  4 active torsions:
REMARK  status: ('A' for Active; 'I' for Inactive)
REMARK    1  A    between atoms: C_1  and  C_9
REMARK    2  A    between atoms: N_2  and  N_3
REMARK    3  A    between atoms: C_12  and  C_13
REMARK    4  A    between atoms: N_14  and  N_15
REMARK                            x       y       z     vdW  Elec       q    Type
REMARK                         _______ _______ _______ _____ _____    ______ ____
ROOT
ATOM      1  C   UNL     1      16.537  40.035  43.772  0.00  0.00    +0.000 A 
ATOM      2  C   UNL     1      16.778  38.848  44.475  0.00  0.00    +0.000 A 
ATOM      3  C   UNL     1      16.402  38.738  45.804  0.00  0.00    +0.000 A 
ATOM      4  C   UNL     1      15.791  39.819  46.449  0.00  0.00    +0.000 A 
ATOM      5  C   UNL     1      15.487  41.022  45.752  0.00  0.00    +0.000 A 
ATOM      6  C   UNL     1      14.794  42.110  46.344  0.00  0.00    +0.000 A 
ATOM      7  C   UNL     1      14.481  43.287  45.649  0.00  0.00    +0.000 A 
ATOM      8  C   UNL     1      13.802  44.352  46.267  0.00  0.00    +0.000 A 
ATOM      9  C   UNL     1      13.493  45.512  45.555  0.00  0.00    +0.000 A 
ATOM     10  C   UNL     1      13.856  45.620  44.217  0.00  0.00    +0.000 A 
ATOM     11  C   UNL     1      14.529  44.568  43.592  0.00  0.00    +0.000 A 
ATOM     12  C   UNL     1      14.850  43.397  44.300  0.00  0.00    +0.000 A 
ATOM     13  C   UNL     1      15.523  42.324  43.691  0.00  0.00    +0.000 A 
ATOM     14  C   UNL     1      15.864  41.133  44.385  0.00  0.00    +0.000 A 
ENDROOT
BRANCH   1  15
ATOM     15  C   UNL     1      17.036  40.106  42.376  0.00  0.00    +0.000 C 
ATOM     16  N   UNL     1      17.812  39.193  41.876  0.00  0.00    +0.000 NA
BRANCH  16  17
ATOM     17  N   UNL     1      18.169  39.373  40.562  0.00  0.00    +0.000 N 
ATOM     18  C   UNL     1      19.259  38.834  39.926  0.00  0.00    +0.000 C 
ATOM     19  N   UNL     1      20.095  37.927  40.353  0.00  0.00    +0.000 NA
ATOM     20  C   UNL     1      21.072  37.775  39.245  0.00  0.00    +0.000 C 
ATOM     21  C   UNL     1      20.453  38.470  38.032  0.00  0.00    +0.000 C 
ATOM     22  N   UNL     1      19.449  39.308  38.657  0.00  0.00    +0.000 N 
ATOM     23  H   UNL     1      17.991  40.321  40.240  0.00  0.00    +0.000 HD
ATOM     24  H   UNL     1      18.592  39.407  38.124  0.00  0.00    +0.000 HD
ENDBRANCH  16  17
ENDBRANCH   1  15
BRANCH   4  25
ATOM     25  C   UNL     1      15.496  39.589  47.882  0.00  0.00    +0.000 C 
ATOM     26  N   UNL     1      16.284  38.914  48.659  0.00  0.00    +0.000 NA
BRANCH  26  27
ATOM     27  N   UNL     1      15.871  38.810  49.963  0.00  0.00    +0.000 N 
ATOM     28  C   UNL     1      16.595  39.182  51.069  0.00  0.00    +0.000 C 
ATOM     29  N   UNL     1      17.711  39.854  51.123  0.00  0.00    +0.000 NA
ATOM     30  C   UNL     1      18.025  39.925  52.573  0.00  0.00    +0.000 C 
ATOM     31  C   UNL     1      16.754  39.496  53.307  0.00  0.00    +0.000 C 
ATOM     32  N   UNL     1      16.028  38.812  52.257  0.00  0.00    +0.000 N 
ATOM     33  H   UNL     1      15.360  37.948  50.140  0.00  0.00    +0.000 HD
ATOM     34  H   UNL     1      15.023  38.934  52.291  0.00  0.00    +0.000 HD
ENDBRANCH  26  27
ENDBRANCH   4  25
TORSDOF 4
ENDMDL
MODEL 3
REMARK VINA RESULT:    -6.789      7.704     12.570
REMARK INTER + INTRA:          -9.026
REMARK INTER:                  -8.479
REMARK INTRA:                  -0.548
REMARK UNBOUND:                -0.650
REMARK  Name = 
REMARK  4 active torsions:
REMARK  status: ('A' for Active; 'I' for Inactive)
REMARK    1  A    between atoms: C_1  and  C_9
REMARK    2  A    between atoms: N_2  and  N_3
REMARK    3  A    between atoms: C_12  and  C_13
REMARK    4  A    between atoms: N_14  and  N_15
REMARK                            x       y       z     vdW  Elec       q    Type
REMARK                         _______ _______ _______ _____ _____    ______ ____
ROOT
ATOM      1  C   UNL     1      15.908  39.785  46.351  0.00  0.00    +0.000 A 
ATOM      2  C   UNL     1      16.648  38.777  45.720  0.00  0.00    +0.000 A 
ATOM      3  C   UNL     1      17.012  38.910  44.389  0.00  0.00    +0.000 A 
ATOM      4  C   UNL     1      16.628  40.048  43.672  0.00  0.00    +0.000 A 
ATOM      5  C   UNL     1      15.918  41.114  44.294  0.00  0.00    +0.000 A 
ATOM      6  C   UNL     1      15.583  42.320  43.627  0.00  0.00    +0.000 A 
ATOM      7  C   UNL     1      14.897  43.374  44.249  0.00  0.00    +0.000 A 
ATOM      8  C   UNL     1      14.571  44.553  43.557  0.00  0.00    +0.000 A 
ATOM      9  C   UNL     1      13.896  45.594  44.197  0.00  0.00    +0.000 A 
ATOM     10  C   UNL     1      13.542  45.469  45.536  0.00  0.00    +0.000 A 
ATOM     11  C   UNL     1      13.864  44.303  46.234  0.00  0.00    +0.000 A 
ATOM     12  C   UNL     1      14.539  43.246  45.599  0.00  0.00    +0.000 A 
ATOM     13  C   UNL     1      14.876  42.066  46.282  0.00  0.00    +0.000 A 
ATOM     14  C   UNL     1      15.552  40.981  45.663  0.00  0.00    +0.000 A 
ENDROOT
BRANCH   1  15
ATOM     15  C   UNL     1      15.491  39.537  47.754  0.00  0.00    +0.000 C 
ATOM     16  N   UNL     1      16.305  39.042  48.636  0.00  0.00    +0.000 NA
BRANCH  16  17
ATOM     17  N   UNL     1      15.791  38.897  49.901  0.00  0.00    +0.000 N 
ATOM     18  C   UNL     1      16.392  39.266  51.080  0.00  0.00    +0.000 C 
ATOM     19  N   UNL     1      17.480  39.962  51.264  0.00  0.00    +0.000 NA
ATOM     20  C   UNL     1      17.642  40.009  52.740  0.00  0.00    +0.000 C 
ATOM     21  C   UNL     1      16.312  39.538  53.330  0.00  0.00    +0.000 C 
ATOM     22  N   UNL     1      15.713  38.862  52.197  0.00  0.00    +0.000 N 
ATOM     23  H   UNL     1      15.275  38.028  50.013  0.00  0.00    +0.000 HD
ATOM     24  H   UNL     1      14.707  38.968  52.125  0.00  0.00    +0.000 HD
ENDBRANCH  16  17
ENDBRANCH   1  15
BRANCH   4  25
ATOM     25  C   UNL     1      17.028  40.036  42.246  0.00  0.00    +0.000 C 
ATOM     26  N   UNL     1      17.795  39.121  41.742  0.00  0.00    +0.000 NA
BRANCH  26  27
ATOM     27  N   UNL     1      18.055  39.248  40.401  0.00  0.00    +0.000 N 
ATOM     28  C   UNL     1      19.180  38.802  39.753  0.00  0.00    +0.000 C 
ATOM     29  N   UNL     1      20.131  38.034  40.208  0.00  0.00    +0.000 NA
ATOM     30  C   UNL     1      21.084  37.920  39.074  0.00  0.00    +0.000 C 
ATOM     31  C   UNL     1      20.348  38.453  37.844  0.00  0.00    +0.000 C 
ATOM     32  N   UNL     1      19.273  39.209  38.451  0.00  0.00    +0.000 N 
ATOM     33  H   UNL     1      17.761  40.149  40.034  0.00  0.00    +0.000 HD
ATOM     34  H   UNL     1      18.395  39.176  37.945  0.00  0.00    +0.000 HD
ENDBRANCH  26  27
ENDBRANCH   4  25
TORSDOF 4
ENDMDL
