MODEL 1
REMARK VINA RESULT:    -6.550      0.000      0.000
REMARK INTER + INTRA:          -9.070
REMARK INTER:                  -8.316
REMARK INTRA:                  -0.754
REMARK UNBOUND:                -0.605
REMARK  Name = 
REMARK  6 active torsions:
REMARK  status: ('A' for Active; 'I' for Inactive)
REMARK    1  A    between atoms: C_1  and  C_2
REMARK    2  A    between atoms: C_7  and  C_8
REMARK    3  A    between atoms: N_15  and  C_16
REMARK    4  A    between atoms: C_19  and  O_20
REMARK    5  A    between atoms: O_20  and  C_21
REMARK    6  A    between atoms: C_21  and  C_22
REMARK                            x       y       z     vdW  Elec       q    Type
REMARK                         _______ _______ _______ _____ _____    ______ ____
ROOT
ATOM      1  C   UNL     1      16.531  39.791  43.256  0.00  0.00    +0.000 C 
ATOM      2  C   UNL     1      16.670  39.367  44.696  0.00  0.00    +0.000 A 
ATOM      3  C   UNL     1      17.400  38.206  44.993  0.00  0.00    +0.000 A 
ATOM      4  C   UNL     1      17.531  37.814  46.316  0.00  0.00    +0.000 A 
ATOM      5  C   UNL     1      16.985  38.563  47.359  0.00  0.00    +0.000 A 
ATOM      6  C   UNL     1      16.237  39.696  47.086  0.00  0.00    +0.000 A 
ATOM      7  C   UNL     1      16.082  40.120  45.747  0.00  0.00    +0.000 A 
ATOM      8  N   UNL     1      17.270  37.937  48.586  0.00  0.00    +0.000 N 
ATOM      9  C   UNL     1      16.982  38.303  49.888  0.00  0.00    +0.000 C 
ATOM     10  O   UNL     1      16.953  37.465  50.787  0.00  0.00    +0.000 OA
ATOM     11  N   UNL     1      16.817  39.655  50.083  0.00  0.00    +0.000 N 
ATOM     12  C   UNL     1      17.806  36.598  48.298  0.00  0.00    +0.000 C 
ATOM     13  C   UNL     1      18.260  36.613  46.837  0.00  0.00    +0.000 C 
ATOM     14  H   UNL     1      17.271  40.228  49.385  0.00  0.00    +0.000 HD
ENDROOT
BRANCH  11  15
ATOM     15  C   UNL     1      16.399  40.302  51.262  0.00  0.00    +0.000 A 
ATOM     16  C   UNL     1      15.084  40.672  51.529  0.00  0.00    +0.000 A 
ATOM     17  C   UNL     1      14.778  41.324  52.725  0.00  0.00    +0.000 A 
ATOM     18  C   UNL     1      15.803  41.592  53.616  0.00  0.00    +0.000 A 
ATOM     19  N   UNL     1      17.092  41.268  53.390  0.00  0.00    +0.000 NA
ATOM     20  C   UNL     1      17.355  40.633  52.222  0.00  0.00    +0.000 A 
BRANCH  18  21
ATOM     21  O   UNL     1      15.450  42.249  54.776  0.00  0.00    +0.000 OA
BRANCH  21  22
ATOM     22  C   UNL     1      14.749  41.410  55.699  0.00  0.00    +0.000 C 
BRANCH  22  23
ATOM     23  C   UNL     1      15.724  40.878  56.727  0.00  0.00    +0.000 A 
ATOM     24  C   UNL     1      16.212  39.575  56.623  0.00  0.00    +0.000 A 
ATOM     25  C   UNL     1      17.093  39.103  57.592  0.00  0.00    +0.000 A 
ATOM     26  C   UNL     1      17.462  39.938  58.640  0.00  0.00    +0.000 A 
ATOM     27  C   UNL     1      16.930  41.215  58.676  0.00  0.00    +0.000 A 
ATOM     28  N   UNL     1      16.071  41.700  57.752  0.00  0.00    +0.000 NA
ENDBRANCH  22  23
ENDBRANCH  21  22
ENDBRANCH  18  21
ENDBRANCH  11  15
BRANCH   7  29
ATOM     29  C   UNL     1      15.264  41.364  45.462  0.00  0.00    +0.000 C 
ATOM     30  F   UNL     1      14.124  41.099  44.765  0.00  0.00    +0.000 F 
ATOM     31  F   UNL     1      14.874  42.008  46.596  0.00  0.00    +0.000 F 
ATOM     32  F   UNL     1      15.935  42.293  44.721  0.00  0.00    +0.000 F 
ENDBRANCH   7  29
TORSDOF 5
ENDMDL
MODEL 2
REMARK VINA RESULT:    -6.238      6.437      8.349
REMARK INTER + INTRA:          -8.666
REMARK INTER:                  -8.061
REMARK INTRA:                  -0.605
REMARK UNBOUND:                -0.605
REMARK  Name = 
REMARK  6 active torsions:
REMARK  status: ('A' for Active; 'I' for Inactive)
REMARK    1  A    between atoms: C_1  and  C_2
REMARK    2  A    between atoms: C_7  and  C_8
REMARK    3  A    between atoms: N_15  and  C_16
REMARK    4  A    between atoms: C_19  and  O_20
REMARK    5  A    between atoms: O_20  and  C_21
REMARK    6  A    between atoms: C_21  and  C_22
REMARK                            x       y       z     vdW  Elec       q    Type
REMARK                         _______ _______ _______ _____ _____    ______ ____
ROOT
ATOM      1  C   UNL     1      27.879  34.964  47.368  0.00  0.00    +0.000 C 
ATOM      2  C   UNL     1      26.690  34.737  48.265  0.00  0.00    +0.000 A 
ATOM      3  C   UNL     1      26.854  33.963  49.424  0.00  0.00    +0.000 A 
ATOM      4  C   UNL     1      25.762  33.753  50.252  0.00  0.00    +0.000 A 
ATOM      5  C   UNL     1      24.517  34.321  49.980  0.00  0.00    +0.000 A 
ATOM      6  C   UNL     1      24.326  35.065  48.828  0.00  0.00    +0.000 A 
ATOM      7  C   UNL     1      25.418  35.293  47.960  0.00  0.00    +0.000 A 
ATOM      8  N   UNL     1      23.602  33.946  50.980  0.00  0.00    +0.000 N 
ATOM      9  C   UNL     1      22.273  34.277  51.174  0.00  0.00    +0.000 C 
ATOM     10  O   UNL     1      21.537  33.563  51.853  0.00  0.00    +0.000 OA
ATOM     11  N   UNL     1      21.892  35.479  50.623  0.00  0.00    +0.000 N 
ATOM     12  C   UNL     1      24.224  32.889  51.791  0.00  0.00    +0.000 C 
ATOM     13  C   UNL     1      25.728  32.960  51.523  0.00  0.00    +0.000 C 
ATOM     14  H   UNL     1      22.656  36.124  50.479  0.00  0.00    +0.000 HD
ENDROOT
BRANCH  11  15
ATOM     15  C   UNL     1      20.590  36.011  50.552  0.00  0.00    +0.000 A 
ATOM     16  C   UNL     1      19.718  35.810  49.486  0.00  0.00    +0.000 A 
ATOM     17  C   UNL     1      18.451  36.397  49.510  0.00  0.00    +0.000 A 
ATOM     18  C   UNL     1      18.098  37.174  50.600  0.00  0.00    +0.000 A 
ATOM     19  N   UNL     1      18.918  37.409  51.644  0.00  0.00    +0.000 NA
ATOM     20  C   UNL     1      20.138  36.822  51.593  0.00  0.00    +0.000 A 
BRANCH  18  21
ATOM     21  O   UNL     1      16.842  37.740  50.567  0.00  0.00    +0.000 OA
BRANCH  21  22
ATOM     22  C   UNL     1      16.278  37.918  51.870  0.00  0.00    +0.000 C 
BRANCH  22  23
ATOM     23  C   UNL     1      16.255  39.394  52.205  0.00  0.00    +0.000 A 
ATOM     24  C   UNL     1      15.888  40.329  51.237  0.00  0.00    +0.000 A 
ATOM     25  C   UNL     1      15.894  41.682  51.565  0.00  0.00    +0.000 A 
ATOM     26  C   UNL     1      16.269  42.069  52.845  0.00  0.00    +0.000 A 
ATOM     27  C   UNL     1      16.626  41.082  53.747  0.00  0.00    +0.000 A 
ATOM     28  N   UNL     1      16.633  39.762  53.458  0.00  0.00    +0.000 NA
ENDBRANCH  22  23
ENDBRANCH  21  22
ENDBRANCH  18  21
ENDBRANCH  11  15
BRANCH   7  29
ATOM     29  C   UNL     1      25.198  36.112  46.704  0.00  0.00    +0.000 C 
ATOM     30  F   UNL     1      25.699  35.513  45.588  0.00  0.00    +0.000 F 
ATOM     31  F   UNL     1      23.880  36.342  46.451  0.00  0.00    +0.000 F 
ATOM     32  F   UNL     1      25.787  37.342  46.751  0.00  0.00    +0.000 F 
ENDBRANCH   7  29
TORSDOF 5
ENDMDL
MODEL 3
REMARK VINA RESULT:    -6.156      1.948      3.142
REMARK INTER + INTRA:          -8.561
REMARK INTER:                  -7.788
REMARK INTRA:                  -0.773
REMARK UNBOUND:                -0.605
REMARK  Name = 
REMARK  6 active torsions:
REMARK  status: ('A' for Active; 'I' for Inactive)
REMARK    1  A    between atoms: C_1  and  C_2
REMARK    2  A    between atoms: C_7  and  C_8
REMARK    3  A    between atoms: N_15  and  C_16
REMARK    4  A    between atoms: C_19  and  O_20
REMARK    5  A    between atoms: O_20  and  C_21
REMARK    6  A    between atoms: C_21  and  C_22
REMARK                            x       y       z     vdW  Elec       q    Type
REMARK                         _______ _______ _______ _____ _____    ______ ____
ROOT
ATOM      1  C   UNL     1      15.297  42.032  42.934  0.00  0.00    +0.000 C 
ATOM      2  C   UNL     1      15.665  41.101  44.060  0.00  0.00    +0.000 A 
ATOM      3  C   UNL     1      16.415  39.951  43.771  0.00  0.00    +0.000 A 
ATOM      4  C   UNL     1      16.756  39.093  44.805  0.00  0.00    +0.000 A 
ATOM      5  C   UNL     1      16.402  39.362  46.127  0.00  0.00    +0.000 A 
ATOM      6  C   UNL     1      15.638  40.476  46.431  0.00  0.00    +0.000 A 
ATOM      7  C   UNL     1      15.270  41.369  45.399  0.00  0.00    +0.000 A 
ATOM      8  N   UNL     1      16.876  38.332  46.959  0.00  0.00    +0.000 N 
ATOM      9  C   UNL     1      16.812  38.162  48.330  0.00  0.00    +0.000 C 
ATOM     10  O   UNL     1      16.919  37.045  48.833  0.00  0.00    +0.000 OA
ATOM     11  N   UNL     1      16.704  39.329  49.051  0.00  0.00    +0.000 N 
ATOM     12  C   UNL     1      17.335  37.231  46.100  0.00  0.00    +0.000 C 
ATOM     13  C   UNL     1      17.542  37.821  44.704  0.00  0.00    +0.000 C 
ATOM     14  H   UNL     1      17.045  40.145  48.563  0.00  0.00    +0.000 HD
ENDROOT
BRANCH  11  15
ATOM     15  C   UNL     1      16.496  39.459  50.438  0.00  0.00    +0.000 A 
ATOM     16  C   UNL     1      17.515  39.621  51.371  0.00  0.00    +0.000 A 
ATOM     17  C   UNL     1      17.201  39.726  52.727  0.00  0.00    +0.000 A 
ATOM     18  C   UNL     1      15.871  39.657  53.109  0.00  0.00    +0.000 A 
ATOM     19  N   UNL     1      14.855  39.482  52.241  0.00  0.00    +0.000 NA
ATOM     20  C   UNL     1      15.194  39.389  50.932  0.00  0.00    +0.000 A 
BRANCH  18  21
ATOM     21  O   UNL     1      15.616  39.753  54.460  0.00  0.00    +0.000 OA
BRANCH  21  22
ATOM     22  C   UNL     1      16.042  40.998  55.020  0.00  0.00    +0.000 C 
BRANCH  22  23
ATOM     23  C   UNL     1      15.104  42.095  54.564  0.00  0.00    +0.000 A 
ATOM     24  C   UNL     1      15.588  43.168  53.815  0.00  0.00    +0.000 A 
ATOM     25  C   UNL     1      14.708  44.173  53.424  0.00  0.00    +0.000 A 
ATOM     26  C   UNL     1      13.371  44.087  53.792  0.00  0.00    +0.000 A 
ATOM     27  C   UNL     1      12.969  42.995  54.541  0.00  0.00    +0.000 A 
ATOM     28  N   UNL     1      13.800  42.005  54.937  0.00  0.00    +0.000 NA
ENDBRANCH  22  23
ENDBRANCH  21  22
ENDBRANCH  18  21
ENDBRANCH  11  15
BRANCH   7  29
ATOM     29  C   UNL     1      14.437  42.587  45.745  0.00  0.00    +0.000 C 
ATOM     30  F   UNL     1      15.139  43.750  45.655  0.00  0.00    +0.000 F 
ATOM     31  F   UNL     1      13.356  42.732  44.930  0.00  0.00    +0.000 F 
ATOM     32  F   UNL     1      13.942  42.559  47.016  0.00  0.00    +0.000 F 
ENDBRANCH   7  29
TORSDOF 5
ENDMDL
