MODEL 1
REMARK VINA RESULT:    -6.630      0.000      0.000
REMARK INTER + INTRA:          -9.081
REMARK INTER:                  -8.371
REMARK INTRA:                  -0.710
REMARK UNBOUND:                -0.901
REMARK  Name = 
REMARK  6 active torsions:
REMARK  status: ('A' for Active; 'I' for Inactive)
REMARK    1  A    between atoms: C_1  and  O_2
REMARK    2  A    between atoms: O_2  and  C_3
REMARK    3  A    between atoms: C_5  and  C_6
REMARK    4  A    between atoms: C_9  and  O_10
REMARK    5  A    between atoms: O_10  and  C_11
REMARK    6  A    between atoms: N_26  and  C_27
REMARK                            x       y       z     vdW  Elec       q    Type
REMARK                         _______ _______ _______ _____ _____    ______ ____
ROOT
ATOM      1  C   UNL     1      11.610  45.878  46.947  0.00  0.00    +0.000 A 
ATOM      2  C   UNL     1      12.381  44.775  46.555  0.00  0.00    +0.000 A 
ATOM      3  C   UNL     1      13.569  44.936  45.843  0.00  0.00    +0.000 A 
ATOM      4  C   UNL     1      13.975  46.236  45.525  0.00  0.00    +0.000 A 
ATOM      5  C   UNL     1      13.242  47.393  45.889  0.00  0.00    +0.000 A 
ATOM      6  C   UNL     1      13.689  48.708  45.542  0.00  0.00    +0.000 A 
ATOM      7  C   UNL     1      14.875  49.009  44.820  0.00  0.00    +0.000 A 
ATOM      8  C   UNL     1      15.254  50.320  44.516  0.00  0.00    +0.000 A 
ATOM      9  C   UNL     1      14.460  51.380  44.922  0.00  0.00    +0.000 A 
ATOM     10  C   UNL     1      13.292  51.124  45.630  0.00  0.00    +0.000 A 
ATOM     11  C   UNL     1      12.908  49.804  45.938  0.00  0.00    +0.000 A 
ATOM     12  C   UNL     1      11.741  49.573  46.643  0.00  0.00    +0.000 A 
ATOM     13  N   UNL     1      11.312  48.335  46.973  0.00  0.00    +0.000 N 
ATOM     14  C   UNL     1      10.038  48.270  47.730  0.00  0.00    +0.000 C 
ATOM     15  C   UNL     1      12.023  47.209  46.621  0.00  0.00    +0.000 A 
ENDROOT
BRANCH   3  16
ATOM     16  C   UNL     1      14.373  43.772  45.440  0.00  0.00    +0.000 A 
ATOM     17  C   UNL     1      14.366  42.591  46.195  0.00  0.00    +0.000 A 
ATOM     18  C   UNL     1      15.133  41.487  45.805  0.00  0.00    +0.000 A 
ATOM     19  C   UNL     1      15.924  41.535  44.655  0.00  0.00    +0.000 A 
ATOM     20  C   UNL     1      15.940  42.704  43.897  0.00  0.00    +0.000 A 
ATOM     21  C   UNL     1      15.172  43.808  44.286  0.00  0.00    +0.000 A 
BRANCH  19  22
ATOM     22  O   UNL     1      16.617  40.387  44.399  0.00  0.00    +0.000 OA
BRANCH  22  23
ATOM     23  C   UNL     1      16.680  39.936  43.057  0.00  0.00    +0.000 C 
ATOM     24  F   UNL     1      17.486  40.729  42.317  0.00  0.00    +0.000 F 
ATOM     25  F   UNL     1      17.187  38.685  43.041  0.00  0.00    +0.000 F 
ATOM     26  F   UNL     1      15.451  39.901  42.500  0.00  0.00    +0.000 F 
ENDBRANCH  22  23
ENDBRANCH  19  22
ENDBRANCH   3  16
BRANCH   1  28
ATOM     27  C   UNL     1       9.974  44.403  47.936  0.00  0.00    +0.000 C 
ATOM     28  O   UNL     1      10.441  45.721  47.652  0.00  0.00    +0.000 OA
ENDBRANCH   1  28
TORSDOF 4
ENDMDL
MODEL 2
REMARK VINA RESULT:    -6.388      4.645      8.849
REMARK INTER + INTRA:          -8.784
REMARK INTER:                  -7.887
REMARK INTRA:                  -0.896
REMARK UNBOUND:                -0.901
REMARK  Name = 
REMARK  6 active torsions:
REMARK  status: ('A' for Active; 'I' for Inactive)
REMARK    1  A    between atoms: C_1  and  O_2
REMARK    2  A    between atoms: O_2  and  C_3
REMARK    3  A    between atoms: C_5  and  C_6
REMARK    4  A    between atoms: C_9  and  O_10
REMARK    5  A    between atoms: O_10  and  C_11
REMARK    6  A    between atoms: N_26  and  C_27
REMARK                            x       y       z     vdW  Elec       q    Type
REMARK                         _______ _______ _______ _____ _____    ______ ____
ROOT
ATOM      1  C   UNL     1      15.403  43.240  43.343  0.00  0.00    +0.000 A 
ATOM      2  C   UNL     1      14.776  44.420  43.768  0.00  0.00    +0.000 A 
ATOM      3  C   UNL     1      14.289  44.556  45.068  0.00  0.00    +0.000 A 
ATOM      4  C   UNL     1      14.443  43.476  45.944  0.00  0.00    +0.000 A 
ATOM      5  C   UNL     1      15.065  42.257  45.578  0.00  0.00    +0.000 A 
ATOM      6  C   UNL     1      15.201  41.173  46.503  0.00  0.00    +0.000 A 
ATOM      7  C   UNL     1      14.749  41.182  47.851  0.00  0.00    +0.000 A 
ATOM      8  C   UNL     1      14.916  40.086  48.703  0.00  0.00    +0.000 A 
ATOM      9  C   UNL     1      15.540  38.940  48.240  0.00  0.00    +0.000 A 
ATOM     10  C   UNL     1      15.995  38.895  46.927  0.00  0.00    +0.000 A 
ATOM     11  C   UNL     1      15.829  39.998  46.066  0.00  0.00    +0.000 A 
ATOM     12  C   UNL     1      16.289  39.930  44.764  0.00  0.00    +0.000 A 
ATOM     13  N   UNL     1      16.163  40.948  43.885  0.00  0.00    +0.000 N 
ATOM     14  C   UNL     1      16.712  40.705  42.529  0.00  0.00    +0.000 C 
ATOM     15  C   UNL     1      15.560  42.135  44.238  0.00  0.00    +0.000 A 
ENDROOT
BRANCH   3  16
ATOM     16  C   UNL     1      13.636  45.799  45.506  0.00  0.00    +0.000 A 
ATOM     17  C   UNL     1      12.461  45.768  46.271  0.00  0.00    +0.000 A 
ATOM     18  C   UNL     1      11.845  46.953  46.685  0.00  0.00    +0.000 A 
ATOM     19  C   UNL     1      12.383  48.197  46.346  0.00  0.00    +0.000 A 
ATOM     20  C   UNL     1      13.549  48.241  45.584  0.00  0.00    +0.000 A 
ATOM     21  C   UNL     1      14.168  47.054  45.171  0.00  0.00    +0.000 A 
BRANCH  19  22
ATOM     22  O   UNL     1      11.676  49.265  46.816  0.00  0.00    +0.000 OA
BRANCH  22  23
ATOM     23  C   UNL     1      10.996  50.078  45.875  0.00  0.00    +0.000 C 
ATOM     24  F   UNL     1       9.943  50.702  46.445  0.00  0.00    +0.000 F 
ATOM     25  F   UNL     1      11.849  51.019  45.416  0.00  0.00    +0.000 F 
ATOM     26  F   UNL     1      10.569  49.346  44.823  0.00  0.00    +0.000 F 
ENDBRANCH  22  23
ENDBRANCH  19  22
ENDBRANCH   3  16
BRANCH   1  28
ATOM     27  C   UNL     1      15.160  43.691  40.983  0.00  0.00    +0.000 C 
ATOM     28  O   UNL     1      15.886  43.107  42.064  0.00  0.00    +0.000 OA
ENDBRANCH   1  28
TORSDOF 4
ENDMDL
MODEL 3
REMARK VINA RESULT:    -6.249      4.222      6.538
REMARK INTER + INTRA:          -8.611
REMARK INTER:                  -7.710
REMARK INTRA:                  -0.901
REMARK UNBOUND:                -0.901
REMARK  Name = 
REMARK  6 active torsions:
REMARK  status: ('A' for Active; 'I' for Inactive)
REMARK    1  A    between atoms: C_1  and  O_2
REMARK    2  A    between atoms: O_2  and  C_3
REMARK    3  A    between atoms: C_5  and  C_6
REMARK    4  A    between atoms: C_9  and  O_10
REMARK    5  A    between atoms: O_10  and  C_11
REMARK    6  A    between atoms: N_26  and  C_27
REMARK                            x       y       z     vdW  Elec       q    Type
REMARK                         _______ _______ _______ _____ _____    ______ ____
ROOT
ATOM      1  C   UNL     1      15.685  41.586  43.374  0.00  0.00    +0.000 A 
ATOM      2  C   UNL     1      15.926  40.765  44.485  0.00  0.00    +0.000 A 
ATOM      3  C   UNL     1      15.474  41.113  45.757  0.00  0.00    +0.000 A 
ATOM      4  C   UNL     1      14.769  42.313  45.899  0.00  0.00    +0.000 A 
ATOM      5  C   UNL     1      14.493  43.188  44.819  0.00  0.00    +0.000 A 
ATOM      6  C   UNL     1      13.770  44.409  45.005  0.00  0.00    +0.000 A 
ATOM      7  C   UNL     1      13.257  44.880  46.245  0.00  0.00    +0.000 A 
ATOM      8  C   UNL     1      12.557  46.085  46.356  0.00  0.00    +0.000 A 
ATOM      9  C   UNL     1      12.343  46.865  45.232  0.00  0.00    +0.000 A 
ATOM     10  C   UNL     1      12.830  46.437  44.002  0.00  0.00    +0.000 A 
ATOM     11  C   UNL     1      13.536  45.223  43.887  0.00  0.00    +0.000 A 
ATOM     12  C   UNL     1      14.012  44.817  42.654  0.00  0.00    +0.000 A 
ATOM     13  N   UNL     1      14.696  43.667  42.470  0.00  0.00    +0.000 N 
ATOM     14  C   UNL     1      15.133  43.387  41.082  0.00  0.00    +0.000 C 
ATOM     15  C   UNL     1      14.964  42.814  43.518  0.00  0.00    +0.000 A 
ENDROOT
BRANCH   3  16
ATOM     16  C   UNL     1      15.729  40.243  46.915  0.00  0.00    +0.000 A 
ATOM     17  C   UNL     1      16.764  39.297  46.896  0.00  0.00    +0.000 A 
ATOM     18  C   UNL     1      17.002  38.474  48.001  0.00  0.00    +0.000 A 
ATOM     19  C   UNL     1      16.215  38.573  49.151  0.00  0.00    +0.000 A 
ATOM     20  C   UNL     1      15.183  39.508  49.182  0.00  0.00    +0.000 A 
ATOM     21  C   UNL     1      14.945  40.334  48.076  0.00  0.00    +0.000 A 
BRANCH  19  22
ATOM     22  O   UNL     1      16.561  37.707  50.148  0.00  0.00    +0.000 OA
BRANCH  22  23
ATOM     23  C   UNL     1      17.594  38.098  51.037  0.00  0.00    +0.000 C 
ATOM     24  F   UNL     1      17.307  37.729  52.304  0.00  0.00    +0.000 F 
ATOM     25  F   UNL     1      18.740  37.489  50.667  0.00  0.00    +0.000 F 
ATOM     26  F   UNL     1      17.791  39.433  50.993  0.00  0.00    +0.000 F 
ENDBRANCH  22  23
ENDBRANCH  19  22
ENDBRANCH   3  16
BRANCH   1  28
ATOM     27  C   UNL     1      16.959  40.092  41.968  0.00  0.00    +0.000 C 
ATOM     28  O   UNL     1      16.127  41.242  42.119  0.00  0.00    +0.000 OA
ENDBRANCH   1  28
TORSDOF 4
ENDMDL
