MODEL 1
REMARK VINA RESULT:    -6.029      0.000      0.000
REMARK INTER + INTRA:          -8.129
REMARK INTER:                  -7.739
REMARK INTRA:                  -0.390
REMARK UNBOUND:                -0.691
REMARK  Name = 
REMARK  9 active torsions:
REMARK  status: ('A' for Active; 'I' for Inactive)
REMARK    1  A    between atoms: C_1  and  C_2
REMARK    2  A    between atoms: C_6  and  C_8
REMARK    3  A    between atoms: C_9  and  C_10
REMARK    4  A    between atoms: C_9  and  C_11
REMARK    5  A    between atoms: C_12  and  C_13
REMARK    6  A    between atoms: C_12  and  C_14
REMARK    7  A    between atoms: C_19  and  O_21
REMARK    8  A    between atoms: O_21  and  C_22
REMARK    9  A    between atoms: C_22  and  C_23
REMARK                            x       y       z     vdW  Elec       q    Type
REMARK                         _______ _______ _______ _____ _____    ______ ____
ROOT
ATOM      1  C   UNL     1      11.933  40.852  47.849  0.00  0.00    +0.000 C 
ATOM      2  C   UNL     1      13.094  41.831  47.763  0.00  0.00    +0.000 C 
ATOM      3  C   UNL     1      13.011  42.686  46.485  0.00  0.00    +0.000 C 
ATOM      4  O   UNL     1      12.275  43.656  46.391  0.00  0.00    +0.000 OA
ATOM      5  N   UNL     1      13.911  42.158  45.509  0.00  0.00    +0.000 N 
ATOM      6  C   UNL     1      13.850  42.528  44.177  0.00  0.00    +0.000 C 
ATOM      7  O   UNL     1      13.293  43.543  43.776  0.00  0.00    +0.000 OA
ATOM      8  C   UNL     1      14.414  40.928  46.040  0.00  0.00    +0.000 C 
ATOM      9  C   UNL     1      15.790  40.319  45.849  0.00  0.00    +0.000 C 
ATOM     10  C   UNL     1      15.859  39.389  47.086  0.00  0.00    +0.000 C 
ATOM     11  N   UNL     1      14.995  40.023  48.079  0.00  0.00    +0.000 N 
ATOM     12  C   UNL     1      15.073  39.707  49.410  0.00  0.00    +0.000 C 
ATOM     13  O   UNL     1      15.681  38.732  49.835  0.00  0.00    +0.000 OA
ATOM     14  C   UNL     1      14.463  41.234  47.527  0.00  0.00    +0.000 C 
ENDROOT
BRANCH   6  15
ATOM     15  C   UNL     1      14.546  41.635  43.190  0.00  0.00    +0.000 C 
ATOM     16  C   UNL     1      14.825  42.062  41.742  0.00  0.00    +0.000 C 
ATOM     17  C   UNL     1      14.506  43.451  41.227  0.00  0.00    +0.000 C 
ATOM     18  C   UNL     1      14.559  41.016  40.675  0.00  0.00    +0.000 C 
ATOM     19  C   UNL     1      15.986  41.879  42.730  0.00  0.00    +0.000 C 
ATOM     20  C   UNL     1      16.733  43.089  43.251  0.00  0.00    +0.000 C 
ATOM     21  C   UNL     1      16.909  40.698  42.512  0.00  0.00    +0.000 C 
ENDBRANCH   6  15
BRANCH  12  22
ATOM     22  O   UNL     1      14.403  40.601  50.175  0.00  0.00    +0.000 OA
BRANCH  22  23
ATOM     23  C   UNL     1      14.444  40.376  51.588  0.00  0.00    +0.000 C 
BRANCH  23  24
ATOM     24  C   UNL     1      14.678  41.692  52.283  0.00  0.00    +0.000 A 
ATOM     25  C   UNL     1      13.655  42.297  53.027  0.00  0.00    +0.000 A 
ATOM     26  C   UNL     1      13.885  43.500  53.696  0.00  0.00    +0.000 A 
ATOM     27  C   UNL     1      15.138  44.105  53.635  0.00  0.00    +0.000 A 
ATOM     28  C   UNL     1      16.166  43.506  52.909  0.00  0.00    +0.000 A 
ATOM     29  C   UNL     1      15.939  42.303  52.239  0.00  0.00    +0.000 A 
ENDBRANCH  23  24
ENDBRANCH  22  23
ENDBRANCH  12  22
TORSDOF 4
ENDMDL
MODEL 2
REMARK VINA RESULT:    -5.990      6.555     10.127
REMARK INTER + INTRA:          -8.081
REMARK INTER:                  -7.747
REMARK INTRA:                  -0.334
REMARK UNBOUND:                -0.691
REMARK  Name = 
REMARK  9 active torsions:
REMARK  status: ('A' for Active; 'I' for Inactive)
REMARK    1  A    between atoms: C_1  and  C_2
REMARK    2  A    between atoms: C_6  and  C_8
REMARK    3  A    between atoms: C_9  and  C_10
REMARK    4  A    between atoms: C_9  and  C_11
REMARK    5  A    between atoms: C_12  and  C_13
REMARK    6  A    between atoms: C_12  and  C_14
REMARK    7  A    between atoms: C_19  and  O_21
REMARK    8  A    between atoms: O_21  and  C_22
REMARK    9  A    between atoms: C_22  and  C_23
REMARK                            x       y       z     vdW  Elec       q    Type
REMARK                         _______ _______ _______ _____ _____    ______ ____
ROOT
ATOM      1  C   UNL     1      16.428  37.194  56.867  0.00  0.00    +0.000 C 
ATOM      2  C   UNL     1      17.332  38.105  56.051  0.00  0.00    +0.000 C 
ATOM      3  C   UNL     1      16.851  39.567  56.106  0.00  0.00    +0.000 C 
ATOM      4  O   UNL     1      17.085  40.298  57.056  0.00  0.00    +0.000 OA
ATOM      5  N   UNL     1      16.137  39.871  54.907  0.00  0.00    +0.000 N 
ATOM      6  C   UNL     1      15.343  40.999  54.791  0.00  0.00    +0.000 C 
ATOM      7  O   UNL     1      15.439  41.977  55.521  0.00  0.00    +0.000 OA
ATOM      8  C   UNL     1      15.995  38.640  54.192  0.00  0.00    +0.000 C 
ATOM      9  C   UNL     1      15.979  38.425  52.691  0.00  0.00    +0.000 C 
ATOM     10  C   UNL     1      16.382  36.931  52.616  0.00  0.00    +0.000 C 
ATOM     11  N   UNL     1      17.183  36.700  53.817  0.00  0.00    +0.000 N 
ATOM     12  C   UNL     1      18.013  35.615  53.933  0.00  0.00    +0.000 C 
ATOM     13  O   UNL     1      17.976  34.656  53.172  0.00  0.00    +0.000 OA
ATOM     14  C   UNL     1      17.289  37.928  54.549  0.00  0.00    +0.000 C 
ENDROOT
BRANCH   6  15
ATOM     15  C   UNL     1      14.340  41.013  53.673  0.00  0.00    +0.000 C 
ATOM     16  C   UNL     1      13.681  42.304  53.169  0.00  0.00    +0.000 C 
ATOM     17  C   UNL     1      14.066  43.673  53.695  0.00  0.00    +0.000 C 
ATOM     18  C   UNL     1      12.191  42.230  52.894  0.00  0.00    +0.000 C 
ATOM     19  C   UNL     1      14.670  41.542  52.275  0.00  0.00    +0.000 C 
ATOM     20  C   UNL     1      16.046  42.117  52.008  0.00  0.00    +0.000 C 
ATOM     21  C   UNL     1      14.110  40.835  51.059  0.00  0.00    +0.000 C 
ENDBRANCH   6  15
BRANCH  12  22
ATOM     22  O   UNL     1      18.862  35.747  54.980  0.00  0.00    +0.000 OA
BRANCH  22  23
ATOM     23  C   UNL     1      19.238  34.534  55.641  0.00  0.00    +0.000 C 
BRANCH  23  24
ATOM     24  C   UNL     1      20.725  34.343  55.495  0.00  0.00    +0.000 A 
ATOM     25  C   UNL     1      21.572  34.466  56.606  0.00  0.00    +0.000 A 
ATOM     26  C   UNL     1      22.945  34.257  56.475  0.00  0.00    +0.000 A 
ATOM     27  C   UNL     1      23.484  33.916  55.236  0.00  0.00    +0.000 A 
ATOM     28  C   UNL     1      22.650  33.780  54.128  0.00  0.00    +0.000 A 
ATOM     29  C   UNL     1      21.277  33.987  54.257  0.00  0.00    +0.000 A 
ENDBRANCH  23  24
ENDBRANCH  22  23
ENDBRANCH  12  22
TORSDOF 4
ENDMDL
MODEL 3
REMARK VINA RESULT:    -5.925      6.741     10.153
REMARK INTER + INTRA:          -8.001
REMARK INTER:                  -7.310
REMARK INTRA:                  -0.691
REMARK UNBOUND:                -0.691
REMARK  Name = 
REMARK  9 active torsions:
REMARK  status: ('A' for Active; 'I' for Inactive)
REMARK    1  A    between atoms: C_1  and  C_2
REMARK    2  A    between atoms: C_6  and  C_8
REMARK    3  A    between atoms: C_9  and  C_10
REMARK    4  A    between atoms: C_9  and  C_11
REMARK    5  A    between atoms: C_12  and  C_13
REMARK    6  A    between atoms: C_12  and  C_14
REMARK    7  A    between atoms: C_19  and  O_21
REMARK    8  A    between atoms: O_21  and  C_22
REMARK    9  A    between atoms: C_22  and  C_23
REMARK                            x       y       z     vdW  Elec       q    Type
REMARK                         _______ _______ _______ _____ _____    ______ ____
ROOT
ATOM      1  C   UNL     1      16.342  35.558  54.306  0.00  0.00    +0.000 C 
ATOM      2  C   UNL     1      17.663  36.282  54.511  0.00  0.00    +0.000 C 
ATOM      3  C   UNL     1      17.461  37.621  55.246  0.00  0.00    +0.000 C 
ATOM      4  O   UNL     1      17.314  37.688  56.456  0.00  0.00    +0.000 OA
ATOM      5  N   UNL     1      17.487  38.685  54.294  0.00  0.00    +0.000 N 
ATOM      6  C   UNL     1      17.047  39.960  54.606  0.00  0.00    +0.000 C 
ATOM      7  O   UNL     1      16.929  40.379  55.750  0.00  0.00    +0.000 OA
ATOM      8  C   UNL     1      17.517  38.077  53.000  0.00  0.00    +0.000 C 
ATOM      9  C   UNL     1      18.205  38.578  51.744  0.00  0.00    +0.000 C 
ATOM     10  C   UNL     1      18.345  37.255  50.952  0.00  0.00    +0.000 C 
ATOM     11  N   UNL     1      18.404  36.212  51.975  0.00  0.00    +0.000 N 
ATOM     12  C   UNL     1      18.882  34.957  51.699  0.00  0.00    +0.000 C 
ATOM     13  O   UNL     1      19.069  34.544  50.562  0.00  0.00    +0.000 OA
ATOM     14  C   UNL     1      18.334  36.825  53.269  0.00  0.00    +0.000 C 
ENDROOT
BRANCH   6  15
ATOM     15  C   UNL     1      16.738  40.874  53.455  0.00  0.00    +0.000 C 
ATOM     16  C   UNL     1      15.404  40.826  52.696  0.00  0.00    +0.000 C 
ATOM     17  C   UNL     1      14.263  39.921  53.113  0.00  0.00    +0.000 C 
ATOM     18  C   UNL     1      15.493  40.924  51.184  0.00  0.00    +0.000 C 
ATOM     19  C   UNL     1      15.752  42.040  53.569  0.00  0.00    +0.000 C 
ATOM     20  C   UNL     1      15.022  42.265  54.877  0.00  0.00    +0.000 C 
ATOM     21  C   UNL     1      16.056  43.345  52.863  0.00  0.00    +0.000 C 
ENDBRANCH   6  15
BRANCH  12  22
ATOM     22  O   UNL     1      19.117  34.254  52.832  0.00  0.00    +0.000 OA
BRANCH  22  23
ATOM     23  C   UNL     1      20.308  33.459  52.844  0.00  0.00    +0.000 C 
BRANCH  23  24
ATOM     24  C   UNL     1      21.135  33.840  54.044  0.00  0.00    +0.000 A 
ATOM     25  C   UNL     1      20.519  34.294  55.218  0.00  0.00    +0.000 A 
ATOM     26  C   UNL     1      21.285  34.616  56.340  0.00  0.00    +0.000 A 
ATOM     27  C   UNL     1      22.671  34.480  56.300  0.00  0.00    +0.000 A 
ATOM     28  C   UNL     1      23.293  34.018  55.142  0.00  0.00    +0.000 A 
ATOM     29  C   UNL     1      22.529  33.695  54.020  0.00  0.00    +0.000 A 
ENDBRANCH  23  24
ENDBRANCH  22  23
ENDBRANCH  12  22
TORSDOF 4
ENDMDL
