MODEL 1
REMARK VINA RESULT:    -6.481      0.000      0.000
REMARK INTER + INTRA:          -7.049
REMARK INTER:                  -6.859
REMARK INTRA:                  -0.190
REMARK UNBOUND:                -0.189
REMARK  Name = 
REMARK  3 active torsions:
REMARK  status: ('A' for Active; 'I' for Inactive)
REMARK    1  A    between atoms: C_1  and  N_2
REMARK    2  A    between atoms: N_2  and  C_3
REMARK    3  A    between atoms: N_2  and  C_4
REMARK                            x       y       z     vdW  Elec       q    Type
REMARK                         _______ _______ _______ _____ _____    ______ ____
ROOT
ATOM      1  C   UNL     1      19.452  34.662  49.836  0.00  0.00    +0.000 C 
ATOM      2  C   UNL     1      20.065  35.825  50.574  0.00  0.00    +0.000 C 
ATOM      3  C   UNL     1      21.128  35.722  51.392  0.00  0.00    +0.000 C 
ATOM      4  C   UNL     1      21.850  34.398  51.756  0.00  0.00    +0.000 C 
ATOM      5  C   UNL     1      20.976  33.195  51.242  0.00  0.00    +0.000 C 
ATOM      6  C   UNL     1      20.375  33.427  49.849  0.00  0.00    +0.000 C 
ATOM      7  C   UNL     1      23.219  34.352  50.993  0.00  0.00    +0.000 A 
ATOM      8  C   UNL     1      23.457  35.212  49.889  0.00  0.00    +0.000 A 
ATOM      9  C   UNL     1      24.609  35.133  49.101  0.00  0.00    +0.000 A 
ATOM     10  C   UNL     1      25.571  34.180  49.380  0.00  0.00    +0.000 A 
ATOM     11  C   UNL     1      25.380  33.321  50.454  0.00  0.00    +0.000 A 
ATOM     12  C   UNL     1      24.223  33.399  51.263  0.00  0.00    +0.000 A 
ATOM     13  C   UNL     1      24.161  32.497  52.461  0.00  0.00    +0.000 C 
ATOM     14  C   UNL     1      24.244  33.354  53.709  0.00  0.00    +0.000 C 
ATOM     15  C   UNL     1      22.913  33.896  54.168  0.00  0.00    +0.000 A 
ATOM     16  C   UNL     1      22.763  33.962  55.579  0.00  0.00    +0.000 A 
ATOM     17  C   UNL     1      21.578  34.373  56.181  0.00  0.00    +0.000 A 
ATOM     18  C   UNL     1      20.512  34.723  55.378  0.00  0.00    +0.000 A 
ATOM     19 CL   UNL     1      19.021  35.203  56.088  0.00  0.00    +0.000 Cl
ATOM     20  C   UNL     1      20.647  34.693  53.990  0.00  0.00    +0.000 A 
ATOM     21  C   UNL     1      21.860  34.320  53.331  0.00  0.00    +0.000 A 
ENDROOT
BRANCH   1  23
ATOM     22  C   UNL     1      20.075  35.183  47.539  0.00  0.00    +0.000 C 
ATOM     23  N   UNL     1      18.980  35.085  48.504  0.00  0.00    +0.000 NA
ATOM     24  C   UNL     1      18.192  36.317  48.500  0.00  0.00    +0.000 C 
ENDBRANCH   1  23
TORSDOF 1
ENDMDL
MODEL 2
REMARK VINA RESULT:    -6.009     14.909     18.081
REMARK INTER + INTRA:          -6.549
REMARK INTER:                  -6.360
REMARK INTRA:                  -0.189
REMARK UNBOUND:                -0.189
REMARK  Name = 
REMARK  3 active torsions:
REMARK  status: ('A' for Active; 'I' for Inactive)
REMARK    1  A    between atoms: C_1  and  N_2
REMARK    2  A    between atoms: N_2  and  C_3
REMARK    3  A    between atoms: N_2  and  C_4
REMARK                            x       y       z     vdW  Elec       q    Type
REMARK                         _______ _______ _______ _____ _____    ______ ____
ROOT
ATOM      1  C   UNL     1      13.618  45.486  43.462  0.00  0.00    +0.000 C 
ATOM      2  C   UNL     1      14.385  45.739  44.736  0.00  0.00    +0.000 C 
ATOM      3  C   UNL     1      14.107  46.735  45.596  0.00  0.00    +0.000 C 
ATOM      4  C   UNL     1      13.009  47.812  45.392  0.00  0.00    +0.000 C 
ATOM      5  C   UNL     1      12.479  47.711  43.915  0.00  0.00    +0.000 C 
ATOM      6  C   UNL     1      12.289  46.268  43.430  0.00  0.00    +0.000 C 
ATOM      7  C   UNL     1      11.811  47.490  46.351  0.00  0.00    +0.000 A 
ATOM      8  C   UNL     1      11.687  46.204  46.940  0.00  0.00    +0.000 A 
ATOM      9  C   UNL     1      10.581  45.824  47.706  0.00  0.00    +0.000 A 
ATOM     10  C   UNL     1       9.544  46.717  47.908  0.00  0.00    +0.000 A 
ATOM     11  C   UNL     1       9.626  47.986  47.352  0.00  0.00    +0.000 A 
ATOM     12  C   UNL     1      10.745  48.383  46.584  0.00  0.00    +0.000 A 
ATOM     13  C   UNL     1      10.786  49.809  46.117  0.00  0.00    +0.000 C 
ATOM     14  C   UNL     1      11.912  50.518  46.846  0.00  0.00    +0.000 C 
ATOM     15  C   UNL     1      13.259  50.364  46.186  0.00  0.00    +0.000 A 
ATOM     16  C   UNL     1      14.086  51.516  46.267  0.00  0.00    +0.000 A 
ATOM     17  C   UNL     1      15.335  51.577  45.657  0.00  0.00    +0.000 A 
ATOM     18  C   UNL     1      15.782  50.482  44.947  0.00  0.00    +0.000 A 
ATOM     19 CL   UNL     1      17.306  50.536  44.152  0.00  0.00    +0.000 Cl
ATOM     20  C   UNL     1      14.999  49.330  44.880  0.00  0.00    +0.000 A 
ATOM     21  C   UNL     1      13.731  49.208  45.528  0.00  0.00    +0.000 A 
ENDROOT
BRANCH   1  23
ATOM     22  C   UNL     1      12.671  43.366  44.195  0.00  0.00    +0.000 C 
ATOM     23  N   UNL     1      13.509  44.039  43.202  0.00  0.00    +0.000 NA
ATOM     24  C   UNL     1      14.789  43.345  43.068  0.00  0.00    +0.000 C 
ENDBRANCH   1  23
TORSDOF 1
ENDMDL
MODEL 3
REMARK VINA RESULT:    -5.992     10.476     14.313
REMARK INTER + INTRA:          -6.531
REMARK INTER:                  -6.341
REMARK INTRA:                  -0.190
REMARK UNBOUND:                -0.189
REMARK  Name = 
REMARK  3 active torsions:
REMARK  status: ('A' for Active; 'I' for Inactive)
REMARK    1  A    between atoms: C_1  and  N_2
REMARK    2  A    between atoms: N_2  and  C_3
REMARK    3  A    between atoms: N_2  and  C_4
REMARK                            x       y       z     vdW  Elec       q    Type
REMARK                         _______ _______ _______ _____ _____    ______ ____
ROOT
ATOM      1  C   UNL     1      14.845  43.350  40.466  0.00  0.00    +0.000 C 
ATOM      2  C   UNL     1      14.074  42.102  40.813  0.00  0.00    +0.000 C 
ATOM      3  C   UNL     1      13.964  41.607  42.059  0.00  0.00    +0.000 C 
ATOM      4  C   UNL     1      14.657  42.193  43.318  0.00  0.00    +0.000 C 
ATOM      5  C   UNL     1      15.706  43.270  42.854  0.00  0.00    +0.000 C 
ATOM      6  C   UNL     1      15.197  44.173  41.723  0.00  0.00    +0.000 C 
ATOM      7  C   UNL     1      13.575  42.925  44.185  0.00  0.00    +0.000 A 
ATOM      8  C   UNL     1      12.320  43.279  43.623  0.00  0.00    +0.000 A 
ATOM      9  C   UNL     1      11.366  44.035  44.312  0.00  0.00    +0.000 A 
ATOM     10  C   UNL     1      11.634  44.477  45.594  0.00  0.00    +0.000 A 
ATOM     11  C   UNL     1      12.847  44.150  46.183  0.00  0.00    +0.000 A 
ATOM     12  C   UNL     1      13.814  43.379  45.499  0.00  0.00    +0.000 A 
ATOM     13  C   UNL     1      15.048  42.991  46.262  0.00  0.00    +0.000 C 
ATOM     14  C   UNL     1      15.022  41.491  46.482  0.00  0.00    +0.000 C 
ATOM     15  C   UNL     1      15.595  40.694  45.337  0.00  0.00    +0.000 A 
ATOM     16  C   UNL     1      16.316  39.536  45.731  0.00  0.00    +0.000 A 
ATOM     17  C   UNL     1      16.970  38.720  44.814  0.00  0.00    +0.000 A 
ATOM     18  C   UNL     1      16.919  39.051  43.476  0.00  0.00    +0.000 A 
ATOM     19 CL   UNL     1      17.744  38.084  42.318  0.00  0.00    +0.000 Cl
ATOM     20  C   UNL     1      16.192  40.168  43.063  0.00  0.00    +0.000 A 
ATOM     21  C   UNL     1      15.470  41.008  43.966  0.00  0.00    +0.000 A 
ENDROOT
BRANCH   1  23
ATOM     22  C   UNL     1      12.956  44.768  39.870  0.00  0.00    +0.000 C 
ATOM     23  N   UNL     1      14.165  44.097  39.391  0.00  0.00    +0.000 NA
ATOM     24  C   UNL     1      13.865  43.308  38.197  0.00  0.00    +0.000 C 
ENDBRANCH   1  23
TORSDOF 1
ENDMDL
