MODEL 1
REMARK VINA RESULT:    -6.436      0.000      0.000
REMARK INTER + INTRA:          -8.694
REMARK INTER:                  -7.941
REMARK INTRA:                  -0.753
REMARK UNBOUND:                -0.753
REMARK  Name = 
REMARK  4 active torsions:
REMARK  status: ('A' for Active; 'I' for Inactive)
REMARK    1  A    between atoms: S_2  and  N_4
REMARK    2  A    between atoms: S_2  and  N_19
REMARK    3  A    between atoms: N_4  and  S_5
REMARK    4  A    between atoms: S_5  and  N_8
REMARK                            x       y       z     vdW  Elec       q    Type
REMARK                         _______ _______ _______ _____ _____    ______ ____
ROOT
ATOM      1  N   UNL     1      14.789  39.883  48.200  0.00  0.00    +0.000 NA
ATOM      2  H   UNL     1      13.796  39.875  48.401  0.00  0.00    +0.000 HD
ENDROOT
BRANCH   1   4
ATOM      3  O   UNL     1      16.961  38.883  48.967  0.00  0.00    +0.000 OA
ATOM      4  S   UNL     1      15.540  38.814  49.200  0.00  0.00    +0.000 S 
ATOM      5  O   UNL     1      14.848  37.555  49.032  0.00  0.00    +0.000 OA
BRANCH   4   6
ATOM      6  N   UNL     1      15.157  39.406  50.724  0.00  0.00    +0.000 NA
ATOM      7  C   UNL     1      16.276  39.805  51.603  0.00  0.00    +0.000 C 
ATOM      8  C   UNL     1      16.534  41.308  51.560  0.00  0.00    +0.000 C 
ATOM      9  C   UNL     1      15.618  42.170  52.403  0.00  0.00    +0.000 A 
ATOM     10  C   UNL     1      16.136  43.414  52.835  0.00  0.00    +0.000 A 
ATOM     11  C   UNL     1      15.385  44.282  53.629  0.00  0.00    +0.000 A 
ATOM     12  C   UNL     1      14.100  43.928  54.014  0.00  0.00    +0.000 A 
ATOM     13  C   UNL     1      13.559  42.716  53.575  0.00  0.00    +0.000 A 
ATOM     14  C   UNL     1      14.290  41.838  52.739  0.00  0.00    +0.000 A 
ATOM     15  C   UNL     1      13.590  40.577  52.276  0.00  0.00    +0.000 C 
ATOM     16  C   UNL     1      13.905  40.179  50.834  0.00  0.00    +0.000 C 
ENDBRANCH   4   6
ENDBRANCH   1   4
BRANCH   1  17
ATOM     17  S   UNL     1      15.000  39.804  46.573  0.00  0.00    +0.000 S 
ATOM     18  O   UNL     1      14.484  38.519  46.164  0.00  0.00    +0.000 OA
ATOM     19  O   UNL     1      16.320  40.229  46.180  0.00  0.00    +0.000 OA
BRANCH  17  20
ATOM     20  N   UNL     1      13.887  40.980  46.072  0.00  0.00    +0.000 NA
ATOM     21  C   UNL     1      14.309  41.864  44.955  0.00  0.00    +0.000 C 
ATOM     22  C   UNL     1      14.928  43.176  45.436  0.00  0.00    +0.000 C 
ATOM     23  C   UNL     1      13.944  44.267  45.804  0.00  0.00    +0.000 A 
ATOM     24  C   UNL     1      14.359  45.596  45.597  0.00  0.00    +0.000 A 
ATOM     25  C   UNL     1      13.526  46.674  45.892  0.00  0.00    +0.000 A 
ATOM     26  C   UNL     1      12.258  46.442  46.403  0.00  0.00    +0.000 A 
ATOM     27  C   UNL     1      11.836  45.136  46.633  0.00  0.00    +0.000 A 
ATOM     28  C   UNL     1      12.675  44.033  46.366  0.00  0.00    +0.000 A 
ATOM     29  C   UNL     1      12.124  42.658  46.675  0.00  0.00    +0.000 C 
ATOM     30  C   UNL     1      13.148  41.638  47.176  0.00  0.00    +0.000 C 
ENDBRANCH  17  20
ENDBRANCH   1  17
TORSDOF 4
ENDMDL
MODEL 2
REMARK VINA RESULT:    -6.391      1.675      2.254
REMARK INTER + INTRA:          -8.639
REMARK INTER:                  -8.051
REMARK INTRA:                  -0.588
REMARK UNBOUND:                -0.753
REMARK  Name = 
REMARK  4 active torsions:
REMARK  status: ('A' for Active; 'I' for Inactive)
REMARK    1  A    between atoms: S_2  and  N_4
REMARK    2  A    between atoms: S_2  and  N_19
REMARK    3  A    between atoms: N_4  and  S_5
REMARK    4  A    between atoms: S_5  and  N_8
REMARK                            x       y       z     vdW  Elec       q    Type
REMARK                         _______ _______ _______ _____ _____    ______ ____
ROOT
ATOM      1  N   UNL     1      15.414  39.006  49.522  0.00  0.00    +0.000 NA
ATOM      2  H   UNL     1      14.405  38.975  49.613  0.00  0.00    +0.000 HD
ENDROOT
BRANCH   1   4
ATOM      3  O   UNL     1      17.521  38.442  50.766  0.00  0.00    +0.000 OA
ATOM      4  S   UNL     1      16.087  38.341  50.868  0.00  0.00    +0.000 S 
ATOM      5  O   UNL     1      15.470  37.042  51.024  0.00  0.00    +0.000 OA
BRANCH   4   6
ATOM      6  N   UNL     1      15.507  39.330  52.095  0.00  0.00    +0.000 NA
ATOM      7  C   UNL     1      16.499  40.070  52.903  0.00  0.00    +0.000 C 
ATOM      8  C   UNL     1      16.677  41.507  52.420  0.00  0.00    +0.000 C 
ATOM      9  C   UNL     1      15.628  42.501  52.872  0.00  0.00    +0.000 A 
ATOM     10  C   UNL     1      16.026  43.856  52.942  0.00  0.00    +0.000 A 
ATOM     11  C   UNL     1      15.145  44.856  53.360  0.00  0.00    +0.000 A 
ATOM     12  C   UNL     1      13.848  44.525  53.721  0.00  0.00    +0.000 A 
ATOM     13  C   UNL     1      13.426  43.195  53.634  0.00  0.00    +0.000 A 
ATOM     14  C   UNL     1      14.292  42.172  53.177  0.00  0.00    +0.000 A 
ATOM     15  C   UNL     1      13.717  40.775  53.066  0.00  0.00    +0.000 C 
ATOM     16  C   UNL     1      14.209  39.989  51.851  0.00  0.00    +0.000 C 
ENDBRANCH   4   6
ENDBRANCH   1   4
BRANCH   1  17
ATOM     17  S   UNL     1      15.827  38.473  48.025  0.00  0.00    +0.000 S 
ATOM     18  O   UNL     1      15.244  37.158  47.893  0.00  0.00    +0.000 OA
ATOM     19  O   UNL     1      17.221  38.695  47.739  0.00  0.00    +0.000 OA
BRANCH  17  20
ATOM     20  N   UNL     1      14.909  39.531  47.070  0.00  0.00    +0.000 NA
ATOM     21  C   UNL     1      15.062  39.403  45.598  0.00  0.00    +0.000 C 
ATOM     22  C   UNL     1      16.102  40.365  45.023  0.00  0.00    +0.000 C 
ATOM     23  C   UNL     1      15.613  41.774  44.756  0.00  0.00    +0.000 A 
ATOM     24  C   UNL     1      16.211  42.463  43.684  0.00  0.00    +0.000 A 
ATOM     25  C   UNL     1      15.826  43.760  43.347  0.00  0.00    +0.000 A 
ATOM     26  C   UNL     1      14.833  44.393  44.079  0.00  0.00    +0.000 A 
ATOM     27  C   UNL     1      14.243  43.736  45.155  0.00  0.00    +0.000 A 
ATOM     28  C   UNL     1      14.638  42.434  45.528  0.00  0.00    +0.000 A 
ATOM     29  C   UNL     1      13.947  41.821  46.727  0.00  0.00    +0.000 C 
ATOM     30  C   UNL     1      14.821  40.915  47.596  0.00  0.00    +0.000 C 
ENDBRANCH  17  20
ENDBRANCH   1  17
TORSDOF 4
ENDMDL
MODEL 3
REMARK VINA RESULT:    -6.373      5.938      8.422
REMARK INTER + INTRA:          -8.616
REMARK INTER:                  -6.590
REMARK INTRA:                  -2.026
REMARK UNBOUND:                -0.753
REMARK  Name = 
REMARK  4 active torsions:
REMARK  status: ('A' for Active; 'I' for Inactive)
REMARK    1  A    between atoms: S_2  and  N_4
REMARK    2  A    between atoms: S_2  and  N_19
REMARK    3  A    between atoms: N_4  and  S_5
REMARK    4  A    between atoms: S_5  and  N_8
REMARK                            x       y       z     vdW  Elec       q    Type
REMARK                         _______ _______ _______ _____ _____    ______ ____
ROOT
ATOM      1  N   UNL     1      15.929  41.746  55.831  0.00  0.00    +0.000 NA
ATOM      2  H   UNL     1      16.439  42.567  56.135  0.00  0.00    +0.000 HD
ENDROOT
BRANCH   1   4
ATOM      3  O   UNL     1      13.666  41.229  56.789  0.00  0.00    +0.000 OA
ATOM      4  S   UNL     1      15.070  41.155  57.104  0.00  0.00    +0.000 S 
ATOM      5  O   UNL     1      15.577  41.832  58.277  0.00  0.00    +0.000 OA
BRANCH   4   6
ATOM      6  N   UNL     1      15.580  39.556  57.178  0.00  0.00    +0.000 NA
ATOM      7  C   UNL     1      14.677  38.525  56.626  0.00  0.00    +0.000 C 
ATOM      8  C   UNL     1      15.061  38.127  55.204  0.00  0.00    +0.000 C 
ATOM      9  C   UNL     1      16.202  37.142  55.068  0.00  0.00    +0.000 A 
ATOM     10  C   UNL     1      16.216  36.344  53.900  0.00  0.00    +0.000 A 
ATOM     11  C   UNL     1      17.214  35.392  53.678  0.00  0.00    +0.000 A 
ATOM     12  C   UNL     1      18.218  35.212  54.618  0.00  0.00    +0.000 A 
ATOM     13  C   UNL     1      18.237  36.010  55.766  0.00  0.00    +0.000 A 
ATOM     14  C   UNL     1      17.257  37.005  55.993  0.00  0.00    +0.000 A 
ATOM     15  C   UNL     1      17.403  37.852  57.241  0.00  0.00    +0.000 C 
ATOM     16  C   UNL     1      17.031  39.322  57.049  0.00  0.00    +0.000 C 
ENDBRANCH   4   6
ENDBRANCH   1   4
BRANCH   1  17
ATOM     17  S   UNL     1      15.191  42.081  54.402  0.00  0.00    +0.000 S 
ATOM     18  O   UNL     1      15.172  43.521  54.290  0.00  0.00    +0.000 OA
ATOM     19  O   UNL     1      13.987  41.310  54.224  0.00  0.00    +0.000 OA
BRANCH  17  20
ATOM     20  N   UNL     1      16.362  41.504  53.322  0.00  0.00    +0.000 NA
ATOM     21  C   UNL     1      15.925  41.287  51.918  0.00  0.00    +0.000 C 
ATOM     22  C   UNL     1      15.489  39.847  51.648  0.00  0.00    +0.000 C 
ATOM     23  C   UNL     1      16.608  38.869  51.352  0.00  0.00    +0.000 A 
ATOM     24  C   UNL     1      16.309  37.803  50.483  0.00  0.00    +0.000 A 
ATOM     25  C   UNL     1      17.270  36.855  50.137  0.00  0.00    +0.000 A 
ATOM     26  C   UNL     1      18.552  36.955  50.656  0.00  0.00    +0.000 A 
ATOM     27  C   UNL     1      18.862  37.991  51.532  0.00  0.00    +0.000 A 
ATOM     28  C   UNL     1      17.896  38.945  51.916  0.00  0.00    +0.000 A 
ATOM     29  C   UNL     1      18.333  40.016  52.891  0.00  0.00    +0.000 C 
ATOM     30  C   UNL     1      17.266  40.473  53.886  0.00  0.00    +0.000 C 
ENDBRANCH  17  20
ENDBRANCH   1  17
TORSDOF 4
ENDMDL
