MODEL 1
REMARK VINA RESULT:    -7.392      0.000      0.000
REMARK INTER + INTRA:         -10.404
REMARK INTER:                  -9.507
REMARK INTRA:                  -0.897
REMARK UNBOUND:                -0.851
REMARK  Name = 
REMARK  5 active torsions:
REMARK  status: ('A' for Active; 'I' for Inactive)
REMARK    1  A    between atoms: C_6  and  C_7
REMARK    2  A    between atoms: C_13  and  N_14
REMARK    3  A    between atoms: N_14  and  C_15
REMARK    4  A    between atoms: C_19  and  O_20
REMARK    5  A    between atoms: O_20  and  C_21
REMARK                            x       y       z     vdW  Elec       q    Type
REMARK                         _______ _______ _______ _____ _____    ______ ____
ROOT
ATOM      1  C   UNL     1      14.413  44.472  45.163  0.00  0.00    +0.000 A 
ATOM      2  N   UNL     1      14.755  44.076  43.950  0.00  0.00    +0.000 NA
ATOM      3  C   UNL     1      15.241  42.798  44.081  0.00  0.00    +0.000 A 
ATOM      4  C   UNL     1      15.733  41.943  43.102  0.00  0.00    +0.000 A 
ATOM      5  C   UNL     1      16.151  40.708  43.556  0.00  0.00    +0.000 A 
ATOM      6  N   UNL     1      16.109  40.305  44.847  0.00  0.00    +0.000 NA
ATOM      7  C   UNL     1      15.633  41.120  45.826  0.00  0.00    +0.000 A 
ATOM      8  C   UNL     1      15.199  42.384  45.404  0.00  0.00    +0.000 A 
ATOM      9  N   UNL     1      14.672  43.465  46.067  0.00  0.00    +0.000 N 
ATOM     10  H   UNL     1      14.501  43.516  47.058  0.00  0.00    +0.000 HD
ENDROOT
BRANCH   1  16
ATOM     11  F   UNL     1      14.430  49.347  45.130  0.00  0.00    +0.000 F 
ATOM     12  C   UNL     1      13.843  48.200  45.493  0.00  0.00    +0.000 A 
ATOM     13  C   UNL     1      12.658  48.240  46.216  0.00  0.00    +0.000 A 
ATOM     14  C   UNL     1      12.050  47.045  46.589  0.00  0.00    +0.000 A 
ATOM     15  C   UNL     1      12.638  45.827  46.235  0.00  0.00    +0.000 A 
ATOM     16  C   UNL     1      13.840  45.779  45.506  0.00  0.00    +0.000 A 
ATOM     17  C   UNL     1      14.436  46.991  45.135  0.00  0.00    +0.000 A 
ENDBRANCH   1  16
BRANCH   7  18
ATOM     18  N   UNL     1      15.562  40.728  47.167  0.00  0.00    +0.000 N 
ATOM     19  H   UNL     1      16.435  40.415  47.554  0.00  0.00    +0.000 HD
BRANCH  18  20
ATOM     20  C   UNL     1      14.497  40.693  48.087  0.00  0.00    +0.000 A 
ATOM     21  C   UNL     1      13.147  40.689  47.724  0.00  0.00    +0.000 A 
ATOM     22  C   UNL     1      12.131  40.654  48.688  0.00  0.00    +0.000 A 
ATOM     23  C   UNL     1      12.450  40.633  50.042  0.00  0.00    +0.000 A 
ATOM     24  C   UNL     1      13.789  40.664  50.426  0.00  0.00    +0.000 A 
ATOM     25  C   UNL     1      14.800  40.675  49.460  0.00  0.00    +0.000 A 
BRANCH  24  26
ATOM     26  O   UNL     1      14.186  40.613  51.742  0.00  0.00    +0.000 OA
BRANCH  26  27
ATOM     27  C   UNL     1      14.534  41.802  52.344  0.00  0.00    +0.000 A 
ATOM     28  C   UNL     1      13.532  42.472  53.044  0.00  0.00    +0.000 A 
ATOM     29  C   UNL     1      13.823  43.666  53.706  0.00  0.00    +0.000 A 
ATOM     30  C   UNL     1      15.120  44.178  53.679  0.00  0.00    +0.000 A 
ATOM     31  C   UNL     1      16.129  43.495  52.997  0.00  0.00    +0.000 A 
ATOM     32  C   UNL     1      15.839  42.301  52.335  0.00  0.00    +0.000 A 
ENDBRANCH  26  27
ENDBRANCH  24  26
ENDBRANCH  18  20
ENDBRANCH   7  18
TORSDOF 5
ENDMDL
MODEL 2
REMARK VINA RESULT:    -7.384      4.728      8.299
REMARK INTER + INTRA:         -10.394
REMARK INTER:                  -9.270
REMARK INTRA:                  -1.123
REMARK UNBOUND:                -0.851
REMARK  Name = 
REMARK  5 active torsions:
REMARK  status: ('A' for Active; 'I' for Inactive)
REMARK    1  A    between atoms: C_6  and  C_7
REMARK    2  A    between atoms: C_13  and  N_14
REMARK    3  A    between atoms: N_14  and  C_15
REMARK    4  A    between atoms: C_19  and  O_20
REMARK    5  A    between atoms: O_20  and  C_21
REMARK                            x       y       z     vdW  Elec       q    Type
REMARK                         _______ _______ _______ _____ _____    ______ ____
ROOT
ATOM      1  C   UNL     1      14.317  48.305  45.213  0.00  0.00    +0.000 A 
ATOM      2  N   UNL     1      13.136  48.347  45.802  0.00  0.00    +0.000 NA
ATOM      3  C   UNL     1      12.815  47.051  46.123  0.00  0.00    +0.000 A 
ATOM      4  C   UNL     1      11.677  46.559  46.752  0.00  0.00    +0.000 A 
ATOM      5  C   UNL     1      11.651  45.191  46.936  0.00  0.00    +0.000 A 
ATOM      6  N   UNL     1      12.632  44.342  46.554  0.00  0.00    +0.000 NA
ATOM      7  C   UNL     1      13.756  44.794  45.937  0.00  0.00    +0.000 A 
ATOM      8  C   UNL     1      13.819  46.179  45.731  0.00  0.00    +0.000 A 
ATOM      9  N   UNL     1      14.758  47.000  45.155  0.00  0.00    +0.000 N 
ATOM     10  H   UNL     1      15.630  46.699  44.753  0.00  0.00    +0.000 HD
ENDROOT
BRANCH   1  16
ATOM     11  F   UNL     1      18.378  50.947  44.669  0.00  0.00    +0.000 F 
ATOM     12  C   UNL     1      17.072  50.779  44.426  0.00  0.00    +0.000 A 
ATOM     13  C   UNL     1      16.392  51.726  43.670  0.00  0.00    +0.000 A 
ATOM     14  C   UNL     1      15.036  51.546  43.419  0.00  0.00    +0.000 A 
ATOM     15  C   UNL     1      14.378  50.424  43.931  0.00  0.00    +0.000 A 
ATOM     16  C   UNL     1      15.059  49.463  44.699  0.00  0.00    +0.000 A 
ATOM     17  C   UNL     1      16.425  49.657  44.940  0.00  0.00    +0.000 A 
ENDBRANCH   1  16
BRANCH   7  18
ATOM     18  N   UNL     1      14.795  43.944  45.542  0.00  0.00    +0.000 N 
ATOM     19  H   UNL     1      15.491  43.783  46.251  0.00  0.00    +0.000 HD
BRANCH  18  20
ATOM     20  C   UNL     1      15.054  43.262  44.339  0.00  0.00    +0.000 A 
ATOM     21  C   UNL     1      15.315  41.891  44.255  0.00  0.00    +0.000 A 
ATOM     22  C   UNL     1      15.567  41.269  43.026  0.00  0.00    +0.000 A 
ATOM     23  C   UNL     1      15.573  42.014  41.851  0.00  0.00    +0.000 A 
ATOM     24  C   UNL     1      15.342  43.387  41.915  0.00  0.00    +0.000 A 
ATOM     25  C   UNL     1      15.068  44.000  43.142  0.00  0.00    +0.000 A 
BRANCH  24  26
ATOM     26  O   UNL     1      15.300  44.186  40.796  0.00  0.00    +0.000 OA
BRANCH  26  27
ATOM     27  C   UNL     1      14.174  44.110  40.007  0.00  0.00    +0.000 A 
ATOM     28  C   UNL     1      14.280  43.380  38.824  0.00  0.00    +0.000 A 
ATOM     29  C   UNL     1      13.169  43.235  37.993  0.00  0.00    +0.000 A 
ATOM     30  C   UNL     1      11.949  43.807  38.355  0.00  0.00    +0.000 A 
ATOM     31  C   UNL     1      11.836  44.518  39.551  0.00  0.00    +0.000 A 
ATOM     32  C   UNL     1      12.948  44.664  40.384  0.00  0.00    +0.000 A 
ENDBRANCH  26  27
ENDBRANCH  24  26
ENDBRANCH  18  20
ENDBRANCH   7  18
TORSDOF 5
ENDMDL
MODEL 3
REMARK VINA RESULT:    -7.267      4.249      6.468
REMARK INTER + INTRA:         -10.242
REMARK INTER:                  -9.392
REMARK INTRA:                  -0.851
REMARK UNBOUND:                -0.851
REMARK  Name = 
REMARK  5 active torsions:
REMARK  status: ('A' for Active; 'I' for Inactive)
REMARK    1  A    between atoms: C_6  and  C_7
REMARK    2  A    between atoms: C_13  and  N_14
REMARK    3  A    between atoms: N_14  and  C_15
REMARK    4  A    between atoms: C_19  and  O_20
REMARK    5  A    between atoms: O_20  and  C_21
REMARK                            x       y       z     vdW  Elec       q    Type
REMARK                         _______ _______ _______ _____ _____    ______ ____
ROOT
ATOM      1  C   UNL     1      14.190  47.865  45.268  0.00  0.00    +0.000 A 
ATOM      2  N   UNL     1      12.949  47.780  45.713  0.00  0.00    +0.000 NA
ATOM      3  C   UNL     1      12.748  46.466  46.056  0.00  0.00    +0.000 A 
ATOM      4  C   UNL     1      11.609  45.857  46.571  0.00  0.00    +0.000 A 
ATOM      5  C   UNL     1      11.724  44.503  46.815  0.00  0.00    +0.000 A 
ATOM      6  N   UNL     1      12.839  43.770  46.589  0.00  0.00    +0.000 NA
ATOM      7  C   UNL     1      13.968  44.338  46.086  0.00  0.00    +0.000 A 
ATOM      8  C   UNL     1      13.890  45.712  45.825  0.00  0.00    +0.000 A 
ATOM      9  N   UNL     1      14.786  46.624  45.323  0.00  0.00    +0.000 N 
ATOM     10  H   UNL     1      15.730  46.420  45.040  0.00  0.00    +0.000 HD
ENDROOT
BRANCH   1  16
ATOM     11  F   UNL     1      18.058  50.792  44.775  0.00  0.00    +0.000 F 
ATOM     12  C   UNL     1      16.762  50.547  44.543  0.00  0.00    +0.000 A 
ATOM     13  C   UNL     1      16.009  51.473  43.833  0.00  0.00    +0.000 A 
ATOM     14  C   UNL     1      14.664  51.214  43.593  0.00  0.00    +0.000 A 
ATOM     15  C   UNL     1      14.090  50.031  44.069  0.00  0.00    +0.000 A 
ATOM     16  C   UNL     1      14.845  49.089  44.791  0.00  0.00    +0.000 A 
ATOM     17  C   UNL     1      16.199  49.365  45.021  0.00  0.00    +0.000 A 
ENDBRANCH   1  16
BRANCH   7  18
ATOM     18  N   UNL     1      15.140  43.611  45.856  0.00  0.00    +0.000 N 
ATOM     19  H   UNL     1      15.817  43.669  46.598  0.00  0.00    +0.000 HD
BRANCH  18  20
ATOM     20  C   UNL     1      15.557  42.803  44.781  0.00  0.00    +0.000 A 
ATOM     21  C   UNL     1      16.112  43.299  43.597  0.00  0.00    +0.000 A 
ATOM     22  C   UNL     1      16.507  42.442  42.561  0.00  0.00    +0.000 A 
ATOM     23  C   UNL     1      16.343  41.067  42.687  0.00  0.00    +0.000 A 
ATOM     24  C   UNL     1      15.767  40.554  43.848  0.00  0.00    +0.000 A 
ATOM     25  C   UNL     1      15.396  41.410  44.889  0.00  0.00    +0.000 A 
BRANCH  24  26
ATOM     26  O   UNL     1      15.601  39.205  44.061  0.00  0.00    +0.000 OA
BRANCH  26  27
ATOM     27  C   UNL     1      16.660  38.516  44.608  0.00  0.00    +0.000 A 
ATOM     28  C   UNL     1      16.822  38.601  45.991  0.00  0.00    +0.000 A 
ATOM     29  C   UNL     1      17.855  37.901  46.615  0.00  0.00    +0.000 A 
ATOM     30  C   UNL     1      18.715  37.106  45.857  0.00  0.00    +0.000 A 
ATOM     31  C   UNL     1      18.539  37.003  44.477  0.00  0.00    +0.000 A 
ATOM     32  C   UNL     1      17.506  37.702  43.850  0.00  0.00    +0.000 A 
ENDBRANCH  26  27
ENDBRANCH  24  26
ENDBRANCH  18  20
ENDBRANCH   7  18
TORSDOF 5
ENDMDL
