MODEL 1
REMARK VINA RESULT:    -6.658      0.000      0.000
REMARK INTER + INTRA:          -9.345
REMARK INTER:                  -8.674
REMARK INTRA:                  -0.671
REMARK UNBOUND:                -0.741
REMARK  Name = 
REMARK  7 active torsions:
REMARK  status: ('A' for Active; 'I' for Inactive)
REMARK    1  A    between atoms: C_1  and  O_2
REMARK    2  A    between atoms: O_2  and  C_3
REMARK    3  A    between atoms: N_9  and  C_10
REMARK    4  A    between atoms: C_10  and  C_11
REMARK    5  A    between atoms: C_11  and  N_12
REMARK    6  A    between atoms: C_18  and  O_19
REMARK    7  A    between atoms: O_19  and  C_20
REMARK                            x       y       z     vdW  Elec       q    Type
REMARK                         _______ _______ _______ _____ _____    ______ ____
ROOT
ATOM      1  C   UNL     1      14.574  41.110  45.161  0.00  0.00    +0.000 C 
ENDROOT
BRANCH   1   8
ATOM      2  C   UNL     1      13.183  47.398  45.821  0.00  0.00    +0.000 A 
ATOM      3  C   UNL     1      12.261  46.660  46.575  0.00  0.00    +0.000 A 
ATOM      4  C   UNL     1      12.331  45.266  46.620  0.00  0.00    +0.000 A 
ATOM      5  C   UNL     1      13.329  44.605  45.902  0.00  0.00    +0.000 A 
ATOM      6  C   UNL     1      13.447  43.133  45.927  0.00  0.00    +0.000 A 
ATOM      7  O   UNL     1      12.676  42.485  46.632  0.00  0.00    +0.000 OA
ATOM      8  N   UNL     1      14.451  42.566  45.142  0.00  0.00    +0.000 N 
ATOM      9  C   UNL     1      15.379  43.302  44.422  0.00  0.00    +0.000 A 
ATOM     10  O   UNL     1      16.312  42.821  43.779  0.00  0.00    +0.000 OA
ATOM     11  N   UNL     1      15.236  44.661  44.440  0.00  0.00    +0.000 N 
ATOM     12  C   UNL     1      14.243  45.332  45.149  0.00  0.00    +0.000 A 
ATOM     13  C   UNL     1      14.178  46.728  45.103  0.00  0.00    +0.000 A 
ATOM     14  H   UNL     1      15.924  45.172  43.900  0.00  0.00    +0.000 HD
BRANCH   2  16
ATOM     15  C   UNL     1      11.824  49.227  46.510  0.00  0.00    +0.000 C 
ATOM     16  O   UNL     1      13.001  48.753  45.869  0.00  0.00    +0.000 OA
ENDBRANCH   2  16
ENDBRANCH   1   8
BRANCH   1  17
ATOM     17  C   UNL     1      15.698  40.566  46.076  0.00  0.00    +0.000 C 
BRANCH  17  18
ATOM     18  N   UNL     1      15.380  40.066  47.411  0.00  0.00    +0.000 NA
ATOM     19  C   UNL     1      13.999  39.696  47.656  0.00  0.00    +0.000 C 
ATOM     20  C   UNL     1      14.036  38.876  48.957  0.00  0.00    +0.000 C 
ATOM     21  C   UNL     1      13.290  39.530  50.116  0.00  0.00    +0.000 C 
ATOM     22  C   UNL     1      14.021  40.753  50.661  0.00  0.00    +0.000 C 
ATOM     23  C   UNL     1      15.425  40.403  51.097  0.00  0.00    +0.000 A 
ATOM     24  C   UNL     1      16.055  41.123  52.137  0.00  0.00    +0.000 A 
ATOM     25  C   UNL     1      17.353  40.783  52.529  0.00  0.00    +0.000 A 
ATOM     26  C   UNL     1      18.031  39.744  51.894  0.00  0.00    +0.000 A 
ATOM     27  C   UNL     1      17.424  39.048  50.851  0.00  0.00    +0.000 A 
ATOM     28  C   UNL     1      16.126  39.380  50.426  0.00  0.00    +0.000 A 
ATOM     29  C   UNL     1      15.530  38.620  49.252  0.00  0.00    +0.000 C 
ATOM     30  C   UNL     1      16.213  38.983  47.923  0.00  0.00    +0.000 C 
BRANCH  24  31
ATOM     31  O   UNL     1      15.313  42.131  52.702  0.00  0.00    +0.000 OA
ATOM     32  C   UNL     1      15.974  43.362  52.967  0.00  0.00    +0.000 C 
ENDBRANCH  24  31
ENDBRANCH  17  18
ENDBRANCH   1  17
TORSDOF 5
ENDMDL
MODEL 2
REMARK VINA RESULT:    -6.382      3.251      5.558
REMARK INTER + INTRA:          -8.988
REMARK INTER:                  -8.135
REMARK INTRA:                  -0.853
REMARK UNBOUND:                -0.741
REMARK  Name = 
REMARK  7 active torsions:
REMARK  status: ('A' for Active; 'I' for Inactive)
REMARK    1  A    between atoms: C_1  and  O_2
REMARK    2  A    between atoms: O_2  and  C_3
REMARK    3  A    between atoms: N_9  and  C_10
REMARK    4  A    between atoms: C_10  and  C_11
REMARK    5  A    between atoms: C_11  and  N_12
REMARK    6  A    between atoms: C_18  and  O_19
REMARK    7  A    between atoms: O_19  and  C_20
REMARK                            x       y       z     vdW  Elec       q    Type
REMARK                         _______ _______ _______ _____ _____    ______ ____
ROOT
ATOM      1  C   UNL     1      15.473  38.132  49.857  0.00  0.00    +0.000 C 
ENDROOT
BRANCH   1   8
ATOM      2  C   UNL     1      15.834  41.452  44.312  0.00  0.00    +0.000 A 
ATOM      3  C   UNL     1      16.380  40.180  44.101  0.00  0.00    +0.000 A 
ATOM      4  C   UNL     1      16.426  39.243  45.136  0.00  0.00    +0.000 A 
ATOM      5  C   UNL     1      15.924  39.584  46.394  0.00  0.00    +0.000 A 
ATOM      6  C   UNL     1      15.944  38.624  47.515  0.00  0.00    +0.000 A 
ATOM      7  O   UNL     1      16.369  37.487  47.320  0.00  0.00    +0.000 OA
ATOM      8  N   UNL     1      15.458  39.076  48.743  0.00  0.00    +0.000 N 
ATOM      9  C   UNL     1      14.891  40.326  48.938  0.00  0.00    +0.000 A 
ATOM     10  O   UNL     1      14.397  40.716  49.996  0.00  0.00    +0.000 OA
ATOM     11  N   UNL     1      14.885  41.174  47.867  0.00  0.00    +0.000 N 
ATOM     12  C   UNL     1      15.385  40.847  46.609  0.00  0.00    +0.000 A 
ATOM     13  C   UNL     1      15.335  41.787  45.574  0.00  0.00    +0.000 A 
ATOM     14  H   UNL     1      14.470  42.082  48.041  0.00  0.00    +0.000 HD
BRANCH   2  16
ATOM     15  C   UNL     1      15.816  43.668  43.444  0.00  0.00    +0.000 C 
ATOM     16  O   UNL     1      15.849  42.266  43.212  0.00  0.00    +0.000 OA
ENDBRANCH   2  16
ENDBRANCH   1   8
BRANCH   1  17
ATOM     17  C   UNL     1      16.751  38.177  50.729  0.00  0.00    +0.000 C 
BRANCH  17  18
ATOM     18  N   UNL     1      16.795  39.016  51.925  0.00  0.00    +0.000 NA
ATOM     19  C   UNL     1      17.206  38.371  53.158  0.00  0.00    +0.000 C 
ATOM     20  C   UNL     1      17.521  39.529  54.121  0.00  0.00    +0.000 C 
ATOM     21  C   UNL     1      16.594  39.590  55.331  0.00  0.00    +0.000 C 
ATOM     22  C   UNL     1      15.187  40.049  54.963  0.00  0.00    +0.000 C 
ATOM     23  C   UNL     1      15.212  41.395  54.277  0.00  0.00    +0.000 A 
ATOM     24  C   UNL     1      14.115  42.279  54.390  0.00  0.00    +0.000 A 
ATOM     25  C   UNL     1      14.157  43.522  53.751  0.00  0.00    +0.000 A 
ATOM     26  C   UNL     1      15.271  43.890  52.998  0.00  0.00    +0.000 A 
ATOM     27  C   UNL     1      16.343  43.011  52.863  0.00  0.00    +0.000 A 
ATOM     28  C   UNL     1      16.321  41.749  53.481  0.00  0.00    +0.000 A 
ATOM     29  C   UNL     1      17.497  40.812  53.261  0.00  0.00    +0.000 C 
ATOM     30  C   UNL     1      17.540  40.266  51.824  0.00  0.00    +0.000 C 
BRANCH  24  31
ATOM     31  O   UNL     1      13.062  41.833  55.149  0.00  0.00    +0.000 OA
ATOM     32  C   UNL     1      11.940  42.696  55.285  0.00  0.00    +0.000 C 
ENDBRANCH  24  31
ENDBRANCH  17  18
ENDBRANCH   1  17
TORSDOF 5
ENDMDL
MODEL 3
REMARK VINA RESULT:    -6.130      4.956      8.673
REMARK INTER + INTRA:          -8.663
REMARK INTER:                  -7.922
REMARK INTRA:                  -0.741
REMARK UNBOUND:                -0.741
REMARK  Name = 
REMARK  7 active torsions:
REMARK  status: ('A' for Active; 'I' for Inactive)
REMARK    1  A    between atoms: C_1  and  O_2
REMARK    2  A    between atoms: O_2  and  C_3
REMARK    3  A    between atoms: N_9  and  C_10
REMARK    4  A    between atoms: C_10  and  C_11
REMARK    5  A    between atoms: C_11  and  N_12
REMARK    6  A    between atoms: C_18  and  O_19
REMARK    7  A    between atoms: O_19  and  C_20
REMARK                            x       y       z     vdW  Elec       q    Type
REMARK                         _______ _______ _______ _____ _____    ______ ____
ROOT
ATOM      1  C   UNL     1      12.499  43.180  42.311  0.00  0.00    +0.000 C 
ENDROOT
BRANCH   1   8
ATOM      2  C   UNL     1      17.352  38.900  42.523  0.00  0.00    +0.000 A 
ATOM      3  C   UNL     1      16.851  39.064  43.820  0.00  0.00    +0.000 A 
ATOM      4  C   UNL     1      15.785  39.933  44.069  0.00  0.00    +0.000 A 
ATOM      5  C   UNL     1      15.220  40.646  43.010  0.00  0.00    +0.000 A 
ATOM      6  C   UNL     1      14.087  41.568  43.223  0.00  0.00    +0.000 A 
ATOM      7  O   UNL     1      13.606  41.672  44.350  0.00  0.00    +0.000 OA
ATOM      8  N   UNL     1      13.621  42.265  42.108  0.00  0.00    +0.000 N 
ATOM      9  C   UNL     1      14.100  42.077  40.821  0.00  0.00    +0.000 A 
ATOM     10  O   UNL     1      13.656  42.632  39.817  0.00  0.00    +0.000 OA
ATOM     11  N   UNL     1      15.141  41.204  40.673  0.00  0.00    +0.000 N 
ATOM     12  C   UNL     1      15.716  40.489  41.721  0.00  0.00    +0.000 A 
ATOM     13  C   UNL     1      16.781  39.619  41.468  0.00  0.00    +0.000 A 
ATOM     14  H   UNL     1      15.475  41.090  39.723  0.00  0.00    +0.000 HD
BRANCH   2  16
ATOM     15  C   UNL     1      18.070  36.633  42.423  0.00  0.00    +0.000 C 
ATOM     16  O   UNL     1      18.392  38.017  42.423  0.00  0.00    +0.000 OA
ENDBRANCH   2  16
ENDBRANCH   1   8
BRANCH   1  17
ATOM     17  C   UNL     1      12.881  44.679  42.335  0.00  0.00    +0.000 C 
BRANCH  17  18
ATOM     18  N   UNL     1      13.052  45.373  43.609  0.00  0.00    +0.000 NA
ATOM     19  C   UNL     1      12.199  44.945  44.703  0.00  0.00    +0.000 C 
ATOM     20  C   UNL     1      12.841  45.551  45.963  0.00  0.00    +0.000 C 
ATOM     21  C   UNL     1      11.962  46.583  46.662  0.00  0.00    +0.000 C 
ATOM     22  C   UNL     1      11.857  47.886  45.876  0.00  0.00    +0.000 C 
ATOM     23  C   UNL     1      13.222  48.479  45.614  0.00  0.00    +0.000 A 
ATOM     24  C   UNL     1      13.384  49.877  45.482  0.00  0.00    +0.000 A 
ATOM     25  C   UNL     1      14.655  50.408  45.243  0.00  0.00    +0.000 A 
ATOM     26  C   UNL     1      15.760  49.567  45.127  0.00  0.00    +0.000 A 
ATOM     27  C   UNL     1      15.600  48.187  45.231  0.00  0.00    +0.000 A 
ATOM     28  C   UNL     1      14.332  47.625  45.455  0.00  0.00    +0.000 A 
ATOM     29  C   UNL     1      14.208  46.111  45.511  0.00  0.00    +0.000 C 
ATOM     30  C   UNL     1      14.410  45.463  44.132  0.00  0.00    +0.000 C 
BRANCH  24  31
ATOM     31  O   UNL     1      12.241  50.627  45.608  0.00  0.00    +0.000 OA
ATOM     32  C   UNL     1      12.031  51.666  44.660  0.00  0.00    +0.000 C 
ENDBRANCH  24  31
ENDBRANCH  17  18
ENDBRANCH   1  17
TORSDOF 5
ENDMDL
