MODEL 1
REMARK VINA RESULT:    -6.452      0.000      0.000
REMARK INTER + INTRA:          -9.176
REMARK INTER:                  -8.026
REMARK INTRA:                  -1.150
REMARK UNBOUND:                -1.216
REMARK  Name = 
REMARK  5 active torsions:
REMARK  status: ('A' for Active; 'I' for Inactive)
REMARK    1  A    between atoms: C_1  and  C_2
REMARK    2  A    between atoms: C_4  and  C_5
REMARK    3  A    between atoms: N_7  and  C_8
REMARK    4  A    between atoms: C_11  and  N_12
REMARK    5  A    between atoms: N_20  and  C_21
REMARK                            x       y       z     vdW  Elec       q    Type
REMARK                         _______ _______ _______ _____ _____    ______ ____
ROOT
ATOM      1  C   UNL     1      17.426  36.758  55.674  0.00  0.00    +0.000 C 
ATOM      2  C   UNL     1      17.079  37.755  54.633  0.00  0.00    +0.000 A 
ATOM      3  C   UNL     1      17.333  37.689  53.255  0.00  0.00    +0.000 A 
ATOM      4  C   UNL     1      16.892  38.895  52.737  0.00  0.00    +0.000 A 
ATOM      5  N   UNL     1      16.239  39.532  53.782  0.00  0.00    +0.000 N 
ATOM      6  N   UNL     1      16.493  38.906  54.965  0.00  0.00    +0.000 NA
ENDROOT
BRANCH   5   7
ATOM      7  C   UNL     1      15.400  40.690  53.777  0.00  0.00    +0.000 A 
ATOM      8  C   UNL     1      14.022  40.533  53.993  0.00  0.00    +0.000 A 
ATOM      9  C   UNL     1      13.177  41.644  54.017  0.00  0.00    +0.000 A 
ATOM     10  C   UNL     1      13.684  42.935  53.811  0.00  0.00    +0.000 A 
ATOM     11  C   UNL     1      12.845  44.062  53.835  0.00  0.00    +0.000 A 
ATOM     12  C   UNL     1      13.372  45.334  53.617  0.00  0.00    +0.000 A 
ATOM     13 CL   UNL     1      12.333  46.706  53.642  0.00  0.00    +0.000 Cl
ATOM     14  C   UNL     1      14.732  45.505  53.373  0.00  0.00    +0.000 A 
ATOM     15  C   UNL     1      15.577  44.392  53.345  0.00  0.00    +0.000 A 
ATOM     16  C   UNL     1      15.068  43.101  53.562  0.00  0.00    +0.000 A 
ATOM     17  C   UNL     1      15.907  41.973  53.532  0.00  0.00    +0.000 A 
ENDBRANCH   5   7
BRANCH   4  18
ATOM     18  C   UNL     1      17.092  39.356  51.385  0.00  0.00    +0.000 C 
ATOM     19  O   UNL     1      17.970  40.168  51.117  0.00  0.00    +0.000 OA
ATOM     20  N   UNL     1      16.178  38.838  50.483  0.00  0.00    +0.000 N 
ATOM     21  H   UNL     1      15.465  38.224  50.857  0.00  0.00    +0.000 HD
BRANCH  20  22
ATOM     22  C   UNL     1      16.111  39.062  49.092  0.00  0.00    +0.000 A 
ATOM     23  C   UNL     1      17.009  38.530  48.166  0.00  0.00    +0.000 A 
ATOM     24  C   UNL     1      16.872  38.813  46.800  0.00  0.00    +0.000 A 
ATOM     25  C   UNL     1      15.836  39.630  46.335  0.00  0.00    +0.000 A 
ATOM     26  C   UNL     1      14.929  40.144  47.265  0.00  0.00    +0.000 A 
ATOM     27  C   UNL     1      15.066  39.869  48.630  0.00  0.00    +0.000 A 
BRANCH  25  28
ATOM     28  N   UNL     1      15.661  39.945  44.981  0.00  0.00    +0.000 N 
ATOM     29  C   UNL     1      16.181  38.915  44.062  0.00  0.00    +0.000 C 
ATOM     30  C   UNL     1      17.122  39.509  43.014  0.00  0.00    +0.000 C 
ATOM     31  C   UNL     1      16.481  40.678  42.264  0.00  0.00    +0.000 C 
ATOM     32  C   UNL     1      15.646  41.581  43.174  0.00  0.00    +0.000 C 
ATOM     33  C   UNL     1      15.953  41.347  44.651  0.00  0.00    +0.000 C 
ENDBRANCH  25  28
ENDBRANCH  20  22
ENDBRANCH   4  18
TORSDOF 4
ENDMDL
MODEL 2
REMARK VINA RESULT:    -6.342      2.376      3.668
REMARK INTER + INTRA:          -9.041
REMARK INTER:                  -7.876
REMARK INTRA:                  -1.165
REMARK UNBOUND:                -1.216
REMARK  Name = 
REMARK  5 active torsions:
REMARK  status: ('A' for Active; 'I' for Inactive)
REMARK    1  A    between atoms: C_1  and  C_2
REMARK    2  A    between atoms: C_4  and  C_5
REMARK    3  A    between atoms: N_7  and  C_8
REMARK    4  A    between atoms: C_11  and  N_12
REMARK    5  A    between atoms: N_20  and  C_21
REMARK                            x       y       z     vdW  Elec       q    Type
REMARK                         _______ _______ _______ _____ _____    ______ ____
ROOT
ATOM      1  C   UNL     1      16.745  33.898  51.359  0.00  0.00    +0.000 C 
ATOM      2  C   UNL     1      16.402  35.226  50.796  0.00  0.00    +0.000 A 
ATOM      3  C   UNL     1      15.742  35.509  49.590  0.00  0.00    +0.000 A 
ATOM      4  C   UNL     1      15.741  36.889  49.482  0.00  0.00    +0.000 A 
ATOM      5  N   UNL     1      16.224  37.358  50.695  0.00  0.00    +0.000 N 
ATOM      6  N   UNL     1      16.768  36.344  51.423  0.00  0.00    +0.000 NA
ENDROOT
BRANCH   5   7
ATOM      7  C   UNL     1      16.233  38.681  51.235  0.00  0.00    +0.000 A 
ATOM      8  C   UNL     1      17.459  39.349  51.380  0.00  0.00    +0.000 A 
ATOM      9  C   UNL     1      17.502  40.651  51.884  0.00  0.00    +0.000 A 
ATOM     10  C   UNL     1      16.326  41.311  52.268  0.00  0.00    +0.000 A 
ATOM     11  C   UNL     1      16.355  42.621  52.773  0.00  0.00    +0.000 A 
ATOM     12  C   UNL     1      15.173  43.252  53.157  0.00  0.00    +0.000 A 
ATOM     13 CL   UNL     1      15.223  44.855  53.782  0.00  0.00    +0.000 Cl
ATOM     14  C   UNL     1      13.951  42.594  53.046  0.00  0.00    +0.000 A 
ATOM     15  C   UNL     1      13.908  41.290  52.546  0.00  0.00    +0.000 A 
ATOM     16  C   UNL     1      15.087  40.635  52.153  0.00  0.00    +0.000 A 
ATOM     17  C   UNL     1      15.057  39.321  51.652  0.00  0.00    +0.000 A 
ENDBRANCH   5   7
BRANCH   4  18
ATOM     18  C   UNL     1      15.316  37.645  48.328  0.00  0.00    +0.000 C 
ATOM     19  O   UNL     1      14.135  37.698  48.008  0.00  0.00    +0.000 OA
ATOM     20  N   UNL     1      16.363  38.224  47.631  0.00  0.00    +0.000 N 
ATOM     21  H   UNL     1      17.297  38.044  47.976  0.00  0.00    +0.000 HD
BRANCH  20  22
ATOM     22  C   UNL     1      16.291  39.043  46.484  0.00  0.00    +0.000 A 
ATOM     23  C   UNL     1      16.728  38.660  45.216  0.00  0.00    +0.000 A 
ATOM     24  C   UNL     1      16.626  39.544  44.133  0.00  0.00    +0.000 A 
ATOM     25  C   UNL     1      16.087  40.824  44.297  0.00  0.00    +0.000 A 
ATOM     26  C   UNL     1      15.634  41.195  45.566  0.00  0.00    +0.000 A 
ATOM     27  C   UNL     1      15.739  40.317  46.650  0.00  0.00    +0.000 A 
BRANCH  25  28
ATOM     28  N   UNL     1      15.969  41.743  43.247  0.00  0.00    +0.000 N 
ATOM     29  C   UNL     1      16.290  43.130  43.634  0.00  0.00    +0.000 C 
ATOM     30  C   UNL     1      15.180  44.104  43.240  0.00  0.00    +0.000 C 
ATOM     31  C   UNL     1      14.816  43.991  41.760  0.00  0.00    +0.000 C 
ATOM     32  C   UNL     1      14.808  42.545  41.258  0.00  0.00    +0.000 C 
ATOM     33  C   UNL     1      14.779  41.542  42.408  0.00  0.00    +0.000 C 
ENDBRANCH  25  28
ENDBRANCH  20  22
ENDBRANCH   4  18
TORSDOF 4
ENDMDL
MODEL 3
REMARK VINA RESULT:    -6.313      4.711      7.192
REMARK INTER + INTRA:          -9.005
REMARK INTER:                  -7.789
REMARK INTRA:                  -1.216
REMARK UNBOUND:                -1.216
REMARK  Name = 
REMARK  5 active torsions:
REMARK  status: ('A' for Active; 'I' for Inactive)
REMARK    1  A    between atoms: C_1  and  C_2
REMARK    2  A    between atoms: C_4  and  C_5
REMARK    3  A    between atoms: N_7  and  C_8
REMARK    4  A    between atoms: C_11  and  N_12
REMARK    5  A    between atoms: N_20  and  C_21
REMARK                            x       y       z     vdW  Elec       q    Type
REMARK                         _______ _______ _______ _____ _____    ______ ____
ROOT
ATOM      1  C   UNL     1      15.529  35.878  54.745  0.00  0.00    +0.000 C 
ATOM      2  C   UNL     1      16.215  36.463  53.569  0.00  0.00    +0.000 A 
ATOM      3  C   UNL     1      15.997  37.715  52.975  0.00  0.00    +0.000 A 
ATOM      4  C   UNL     1      16.824  37.750  51.865  0.00  0.00    +0.000 A 
ATOM      5  N   UNL     1      17.617  36.616  51.955  0.00  0.00    +0.000 N 
ATOM      6  N   UNL     1      17.135  35.763  52.903  0.00  0.00    +0.000 NA
ENDROOT
BRANCH   5   7
ATOM      7  C   UNL     1      18.788  36.247  51.223  0.00  0.00    +0.000 A 
ATOM      8  C   UNL     1      20.032  36.268  51.873  0.00  0.00    +0.000 A 
ATOM      9  C   UNL     1      21.193  35.893  51.194  0.00  0.00    +0.000 A 
ATOM     10  C   UNL     1      21.142  35.503  49.848  0.00  0.00    +0.000 A 
ATOM     11  C   UNL     1      22.302  35.120  49.154  0.00  0.00    +0.000 A 
ATOM     12  C   UNL     1      22.227  34.746  47.813  0.00  0.00    +0.000 A 
ATOM     13 CL   UNL     1      23.656  34.287  46.972  0.00  0.00    +0.000 Cl
ATOM     14  C   UNL     1      21.005  34.747  47.145  0.00  0.00    +0.000 A 
ATOM     15  C   UNL     1      19.844  35.126  47.823  0.00  0.00    +0.000 A 
ATOM     16  C   UNL     1      19.897  35.507  49.175  0.00  0.00    +0.000 A 
ATOM     17  C   UNL     1      18.735  35.895  49.867  0.00  0.00    +0.000 A 
ENDBRANCH   5   7
BRANCH   4  18
ATOM     18  C   UNL     1      16.828  38.774  50.848  0.00  0.00    +0.000 C 
ATOM     19  O   UNL     1      17.473  39.806  50.993  0.00  0.00    +0.000 OA
ATOM     20  N   UNL     1      16.010  38.485  49.769  0.00  0.00    +0.000 N 
ATOM     21  H   UNL     1      15.486  37.620  49.811  0.00  0.00    +0.000 HD
BRANCH  20  22
ATOM     22  C   UNL     1      15.811  39.254  48.603  0.00  0.00    +0.000 A 
ATOM     23  C   UNL     1      16.519  39.079  47.414  0.00  0.00    +0.000 A 
ATOM     24  C   UNL     1      16.261  39.897  46.306  0.00  0.00    +0.000 A 
ATOM     25  C   UNL     1      15.290  40.902  46.365  0.00  0.00    +0.000 A 
ATOM     26  C   UNL     1      14.570  41.060  47.552  0.00  0.00    +0.000 A 
ATOM     27  C   UNL     1      14.830  40.250  48.662  0.00  0.00    +0.000 A 
BRANCH  25  28
ATOM     28  N   UNL     1      14.999  41.746  45.286  0.00  0.00    +0.000 N 
ATOM     29  C   UNL     1      15.810  41.474  44.085  0.00  0.00    +0.000 C 
ATOM     30  C   UNL     1      16.488  42.737  43.555  0.00  0.00    +0.000 C 
ATOM     31  C   UNL     1      15.489  43.872  43.328  0.00  0.00    +0.000 C 
ATOM     32  C   UNL     1      14.421  43.952  44.421  0.00  0.00    +0.000 C 
ATOM     33  C   UNL     1      14.814  43.155  45.662  0.00  0.00    +0.000 C 
ENDBRANCH  25  28
ENDBRANCH  20  22
ENDBRANCH   4  18
TORSDOF 4
ENDMDL
