MODEL 1
REMARK VINA RESULT:    -7.261      0.000      0.000
REMARK INTER + INTRA:         -11.585
REMARK INTER:                 -10.622
REMARK INTRA:                  -0.963
REMARK UNBOUND:                -0.928
REMARK  Name = 
REMARK  9 active torsions:
REMARK  status: ('A' for Active; 'I' for Inactive)
REMARK    1  A    between atoms: C_2  and  O_3
REMARK    2  A    between atoms: C_2  and  C_4
REMARK    3  A    between atoms: C_9  and  C_10
REMARK    4  A    between atoms: C_10  and  C_12
REMARK    5  A    between atoms: C_13  and  C_14
REMARK    6  A    between atoms: C_17  and  O_18
REMARK    7  A    between atoms: O_18  and  C_19
REMARK    8  A    between atoms: C_19  and  C_20
REMARK    9  A    between atoms: C_32  and  O_33
REMARK                            x       y       z     vdW  Elec       q    Type
REMARK                         _______ _______ _______ _____ _____    ______ ____
ROOT
ATOM      1  C   UNL     1      18.564  37.015  50.604  0.00  0.00    +0.000 A 
ATOM      2  C   UNL     1      19.670  37.093  51.456  0.00  0.00    +0.000 A 
ATOM      3  C   UNL     1      20.828  36.358  51.183  0.00  0.00    +0.000 A 
ATOM      4  C   UNL     1      20.897  35.521  50.067  0.00  0.00    +0.000 A 
ATOM      5  C   UNL     1      19.793  35.430  49.220  0.00  0.00    +0.000 A 
ATOM      6  C   UNL     1      18.633  36.166  49.493  0.00  0.00    +0.000 A 
ENDROOT
BRANCH   1   8
ATOM      7  C   UNL     1      17.143  39.046  50.581  0.00  0.00    +0.000 C 
ATOM      8  C   UNL     1      17.318  37.746  50.864  0.00  0.00    +0.000 C 
BRANCH   7   9
ATOM      9  C   UNL     1      15.836  39.693  50.868  0.00  0.00    +0.000 C 
ATOM     10  O   UNL     1      14.864  39.562  50.132  0.00  0.00    +0.000 OA
BRANCH   9  16
ATOM     11  C   UNL     1      15.291  41.103  54.383  0.00  0.00    +0.000 A 
ATOM     12  C   UNL     1      15.574  42.453  54.133  0.00  0.00    +0.000 A 
ATOM     13  C   UNL     1      15.917  42.862  52.852  0.00  0.00    +0.000 A 
ATOM     14  F   UNL     1      16.176  44.155  52.623  0.00  0.00    +0.000 F 
ATOM     15  C   UNL     1      15.996  41.953  51.807  0.00  0.00    +0.000 A 
ATOM     16  C   UNL     1      15.739  40.596  52.044  0.00  0.00    +0.000 A 
ATOM     17  C   UNL     1      15.370  40.168  53.331  0.00  0.00    +0.000 A 
BRANCH  11  19
ATOM     18  O   UNL     1      14.300  39.770  56.129  0.00  0.00    +0.000 OA
ATOM     19  C   UNL     1      14.913  40.759  55.776  0.00  0.00    +0.000 C 
BRANCH  19  20
ATOM     20  O   UNL     1      15.327  41.674  56.677  0.00  0.00    +0.000 OA
ATOM     21  H   UNL     1      14.523  41.819  57.228  0.00  0.00    +0.000 HD
ENDBRANCH  19  20
ENDBRANCH  11  19
BRANCH  17  22
ATOM     22  O   UNL     1      15.067  38.846  53.520  0.00  0.00    +0.000 OA
ATOM     23  H   UNL     1      15.613  38.501  54.260  0.00  0.00    +0.000 HD
ENDBRANCH  17  22
ENDBRANCH   9  16
ENDBRANCH   7   9
ENDBRANCH   1   8
BRANCH   4  24
ATOM     24  O   UNL     1      22.089  34.868  49.918  0.00  0.00    +0.000 OA
BRANCH  24  25
ATOM     25  C   UNL     1      22.211  33.551  50.464  0.00  0.00    +0.000 C 
BRANCH  25  26
ATOM     26  C   UNL     1      22.812  33.536  51.854  0.00  0.00    +0.000 A 
ATOM     27  C   UNL     1      24.144  33.190  52.044  0.00  0.00    +0.000 A 
ATOM     28  C   UNL     1      24.659  33.199  53.335  0.00  0.00    +0.000 A 
ATOM     29  C   UNL     1      23.837  33.558  54.408  0.00  0.00    +0.000 A 
ATOM     30  C   UNL     1      24.314  33.580  55.732  0.00  0.00    +0.000 A 
ATOM     31  C   UNL     1      23.470  33.942  56.778  0.00  0.00    +0.000 A 
ATOM     32  C   UNL     1      22.150  34.284  56.509  0.00  0.00    +0.000 A 
ATOM     33  C   UNL     1      21.679  34.260  55.192  0.00  0.00    +0.000 A 
ATOM     34  C   UNL     1      22.499  33.902  54.130  0.00  0.00    +0.000 A 
ATOM     35  N   UNL     1      21.998  33.895  52.880  0.00  0.00    +0.000 NA
ENDBRANCH  25  26
ENDBRANCH  24  25
ENDBRANCH   4  24
TORSDOF 9
ENDMDL
MODEL 2
REMARK VINA RESULT:    -7.190      1.753      2.310
REMARK INTER + INTRA:         -11.480
REMARK INTER:                 -10.193
REMARK INTRA:                  -1.287
REMARK UNBOUND:                -0.928
REMARK  Name = 
REMARK  9 active torsions:
REMARK  status: ('A' for Active; 'I' for Inactive)
REMARK    1  A    between atoms: C_2  and  O_3
REMARK    2  A    between atoms: C_2  and  C_4
REMARK    3  A    between atoms: C_9  and  C_10
REMARK    4  A    between atoms: C_10  and  C_12
REMARK    5  A    between atoms: C_13  and  C_14
REMARK    6  A    between atoms: C_17  and  O_18
REMARK    7  A    between atoms: O_18  and  C_19
REMARK    8  A    between atoms: C_19  and  C_20
REMARK    9  A    between atoms: C_32  and  O_33
REMARK                            x       y       z     vdW  Elec       q    Type
REMARK                         _______ _______ _______ _____ _____    ______ ____
ROOT
ATOM      1  C   UNL     1      18.310  37.261  50.500  0.00  0.00    +0.000 A 
ATOM      2  C   UNL     1      18.490  36.393  49.419  0.00  0.00    +0.000 A 
ATOM      3  C   UNL     1      19.654  35.624  49.315  0.00  0.00    +0.000 A 
ATOM      4  C   UNL     1      20.662  35.718  50.277  0.00  0.00    +0.000 A 
ATOM      5  C   UNL     1      20.492  36.590  51.352  0.00  0.00    +0.000 A 
ATOM      6  C   UNL     1      19.328  37.361  51.457  0.00  0.00    +0.000 A 
ENDROOT
BRANCH   1   8
ATOM      7  C   UNL     1      16.168  37.913  51.565  0.00  0.00    +0.000 C 
ATOM      8  C   UNL     1      17.119  38.109  50.638  0.00  0.00    +0.000 C 
BRANCH   7   9
ATOM      9  C   UNL     1      15.005  38.837  51.634  0.00  0.00    +0.000 C 
ATOM     10  O   UNL     1      14.089  38.799  50.819  0.00  0.00    +0.000 OA
BRANCH   9  16
ATOM     11  C   UNL     1      15.258  42.177  53.482  0.00  0.00    +0.000 A 
ATOM     12  C   UNL     1      14.997  41.735  54.786  0.00  0.00    +0.000 A 
ATOM     13  C   UNL     1      14.761  40.389  55.027  0.00  0.00    +0.000 A 
ATOM     14  F   UNL     1      14.522  39.977  56.277  0.00  0.00    +0.000 F 
ATOM     15  C   UNL     1      14.769  39.465  53.992  0.00  0.00    +0.000 A 
ATOM     16  C   UNL     1      15.004  39.892  52.678  0.00  0.00    +0.000 A 
ATOM     17  C   UNL     1      15.266  41.250  52.421  0.00  0.00    +0.000 A 
BRANCH  11  19
ATOM     18  O   UNL     1      14.748  44.530  53.590  0.00  0.00    +0.000 OA
ATOM     19  C   UNL     1      15.519  43.629  53.321  0.00  0.00    +0.000 C 
BRANCH  19  20
ATOM     20  O   UNL     1      16.747  43.893  52.829  0.00  0.00    +0.000 OA
ATOM     21  H   UNL     1      17.024  44.686  53.345  0.00  0.00    +0.000 HD
ENDBRANCH  19  20
ENDBRANCH  11  19
BRANCH  17  22
ATOM     22  O   UNL     1      15.552  41.629  51.136  0.00  0.00    +0.000 OA
ATOM     23  H   UNL     1      15.106  41.008  50.519  0.00  0.00    +0.000 HD
ENDBRANCH  17  22
ENDBRANCH   9  16
ENDBRANCH   7   9
ENDBRANCH   1   8
BRANCH   4  24
ATOM     24  O   UNL     1      21.739  34.905  50.054  0.00  0.00    +0.000 OA
BRANCH  24  25
ATOM     25  C   UNL     1      21.749  33.613  50.669  0.00  0.00    +0.000 C 
BRANCH  25  26
ATOM     26  C   UNL     1      22.472  33.592  51.999  0.00  0.00    +0.000 A 
ATOM     27  C   UNL     1      23.815  33.238  52.067  0.00  0.00    +0.000 A 
ATOM     28  C   UNL     1      24.444  33.242  53.306  0.00  0.00    +0.000 A 
ATOM     29  C   UNL     1      23.725  33.605  54.450  0.00  0.00    +0.000 A 
ATOM     30  C   UNL     1      24.320  33.622  55.725  0.00  0.00    +0.000 A 
ATOM     31  C   UNL     1      23.576  33.988  56.844  0.00  0.00    +0.000 A 
ATOM     32  C   UNL     1      22.239  34.338  56.695  0.00  0.00    +0.000 A 
ATOM     33  C   UNL     1      21.651  34.319  55.427  0.00  0.00    +0.000 A 
ATOM     34  C   UNL     1      22.369  33.958  54.294  0.00  0.00    +0.000 A 
ATOM     35  N   UNL     1      21.758  33.956  53.095  0.00  0.00    +0.000 NA
ENDBRANCH  25  26
ENDBRANCH  24  25
ENDBRANCH   4  24
TORSDOF 9
ENDMDL
MODEL 3
REMARK VINA RESULT:    -7.005      8.429     11.083
REMARK INTER + INTRA:         -11.209
REMARK INTER:                 -10.281
REMARK INTRA:                  -0.928
REMARK UNBOUND:                -0.928
REMARK  Name = 
REMARK  9 active torsions:
REMARK  status: ('A' for Active; 'I' for Inactive)
REMARK    1  A    between atoms: C_2  and  O_3
REMARK    2  A    between atoms: C_2  and  C_4
REMARK    3  A    between atoms: C_9  and  C_10
REMARK    4  A    between atoms: C_10  and  C_12
REMARK    5  A    between atoms: C_13  and  C_14
REMARK    6  A    between atoms: C_17  and  O_18
REMARK    7  A    between atoms: O_18  and  C_19
REMARK    8  A    between atoms: C_19  and  C_20
REMARK    9  A    between atoms: C_32  and  O_33
REMARK                            x       y       z     vdW  Elec       q    Type
REMARK                         _______ _______ _______ _____ _____    ______ ____
ROOT
ATOM      1  C   UNL     1      14.881  43.913  45.114  0.00  0.00    +0.000 A 
ATOM      2  C   UNL     1      15.492  43.682  43.878  0.00  0.00    +0.000 A 
ATOM      3  C   UNL     1      15.989  42.415  43.558  0.00  0.00    +0.000 A 
ATOM      4  C   UNL     1      15.900  41.361  44.471  0.00  0.00    +0.000 A 
ATOM      5  C   UNL     1      15.301  41.588  45.709  0.00  0.00    +0.000 A 
ATOM      6  C   UNL     1      14.804  42.856  46.030  0.00  0.00    +0.000 A 
ENDROOT
BRANCH   1   8
ATOM      7  C   UNL     1      14.550  46.346  44.779  0.00  0.00    +0.000 C 
ATOM      8  C   UNL     1      14.369  45.232  45.505  0.00  0.00    +0.000 C 
BRANCH   7   9
ATOM      9  C   UNL     1      13.978  47.635  45.254  0.00  0.00    +0.000 C 
ATOM     10  O   UNL     1      13.005  47.685  45.999  0.00  0.00    +0.000 OA
BRANCH   9  16
ATOM     11  C   UNL     1      16.346  50.530  44.448  0.00  0.00    +0.000 A 
ATOM     12  C   UNL     1      15.473  51.337  43.705  0.00  0.00    +0.000 A 
ATOM     13  C   UNL     1      14.162  50.932  43.500  0.00  0.00    +0.000 A 
ATOM     14  F   UNL     1      13.335  51.715  42.798  0.00  0.00    +0.000 F 
ATOM     15  C   UNL     1      13.696  49.729  44.010  0.00  0.00    +0.000 A 
ATOM     16  C   UNL     1      14.561  48.898  44.735  0.00  0.00    +0.000 A 
ATOM     17  C   UNL     1      15.887  49.304  44.969  0.00  0.00    +0.000 A 
BRANCH  11  19
ATOM     18  O   UNL     1      18.043  52.221  44.701  0.00  0.00    +0.000 OA
ATOM     19  C   UNL     1      17.723  51.051  44.634  0.00  0.00    +0.000 C 
BRANCH  19  20
ATOM     20  O   UNL     1      18.647  50.074  44.735  0.00  0.00    +0.000 OA
ATOM     21  H   UNL     1      18.320  49.539  45.496  0.00  0.00    +0.000 HD
ENDBRANCH  19  20
ENDBRANCH  11  19
BRANCH  17  22
ATOM     22  O   UNL     1      16.693  48.499  45.731  0.00  0.00    +0.000 OA
ATOM     23  H   UNL     1      16.206  48.252  46.548  0.00  0.00    +0.000 HD
ENDBRANCH  17  22
ENDBRANCH   9  16
ENDBRANCH   7   9
ENDBRANCH   1   8
BRANCH   4  24
ATOM     24  O   UNL     1      16.420  40.178  44.025  0.00  0.00    +0.000 OA
BRANCH  24  25
ATOM     25  C   UNL     1      15.798  38.962  44.454  0.00  0.00    +0.000 C 
BRANCH  25  26
ATOM     26  C   UNL     1      16.690  38.118  45.341  0.00  0.00    +0.000 A 
ATOM     27  C   UNL     1      17.596  37.224  44.784  0.00  0.00    +0.000 A 
ATOM     28  C   UNL     1      18.403  36.476  45.633  0.00  0.00    +0.000 A 
ATOM     29  C   UNL     1      18.295  36.640  47.018  0.00  0.00    +0.000 A 
ATOM     30  C   UNL     1      19.090  35.904  47.916  0.00  0.00    +0.000 A 
ATOM     31  C   UNL     1      18.958  36.091  49.289  0.00  0.00    +0.000 A 
ATOM     32  C   UNL     1      18.035  37.012  49.771  0.00  0.00    +0.000 A 
ATOM     33  C   UNL     1      17.246  37.741  48.876  0.00  0.00    +0.000 A 
ATOM     34  C   UNL     1      17.356  37.574  47.502  0.00  0.00    +0.000 A 
ATOM     35  N   UNL     1      16.574  38.300  46.682  0.00  0.00    +0.000 NA
ENDBRANCH  25  26
ENDBRANCH  24  25
ENDBRANCH   4  24
TORSDOF 9
ENDMDL
