MODEL 1
REMARK VINA RESULT:    -6.501      0.000      0.000
REMARK INTER + INTRA:          -8.385
REMARK INTER:                  -7.617
REMARK INTRA:                  -0.768
REMARK UNBOUND:                -0.744
REMARK  Name = 
REMARK  3 active torsions:
REMARK  status: ('A' for Active; 'I' for Inactive)
REMARK    1  A    between atoms: C_7  and  C_8
REMARK    2  A    between atoms: C_8  and  C_10
REMARK    3  A    between atoms: C_18  and  C_19
REMARK                            x       y       z     vdW  Elec       q    Type
REMARK                         _______ _______ _______ _____ _____    ______ ____
ROOT
ATOM      1  O   UNL     1      12.313  50.307  46.149  0.00  0.00    +0.000 OA
ATOM      2  C   UNL     1      12.498  49.104  46.142  0.00  0.00    +0.000 C 
ATOM      3  O   UNL     1      11.623  48.177  46.711  0.00  0.00    +0.000 OA
ATOM      4  C   UNL     1      12.193  46.931  46.488  0.00  0.00    +0.000 A 
ATOM      5  C   UNL     1      11.618  45.751  46.923  0.00  0.00    +0.000 A 
ATOM      6  C   UNL     1      12.286  44.555  46.644  0.00  0.00    +0.000 A 
ATOM      7  C   UNL     1      13.498  44.570  45.923  0.00  0.00    +0.000 A 
ATOM      8  C   UNL     1      14.073  45.783  45.510  0.00  0.00    +0.000 A 
ATOM      9  C   UNL     1      13.396  46.955  45.800  0.00  0.00    +0.000 A 
ATOM     10  C   UNL     1      13.646  48.352  45.547  0.00  0.00    +0.000 C 
ATOM     11  C   UNL     1      14.726  48.838  44.917  0.00  0.00    +0.000 C 
ENDROOT
BRANCH  11  12
ATOM     12  C   UNL     1      15.020  50.248  44.644  0.00  0.00    +0.000 A 
ATOM     13  C   UNL     1      14.489  50.904  43.528  0.00  0.00    +0.000 A 
ATOM     14  C   UNL     1      14.819  52.237  43.271  0.00  0.00    +0.000 A 
ATOM     15  C   UNL     1      15.689  52.919  44.120  0.00  0.00    +0.000 A 
ATOM     16  C   UNL     1      16.232  52.268  45.227  0.00  0.00    +0.000 A 
ATOM     17  C   UNL     1      15.901  50.937  45.486  0.00  0.00    +0.000 A 
ENDBRANCH  11  12
BRANCH   7  18
ATOM     18  C   UNL     1      14.239  43.312  45.641  0.00  0.00    +0.000 C 
ATOM     19  O   UNL     1      14.348  42.527  46.584  0.00  0.00    +0.000 OA
BRANCH  18  20
ATOM     20  C   UNL     1      14.788  43.036  44.321  0.00  0.00    +0.000 A 
ATOM     21  C   UNL     1      16.131  42.985  43.989  0.00  0.00    +0.000 A 
ATOM     22  C   UNL     1      16.348  42.726  42.606  0.00  0.00    +0.000 A 
ATOM     23  C   UNL     1      15.163  42.610  41.915  0.00  0.00    +0.000 A 
ATOM     24  S   UNL     1      13.807  42.825  42.932  0.00  0.00    +0.000 S 
ENDBRANCH  18  20
ENDBRANCH   7  18
TORSDOF 3
ENDMDL
MODEL 2
REMARK VINA RESULT:    -6.238      9.866     14.121
REMARK INTER + INTRA:          -8.076
REMARK INTER:                  -7.357
REMARK INTRA:                  -0.719
REMARK UNBOUND:                -0.744
REMARK  Name = 
REMARK  3 active torsions:
REMARK  status: ('A' for Active; 'I' for Inactive)
REMARK    1  A    between atoms: C_7  and  C_8
REMARK    2  A    between atoms: C_8  and  C_10
REMARK    3  A    between atoms: C_18  and  C_19
REMARK                            x       y       z     vdW  Elec       q    Type
REMARK                         _______ _______ _______ _____ _____    ______ ____
ROOT
ATOM      1  O   UNL     1      19.292  35.143  48.832  0.00  0.00    +0.000 OA
ATOM      2  C   UNL     1      18.828  36.066  49.475  0.00  0.00    +0.000 C 
ATOM      3  O   UNL     1      17.671  36.760  49.120  0.00  0.00    +0.000 OA
ATOM      4  C   UNL     1      17.488  37.722  50.103  0.00  0.00    +0.000 A 
ATOM      5  C   UNL     1      16.440  38.625  50.089  0.00  0.00    +0.000 A 
ATOM      6  C   UNL     1      16.360  39.552  51.132  0.00  0.00    +0.000 A 
ATOM      7  C   UNL     1      17.317  39.540  52.168  0.00  0.00    +0.000 A 
ATOM      8  C   UNL     1      18.384  38.628  52.148  0.00  0.00    +0.000 A 
ATOM      9  C   UNL     1      18.445  37.721  51.105  0.00  0.00    +0.000 A 
ATOM     10  C   UNL     1      19.350  36.657  50.746  0.00  0.00    +0.000 C 
ATOM     11  C   UNL     1      20.448  36.315  51.437  0.00  0.00    +0.000 C 
ENDROOT
BRANCH  11  12
ATOM     12  C   UNL     1      21.394  35.246  51.105  0.00  0.00    +0.000 A 
ATOM     13  C   UNL     1      21.291  33.973  51.678  0.00  0.00    +0.000 A 
ATOM     14  C   UNL     1      22.230  32.985  51.374  0.00  0.00    +0.000 A 
ATOM     15  C   UNL     1      23.284  33.265  50.505  0.00  0.00    +0.000 A 
ATOM     16  C   UNL     1      23.400  34.534  49.941  0.00  0.00    +0.000 A 
ATOM     17  C   UNL     1      22.461  35.522  50.243  0.00  0.00    +0.000 A 
ENDBRANCH  11  12
BRANCH   7  18
ATOM     18  C   UNL     1      17.266  40.536  53.271  0.00  0.00    +0.000 C 
ATOM     19  O   UNL     1      18.178  40.474  54.097  0.00  0.00    +0.000 OA
BRANCH  18  20
ATOM     20  C   UNL     1      16.201  41.525  53.350  0.00  0.00    +0.000 A 
ATOM     21  C   UNL     1      16.282  42.848  52.948  0.00  0.00    +0.000 A 
ATOM     22  C   UNL     1      15.080  43.571  53.187  0.00  0.00    +0.000 A 
ATOM     23  C   UNL     1      14.120  42.787  53.785  0.00  0.00    +0.000 A 
ATOM     24  S   UNL     1      14.679  41.196  54.065  0.00  0.00    +0.000 S 
ENDBRANCH  18  20
ENDBRANCH   7  18
TORSDOF 3
ENDMDL
MODEL 3
REMARK VINA RESULT:    -6.119      2.453      7.379
REMARK INTER + INTRA:          -7.937
REMARK INTER:                  -7.192
REMARK INTRA:                  -0.744
REMARK UNBOUND:                -0.744
REMARK  Name = 
REMARK  3 active torsions:
REMARK  status: ('A' for Active; 'I' for Inactive)
REMARK    1  A    between atoms: C_7  and  C_8
REMARK    2  A    between atoms: C_8  and  C_10
REMARK    3  A    between atoms: C_18  and  C_19
REMARK                            x       y       z     vdW  Elec       q    Type
REMARK                         _______ _______ _______ _____ _____    ______ ____
ROOT
ATOM      1  O   UNL     1      12.030  44.321  47.012  0.00  0.00    +0.000 OA
ATOM      2  C   UNL     1      12.327  45.432  46.613  0.00  0.00    +0.000 C 
ATOM      3  O   UNL     1      11.702  46.605  47.036  0.00  0.00    +0.000 OA
ATOM      4  C   UNL     1      12.328  47.637  46.352  0.00  0.00    +0.000 A 
ATOM      5  C   UNL     1      11.971  48.965  46.498  0.00  0.00    +0.000 A 
ATOM      6  C   UNL     1      12.672  49.918  45.753  0.00  0.00    +0.000 A 
ATOM      7  C   UNL     1      13.721  49.521  44.898  0.00  0.00    +0.000 A 
ATOM      8  C   UNL     1      14.051  48.164  44.751  0.00  0.00    +0.000 A 
ATOM      9  C   UNL     1      13.342  47.238  45.496  0.00  0.00    +0.000 A 
ATOM     10  C   UNL     1      13.386  45.802  45.625  0.00  0.00    +0.000 C 
ATOM     11  C   UNL     1      14.219  44.995  44.950  0.00  0.00    +0.000 C 
ENDROOT
BRANCH  11  12
ATOM     12  C   UNL     1      14.293  43.534  45.048  0.00  0.00    +0.000 A 
ATOM     13  C   UNL     1      13.533  42.705  44.215  0.00  0.00    +0.000 A 
ATOM     14  C   UNL     1      13.593  41.317  44.358  0.00  0.00    +0.000 A 
ATOM     15  C   UNL     1      14.402  40.748  45.341  0.00  0.00    +0.000 A 
ATOM     16  C   UNL     1      15.152  41.569  46.183  0.00  0.00    +0.000 A 
ATOM     17  C   UNL     1      15.094  42.956  46.040  0.00  0.00    +0.000 A 
ENDBRANCH  11  12
BRANCH   7  18
ATOM     18  C   UNL     1      14.459  50.515  44.076  0.00  0.00    +0.000 C 
ATOM     19  O   UNL     1      14.034  50.693  42.933  0.00  0.00    +0.000 OA
BRANCH  18  20
ATOM     20  C   UNL     1      15.608  51.234  44.607  0.00  0.00    +0.000 A 
ATOM     21  C   UNL     1      15.577  52.220  45.579  0.00  0.00    +0.000 A 
ATOM     22  C   UNL     1      16.865  52.756  45.861  0.00  0.00    +0.000 A 
ATOM     23  C   UNL     1      17.842  52.182  45.079  0.00  0.00    +0.000 A 
ATOM     24  S   UNL     1      17.199  51.016  44.009  0.00  0.00    +0.000 S 
ENDBRANCH  18  20
ENDBRANCH   7  18
TORSDOF 3
ENDMDL
