MODEL 1
REMARK VINA RESULT:    -6.981      0.000      0.000
REMARK INTER + INTRA:         -10.266
REMARK INTER:                  -8.731
REMARK INTRA:                  -1.536
REMARK UNBOUND:                -1.244
REMARK  Name = 
REMARK  5 active torsions:
REMARK  status: ('A' for Active; 'I' for Inactive)
REMARK    1  A    between atoms: C_9  and  C_10
REMARK    2  A    between atoms: N_18  and  C_19
REMARK    3  A    between atoms: C_19  and  S_20
REMARK    4  A    between atoms: S_20  and  C_23
REMARK    5  A    between atoms: N_30  and  C_31
REMARK                            x       y       z     vdW  Elec       q    Type
REMARK                         _______ _______ _______ _____ _____    ______ ____
ROOT
ATOM      1  O   UNL     1      17.466  38.676  42.602  0.00  0.00    +0.000 OA
ATOM      2  C   UNL     1      17.031  38.753  43.735  0.00  0.00    +0.000 C 
ATOM      3  C   UNL     1      16.353  39.945  44.313  0.00  0.00    +0.000 A 
ATOM      4  C   UNL     1      16.170  39.654  45.603  0.00  0.00    +0.000 A 
ATOM      5  C   UNL     1      15.536  40.637  46.486  0.00  0.00    +0.000 A 
ATOM      6  O   UNL     1      15.328  40.454  47.677  0.00  0.00    +0.000 OA
ATOM      7  N   UNL     1      15.185  41.833  45.821  0.00  0.00    +0.000 N 
ATOM      8  N   UNL     1      14.567  42.859  46.451  0.00  0.00    +0.000 NA
ATOM      9  C   UNL     1      14.378  43.792  45.503  0.00  0.00    +0.000 A 
ATOM     10  C   UNL     1      14.914  43.361  44.256  0.00  0.00    +0.000 A 
ATOM     11  C   UNL     1      15.403  42.094  44.470  0.00  0.00    +0.000 A 
ATOM     12  N   UNL     1      16.001  41.134  43.690  0.00  0.00    +0.000 N 
ATOM     13  C   UNL     1      16.635  38.320  46.016  0.00  0.00    +0.000 C 
ATOM     14  N   UNL     1      17.102  37.802  44.746  0.00  0.00    +0.000 N 
ENDROOT
BRANCH   9  15
ATOM     15  C   UNL     1      13.701  45.059  45.801  0.00  0.00    +0.000 A 
ATOM     16  C   UNL     1      14.265  46.279  45.392  0.00  0.00    +0.000 A 
ATOM     17  C   UNL     1      13.628  47.491  45.669  0.00  0.00    +0.000 A 
ATOM     18  C   UNL     1      12.421  47.502  46.363  0.00  0.00    +0.000 A 
ATOM     19  C   UNL     1      11.851  46.302  46.782  0.00  0.00    +0.000 A 
ATOM     20  C   UNL     1      12.487  45.088  46.504  0.00  0.00    +0.000 A 
ENDBRANCH   9  15
BRANCH  14  21
ATOM     21  C   UNL     1      17.868  36.564  44.615  0.00  0.00    +0.000 C 
ATOM     22  C   UNL     1      17.121  35.337  45.141  0.00  0.00    +0.000 C 
ATOM     23  C   UNL     1      17.882  34.041  44.847  0.00  0.00    +0.000 C 
ATOM     24  C   UNL     1      19.401  34.218  44.800  0.00  0.00    +0.000 C 
ATOM     25  C   UNL     1      19.867  35.361  45.691  0.00  0.00    +0.000 C 
ATOM     26  C   UNL     1      19.258  36.701  45.267  0.00  0.00    +0.000 C 
ENDBRANCH  14  21
BRANCH  12  27
ATOM     27  C   UNL     1      16.035  41.288  42.216  0.00  0.00    +0.000 C 
BRANCH  27  28
ATOM     28  S   UNL     1      14.656  40.579  41.266  0.00  0.00    +0.000 S 
ATOM     29  O   UNL     1      13.560  40.235  42.154  0.00  0.00    +0.000 OA
ATOM     30  O   UNL     1      15.186  39.600  40.333  0.00  0.00    +0.000 OA
BRANCH  28  31
ATOM     31  C   UNL     1      14.103  41.959  40.281  0.00  0.00    +0.000 A 
ATOM     32  C   UNL     1      13.317  41.730  39.148  0.00  0.00    +0.000 A 
ATOM     33  C   UNL     1      12.867  42.816  38.398  0.00  0.00    +0.000 A 
ATOM     34  C   UNL     1      13.219  44.115  38.766  0.00  0.00    +0.000 A 
ATOM     35  C   UNL     1      14.030  44.336  39.880  0.00  0.00    +0.000 A 
ATOM     36  C   UNL     1      14.480  43.256  40.641  0.00  0.00    +0.000 A 
ENDBRANCH  28  31
ENDBRANCH  27  28
ENDBRANCH  12  27
TORSDOF 5
ENDMDL
MODEL 2
REMARK VINA RESULT:    -6.754      5.907     11.284
REMARK INTER + INTRA:          -9.972
REMARK INTER:                  -8.583
REMARK INTRA:                  -1.389
REMARK UNBOUND:                -1.244
REMARK  Name = 
REMARK  5 active torsions:
REMARK  status: ('A' for Active; 'I' for Inactive)
REMARK    1  A    between atoms: C_9  and  C_10
REMARK    2  A    between atoms: N_18  and  C_19
REMARK    3  A    between atoms: C_19  and  S_20
REMARK    4  A    between atoms: S_20  and  C_23
REMARK    5  A    between atoms: N_30  and  C_31
REMARK                            x       y       z     vdW  Elec       q    Type
REMARK                         _______ _______ _______ _____ _____    ______ ____
ROOT
ATOM      1  O   UNL     1      14.488  40.793  51.029  0.00  0.00    +0.000 OA
ATOM      2  C   UNL     1      14.933  40.121  50.118  0.00  0.00    +0.000 C 
ATOM      3  C   UNL     1      16.052  39.147  50.239  0.00  0.00    +0.000 A 
ATOM      4  C   UNL     1      16.305  38.746  48.991  0.00  0.00    +0.000 A 
ATOM      5  C   UNL     1      17.384  37.786  48.742  0.00  0.00    +0.000 A 
ATOM      6  O   UNL     1      17.682  37.363  47.634  0.00  0.00    +0.000 OA
ATOM      7  N   UNL     1      18.055  37.391  49.920  0.00  0.00    +0.000 N 
ATOM      8  N   UNL     1      19.067  36.492  49.912  0.00  0.00    +0.000 NA
ATOM      9  C   UNL     1      19.429  36.356  51.198  0.00  0.00    +0.000 A 
ATOM     10  C   UNL     1      18.651  37.208  52.034  0.00  0.00    +0.000 A 
ATOM     11  C   UNL     1      17.759  37.843  51.204  0.00  0.00    +0.000 A 
ATOM     12  N   UNL     1      16.736  38.743  51.377  0.00  0.00    +0.000 N 
ATOM     13  C   UNL     1      15.433  39.328  47.958  0.00  0.00    +0.000 C 
ATOM     14  N   UNL     1      14.553  40.133  48.781  0.00  0.00    +0.000 N 
ENDROOT
BRANCH   9  15
ATOM     15  C   UNL     1      20.495  35.430  51.600  0.00  0.00    +0.000 A 
ATOM     16  C   UNL     1      21.508  35.079  50.693  0.00  0.00    +0.000 A 
ATOM     17  C   UNL     1      22.529  34.200  51.065  0.00  0.00    +0.000 A 
ATOM     18  C   UNL     1      22.548  33.658  52.348  0.00  0.00    +0.000 A 
ATOM     19  C   UNL     1      21.547  33.990  53.257  0.00  0.00    +0.000 A 
ATOM     20  C   UNL     1      20.526  34.871  52.886  0.00  0.00    +0.000 A 
ENDBRANCH   9  15
BRANCH  14  21
ATOM     21  C   UNL     1      13.606  41.103  48.237  0.00  0.00    +0.000 C 
ATOM     22  C   UNL     1      12.245  40.490  47.899  0.00  0.00    +0.000 C 
ATOM     23  C   UNL     1      11.231  41.557  47.481  0.00  0.00    +0.000 C 
ATOM     24  C   UNL     1      11.864  42.773  46.800  0.00  0.00    +0.000 C 
ATOM     25  C   UNL     1      13.150  42.409  46.072  0.00  0.00    +0.000 C 
ATOM     26  C   UNL     1      14.207  41.844  47.025  0.00  0.00    +0.000 C 
ENDBRANCH  14  21
BRANCH  12  27
ATOM     27  C   UNL     1      16.249  39.063  52.741  0.00  0.00    +0.000 C 
BRANCH  27  28
ATOM     28  S   UNL     1      17.187  40.289  53.701  0.00  0.00    +0.000 S 
ATOM     29  O   UNL     1      18.392  40.672  52.984  0.00  0.00    +0.000 OA
ATOM     30  O   UNL     1      17.258  39.847  55.082  0.00  0.00    +0.000 OA
BRANCH  28  31
ATOM     31  C   UNL     1      16.110  41.711  53.686  0.00  0.00    +0.000 A 
ATOM     32  C   UNL     1      14.876  41.650  54.339  0.00  0.00    +0.000 A 
ATOM     33  C   UNL     1      14.050  42.774  54.345  0.00  0.00    +0.000 A 
ATOM     34  C   UNL     1      14.448  43.939  53.686  0.00  0.00    +0.000 A 
ATOM     35  C   UNL     1      15.668  43.983  53.009  0.00  0.00    +0.000 A 
ATOM     36  C   UNL     1      16.504  42.865  53.003  0.00  0.00    +0.000 A 
ENDBRANCH  28  31
ENDBRANCH  27  28
ENDBRANCH  12  27
TORSDOF 5
ENDMDL
MODEL 3
REMARK VINA RESULT:    -6.717      2.926      5.703
REMARK INTER + INTRA:          -9.925
REMARK INTER:                  -8.681
REMARK INTRA:                  -1.244
REMARK UNBOUND:                -1.244
REMARK  Name = 
REMARK  5 active torsions:
REMARK  status: ('A' for Active; 'I' for Inactive)
REMARK    1  A    between atoms: C_9  and  C_10
REMARK    2  A    between atoms: N_18  and  C_19
REMARK    3  A    between atoms: C_19  and  S_20
REMARK    4  A    between atoms: S_20  and  C_23
REMARK    5  A    between atoms: N_30  and  C_31
REMARK                            x       y       z     vdW  Elec       q    Type
REMARK                         _______ _______ _______ _____ _____    ______ ____
ROOT
ATOM      1  O   UNL     1      16.408  38.561  45.002  0.00  0.00    +0.000 OA
ATOM      2  C   UNL     1      16.490  39.425  44.149  0.00  0.00    +0.000 C 
ATOM      3  C   UNL     1      15.941  40.803  44.271  0.00  0.00    +0.000 A 
ATOM      4  C   UNL     1      16.125  41.361  43.072  0.00  0.00    +0.000 A 
ATOM      5  C   UNL     1      15.671  42.734  42.833  0.00  0.00    +0.000 A 
ATOM      6  O   UNL     1      15.801  43.323  41.769  0.00  0.00    +0.000 OA
ATOM      7  N   UNL     1      15.060  43.319  43.963  0.00  0.00    +0.000 N 
ATOM      8  N   UNL     1      14.594  44.589  43.961  0.00  0.00    +0.000 NA
ATOM      9  C   UNL     1      14.115  44.792  45.199  0.00  0.00    +0.000 A 
ATOM     10  C   UNL     1      14.253  43.617  45.993  0.00  0.00    +0.000 A 
ATOM     11  C   UNL     1      14.884  42.693  45.196  0.00  0.00    +0.000 A 
ATOM     12  N   UNL     1      15.331  41.404  45.362  0.00  0.00    +0.000 N 
ATOM     13  C   UNL     1      16.799  40.507  42.081  0.00  0.00    +0.000 C 
ATOM     14  N   UNL     1      17.051  39.326  42.881  0.00  0.00    +0.000 N 
ENDROOT
BRANCH   9  15
ATOM     15  C   UNL     1      13.541  46.084  45.596  0.00  0.00    +0.000 A 
ATOM     16  C   UNL     1      12.379  46.132  46.383  0.00  0.00    +0.000 A 
ATOM     17  C   UNL     1      11.824  47.356  46.768  0.00  0.00    +0.000 A 
ATOM     18  C   UNL     1      12.422  48.548  46.367  0.00  0.00    +0.000 A 
ATOM     19  C   UNL     1      13.571  48.518  45.580  0.00  0.00    +0.000 A 
ATOM     20  C   UNL     1      14.127  47.294  45.196  0.00  0.00    +0.000 A 
ENDBRANCH   9  15
BRANCH  14  21
ATOM     21  C   UNL     1      17.525  38.062  42.323  0.00  0.00    +0.000 C 
ATOM     22  C   UNL     1      18.500  38.247  41.158  0.00  0.00    +0.000 C 
ATOM     23  C   UNL     1      19.097  36.914  40.700  0.00  0.00    +0.000 C 
ATOM     24  C   UNL     1      18.165  35.719  40.912  0.00  0.00    +0.000 C 
ATOM     25  C   UNL     1      16.700  36.125  40.851  0.00  0.00    +0.000 C 
ATOM     26  C   UNL     1      16.345  37.151  41.931  0.00  0.00    +0.000 C 
ENDBRANCH  14  21
BRANCH  12  27
ATOM     27  C   UNL     1      15.368  40.799  46.715  0.00  0.00    +0.000 C 
BRANCH  27  28
ATOM     28  S   UNL     1      13.921  39.832  47.241  0.00  0.00    +0.000 S 
ATOM     29  O   UNL     1      14.244  38.416  47.263  0.00  0.00    +0.000 OA
ATOM     30  O   UNL     1      12.752  40.312  46.525  0.00  0.00    +0.000 OA
BRANCH  28  31
ATOM     31  C   UNL     1      13.707  40.334  48.939  0.00  0.00    +0.000 A 
ATOM     32  C   UNL     1      12.437  40.692  49.400  0.00  0.00    +0.000 A 
ATOM     33  C   UNL     1      12.273  41.058  50.736  0.00  0.00    +0.000 A 
ATOM     34  C   UNL     1      13.373  41.086  51.594  0.00  0.00    +0.000 A 
ATOM     35  C   UNL     1      14.645  40.757  51.121  0.00  0.00    +0.000 A 
ATOM     36  C   UNL     1      14.818  40.383  49.787  0.00  0.00    +0.000 A 
ENDBRANCH  28  31
ENDBRANCH  27  28
ENDBRANCH  12  27
TORSDOF 5
ENDMDL
