MODEL 1
REMARK VINA RESULT:    -5.913      0.000      0.000
REMARK INTER + INTRA:          -7.470
REMARK INTER:                  -7.280
REMARK INTRA:                  -0.190
REMARK UNBOUND:                -0.347
REMARK  Name = 
REMARK  4 active torsions:
REMARK  status: ('A' for Active; 'I' for Inactive)
REMARK    1  A    between atoms: N_1  and  C_2
REMARK    2  A    between atoms: C_5  and  S_6
REMARK    3  A    between atoms: S_6  and  N_9
REMARK    4  A    between atoms: C_12  and  C_13
REMARK                            x       y       z     vdW  Elec       q    Type
REMARK                         _______ _______ _______ _____ _____    ______ ____
ROOT
ATOM      1  N   UNL     1      16.692  40.115  52.821  0.00  0.00    +0.000 N 
ATOM      2  C   UNL     1      17.140  38.938  52.250  0.00  0.00    +0.000 A 
ATOM      3  C   UNL     1      18.463  38.736  51.801  0.00  0.00    +0.000 A 
ATOM      4  C   UNL     1      18.482  37.447  51.321  0.00  0.00    +0.000 A 
ATOM      5  O   UNL     1      17.236  36.915  51.483  0.00  0.00    +0.000 OA
ATOM      6  N   UNL     1      16.401  37.848  52.064  0.00  0.00    +0.000 NA
ATOM      7  H   UNL     1      17.322  40.899  52.960  0.00  0.00    +0.000 HD
ENDROOT
BRANCH   4   8
ATOM      8  C   UNL     1      19.491  36.583  50.717  0.00  0.00    +0.000 A 
ATOM      9  C   UNL     1      20.741  36.408  51.332  0.00  0.00    +0.000 A 
ATOM     10  C   UNL     1      21.714  35.582  50.760  0.00  0.00    +0.000 A 
ATOM     11  C   UNL     1      21.452  34.919  49.566  0.00  0.00    +0.000 A 
ATOM     12  C   UNL     1      20.219  35.079  48.941  0.00  0.00    +0.000 A 
ATOM     13  C   UNL     1      19.245  35.904  49.512  0.00  0.00    +0.000 A 
ENDBRANCH   4   8
BRANCH   1  14
ATOM     14  S   UNL     1      15.124  40.410  53.303  0.00  0.00    +0.000 S 
ATOM     15  O   UNL     1      14.294  39.937  52.212  0.00  0.00    +0.000 OA
ATOM     16  O   UNL     1      14.915  39.918  54.646  0.00  0.00    +0.000 OA
BRANCH  14  20
ATOM     17  C   UNL     1      14.861  44.978  53.416  0.00  0.00    +0.000 A 
ATOM     18  C   UNL     1      16.030  44.347  52.979  0.00  0.00    +0.000 A 
ATOM     19  C   UNL     1      16.122  42.952  52.949  0.00  0.00    +0.000 A 
ATOM     20  C   UNL     1      15.013  42.183  53.304  0.00  0.00    +0.000 A 
ATOM     21  C   UNL     1      13.825  42.797  53.704  0.00  0.00    +0.000 A 
ATOM     22  C   UNL     1      13.747  44.192  53.732  0.00  0.00    +0.000 A 
BRANCH  17  23
ATOM     23  N   UNL     1      14.738  46.369  53.329  0.00  0.00    +0.000 N 
ATOM     24  H   UNL     1      14.710  46.834  54.231  0.00  0.00    +0.000 HD
ATOM     25  H   UNL     1      13.991  46.679  52.715  0.00  0.00    +0.000 HD
ENDBRANCH  17  23
ENDBRANCH  14  20
ENDBRANCH   1  14
TORSDOF 4
ENDMDL
MODEL 2
REMARK VINA RESULT:    -5.632     10.430     12.844
REMARK INTER + INTRA:          -7.131
REMARK INTER:                  -6.768
REMARK INTRA:                  -0.364
REMARK UNBOUND:                -0.347
REMARK  Name = 
REMARK  4 active torsions:
REMARK  status: ('A' for Active; 'I' for Inactive)
REMARK    1  A    between atoms: N_1  and  C_2
REMARK    2  A    between atoms: C_5  and  S_6
REMARK    3  A    between atoms: S_6  and  N_9
REMARK    4  A    between atoms: C_12  and  C_13
REMARK                            x       y       z     vdW  Elec       q    Type
REMARK                         _______ _______ _______ _____ _____    ______ ____
ROOT
ATOM      1  N   UNL     1      15.145  49.141  44.772  0.00  0.00    +0.000 N 
ATOM      2  C   UNL     1      14.194  48.299  45.316  0.00  0.00    +0.000 A 
ATOM      3  C   UNL     1      14.357  46.902  45.434  0.00  0.00    +0.000 A 
ATOM      4  C   UNL     1      13.198  46.458  46.029  0.00  0.00    +0.000 A 
ATOM      5  O   UNL     1      12.395  47.538  46.254  0.00  0.00    +0.000 OA
ATOM      6  N   UNL     1      13.020  48.686  45.809  0.00  0.00    +0.000 NA
ATOM      7  H   UNL     1      16.034  48.779  44.442  0.00  0.00    +0.000 HD
ENDROOT
BRANCH   4   8
ATOM      8  C   UNL     1      12.681  45.159  46.445  0.00  0.00    +0.000 A 
ATOM      9  C   UNL     1      11.451  45.062  47.116  0.00  0.00    +0.000 A 
ATOM     10  C   UNL     1      10.948  43.821  47.519  0.00  0.00    +0.000 A 
ATOM     11  C   UNL     1      11.665  42.659  47.257  0.00  0.00    +0.000 A 
ATOM     12  C   UNL     1      12.886  42.733  46.593  0.00  0.00    +0.000 A 
ATOM     13  C   UNL     1      13.390  43.974  46.190  0.00  0.00    +0.000 A 
ENDBRANCH   4   8
BRANCH   1  14
ATOM     14  S   UNL     1      14.961  50.785  44.559  0.00  0.00    +0.000 S 
ATOM     15  O   UNL     1      13.992  50.924  43.490  0.00  0.00    +0.000 OA
ATOM     16  O   UNL     1      14.740  51.430  45.834  0.00  0.00    +0.000 OA
BRANCH  14  20
ATOM     17  C   UNL     1      18.996  52.032  42.794  0.00  0.00    +0.000 A 
ATOM     18  C   UNL     1      17.832  52.734  42.467  0.00  0.00    +0.000 A 
ATOM     19  C   UNL     1      16.594  52.355  42.994  0.00  0.00    +0.000 A 
ATOM     20  C   UNL     1      16.530  51.300  43.905  0.00  0.00    +0.000 A 
ATOM     21  C   UNL     1      17.688  50.614  44.275  0.00  0.00    +0.000 A 
ATOM     22  C   UNL     1      18.919  51.001  43.738  0.00  0.00    +0.000 A 
BRANCH  17  23
ATOM     23  N   UNL     1      20.243  52.491  42.357  0.00  0.00    +0.000 N 
ATOM     24  H   UNL     1      20.412  52.336  41.368  0.00  0.00    +0.000 HD
ATOM     25  H   UNL     1      21.021  52.184  42.932  0.00  0.00    +0.000 HD
ENDBRANCH  17  23
ENDBRANCH  14  20
ENDBRANCH   1  14
TORSDOF 4
ENDMDL
MODEL 3
REMARK VINA RESULT:    -5.527      9.110      9.837
REMARK INTER + INTRA:          -7.005
REMARK INTER:                  -6.657
REMARK INTRA:                  -0.347
REMARK UNBOUND:                -0.347
REMARK  Name = 
REMARK  4 active torsions:
REMARK  status: ('A' for Active; 'I' for Inactive)
REMARK    1  A    between atoms: N_1  and  C_2
REMARK    2  A    between atoms: C_5  and  S_6
REMARK    3  A    between atoms: S_6  and  N_9
REMARK    4  A    between atoms: C_12  and  C_13
REMARK                            x       y       z     vdW  Elec       q    Type
REMARK                         _______ _______ _______ _____ _____    ______ ____
ROOT
ATOM      1  N   UNL     1      14.938  45.338  44.373  0.00  0.00    +0.000 N 
ATOM      2  C   UNL     1      14.971  43.968  44.189  0.00  0.00    +0.000 A 
ATOM      3  C   UNL     1      16.100  43.266  43.715  0.00  0.00    +0.000 A 
ATOM      4  C   UNL     1      15.713  41.945  43.692  0.00  0.00    +0.000 A 
ATOM      5  O   UNL     1      14.424  41.873  44.134  0.00  0.00    +0.000 OA
ATOM      6  N   UNL     1      13.964  43.137  44.444  0.00  0.00    +0.000 NA
ATOM      7  H   UNL     1      15.757  45.908  44.186  0.00  0.00    +0.000 HD
ENDROOT
BRANCH   4   8
ATOM      8  C   UNL     1      16.351  40.687  43.321  0.00  0.00    +0.000 A 
ATOM      9  C   UNL     1      16.969  40.543  42.070  0.00  0.00    +0.000 A 
ATOM     10  C   UNL     1      17.584  39.340  41.705  0.00  0.00    +0.000 A 
ATOM     11  C   UNL     1      17.590  38.264  42.587  0.00  0.00    +0.000 A 
ATOM     12  C   UNL     1      16.982  38.387  43.833  0.00  0.00    +0.000 A 
ATOM     13  C   UNL     1      16.367  39.589  44.198  0.00  0.00    +0.000 A 
ENDBRANCH   4   8
BRANCH   1  14
ATOM     14  S   UNL     1      13.605  46.207  44.869  0.00  0.00    +0.000 S 
ATOM     15  O   UNL     1      12.628  46.042  43.811  0.00  0.00    +0.000 OA
ATOM     16  O   UNL     1      13.268  45.867  46.234  0.00  0.00    +0.000 OA
BRANCH  14  20
ATOM     17  C   UNL     1      15.076  50.532  44.602  0.00  0.00    +0.000 A 
ATOM     18  C   UNL     1      13.761  50.208  44.251  0.00  0.00    +0.000 A 
ATOM     19  C   UNL     1      13.306  48.889  44.321  0.00  0.00    +0.000 A 
ATOM     20  C   UNL     1      14.157  47.894  44.804  0.00  0.00    +0.000 A 
ATOM     21  C   UNL     1      15.459  48.206  45.198  0.00  0.00    +0.000 A 
ATOM     22  C   UNL     1      15.903  49.529  45.119  0.00  0.00    +0.000 A 
BRANCH  17  23
ATOM     23  N   UNL     1      15.485  51.870  44.642  0.00  0.00    +0.000 N 
ATOM     24  H   UNL     1      16.225  52.051  45.312  0.00  0.00    +0.000 HD
ATOM     25  H   UNL     1      14.720  52.532  44.727  0.00  0.00    +0.000 HD
ENDBRANCH  17  23
ENDBRANCH  14  20
ENDBRANCH   1  14
TORSDOF 4
ENDMDL
