MODEL 1
REMARK VINA RESULT:    -6.195      0.000      0.000
REMARK INTER + INTRA:          -8.475
REMARK INTER:                  -7.989
REMARK INTRA:                  -0.486
REMARK UNBOUND:                -0.651
REMARK  Name = 
REMARK  7 active torsions:
REMARK  status: ('A' for Active; 'I' for Inactive)
REMARK    1  A    between atoms: C_1  and  C_2
REMARK    2  A    between atoms: C_4  and  C_5
REMARK    3  A    between atoms: C_7  and  C_8
REMARK    4  A    between atoms: C_10  and  O_11
REMARK    5  A    between atoms: C_12  and  S_13
REMARK    6  A    between atoms: S_13  and  C_14
REMARK    7  A    between atoms: C_14  and  C_15
REMARK                            x       y       z     vdW  Elec       q    Type
REMARK                         _______ _______ _______ _____ _____    ______ ____
ROOT
ATOM      1  C   UNL     1      18.226  37.815  51.941  0.00  0.00    +0.000 A 
ATOM      2  C   UNL     1      18.545  39.080  52.237  0.00  0.00    +0.000 A 
ATOM      3  C   UNL     1      17.736  39.808  53.167  0.00  0.00    +0.000 A 
ATOM      4  C   UNL     1      16.653  39.257  53.735  0.00  0.00    +0.000 A 
ATOM      5  C   UNL     1      16.316  37.829  53.452  0.00  0.00    +0.000 A 
ATOM      6  O   UNL     1      15.388  37.242  54.004  0.00  0.00    +0.000 OA
ATOM      7  O   UNL     1      17.110  37.182  52.540  0.00  0.00    +0.000 OA
ENDROOT
BRANCH   1  14
ATOM      8  C   UNL     1      18.347  35.396  47.559  0.00  0.00    +0.000 C 
ATOM      9  C   UNL     1      19.030  35.813  48.828  0.00  0.00    +0.000 A 
ATOM     10  C   UNL     1      20.321  35.359  49.122  0.00  0.00    +0.000 A 
ATOM     11  C   UNL     1      20.951  35.718  50.319  0.00  0.00    +0.000 A 
ATOM     12  C   UNL     1      22.320  35.198  50.641  0.00  0.00    +0.000 C 
ATOM     13  C   UNL     1      20.261  36.517  51.242  0.00  0.00    +0.000 A 
ATOM     14  C   UNL     1      18.964  36.981  50.975  0.00  0.00    +0.000 A 
ATOM     15  C   UNL     1      18.357  36.609  49.765  0.00  0.00    +0.000 A 
ENDBRANCH   1  14
BRANCH   3  16
ATOM     16  O   UNL     1      18.158  41.101  53.389  0.00  0.00    +0.000 OA
ATOM     17  H   UNL     1      17.453  41.548  53.894  0.00  0.00    +0.000 HD
ENDBRANCH   3  16
BRANCH   4  18
ATOM     18  S   UNL     1      15.603  40.157  54.790  0.00  0.00    +0.000 S 
BRANCH  18  19
ATOM     19  C   UNL     1      14.471  40.913  53.576  0.00  0.00    +0.000 C 
BRANCH  19  20
ATOM     20  C   UNL     1      14.550  42.416  53.487  0.00  0.00    +0.000 A 
ATOM     21  C   UNL     1      15.742  43.050  53.103  0.00  0.00    +0.000 A 
ATOM     22  C   UNL     1      15.817  44.441  53.048  0.00  0.00    +0.000 A 
ATOM     23  C   UNL     1      14.703  45.215  53.370  0.00  0.00    +0.000 A 
ATOM     24  C   UNL     1      13.514  44.599  53.748  0.00  0.00    +0.000 A 
ATOM     25  C   UNL     1      13.436  43.207  53.805  0.00  0.00    +0.000 A 
ENDBRANCH  19  20
ENDBRANCH  18  19
ENDBRANCH   4  18
TORSDOF 5
ENDMDL
MODEL 2
REMARK VINA RESULT:    -6.173      0.236      2.025
REMARK INTER + INTRA:          -8.448
REMARK INTER:                  -7.903
REMARK INTRA:                  -0.545
REMARK UNBOUND:                -0.651
REMARK  Name = 
REMARK  7 active torsions:
REMARK  status: ('A' for Active; 'I' for Inactive)
REMARK    1  A    between atoms: C_1  and  C_2
REMARK    2  A    between atoms: C_4  and  C_5
REMARK    3  A    between atoms: C_7  and  C_8
REMARK    4  A    between atoms: C_10  and  O_11
REMARK    5  A    between atoms: C_12  and  S_13
REMARK    6  A    between atoms: S_13  and  C_14
REMARK    7  A    between atoms: C_14  and  C_15
REMARK                            x       y       z     vdW  Elec       q    Type
REMARK                         _______ _______ _______ _____ _____    ______ ____
ROOT
ATOM      1  C   UNL     1      18.237  37.781  52.005  0.00  0.00    +0.000 A 
ATOM      2  C   UNL     1      18.546  39.061  52.246  0.00  0.00    +0.000 A 
ATOM      3  C   UNL     1      17.789  39.793  53.215  0.00  0.00    +0.000 A 
ATOM      4  C   UNL     1      16.763  39.233  53.874  0.00  0.00    +0.000 A 
ATOM      5  C   UNL     1      16.441  37.791  53.650  0.00  0.00    +0.000 A 
ATOM      6  O   UNL     1      15.570  37.198  54.282  0.00  0.00    +0.000 OA
ATOM      7  O   UNL     1      17.183  37.139  52.698  0.00  0.00    +0.000 OA
ENDROOT
BRANCH   1  14
ATOM      8  C   UNL     1      22.313  35.238  50.597  0.00  0.00    +0.000 C 
ATOM      9  C   UNL     1      20.907  35.684  50.326  0.00  0.00    +0.000 A 
ATOM     10  C   UNL     1      20.282  35.367  49.114  0.00  0.00    +0.000 A 
ATOM     11  C   UNL     1      18.982  35.807  48.842  0.00  0.00    +0.000 A 
ATOM     12  C   UNL     1      18.334  35.493  47.526  0.00  0.00    +0.000 C 
ATOM     13  C   UNL     1      18.318  36.603  49.787  0.00  0.00    +0.000 A 
ATOM     14  C   UNL     1      18.923  36.940  51.007  0.00  0.00    +0.000 A 
ATOM     15  C   UNL     1      20.226  36.481  51.256  0.00  0.00    +0.000 A 
ENDBRANCH   1  14
BRANCH   3  16
ATOM     16  O   UNL     1      18.194  41.101  53.375  0.00  0.00    +0.000 OA
ATOM     17  H   UNL     1      17.492  41.558  53.874  0.00  0.00    +0.000 HD
ENDBRANCH   3  16
BRANCH   4  18
ATOM     18  S   UNL     1      15.771  40.135  54.981  0.00  0.00    +0.000 S 
BRANCH  18  19
ATOM     19  C   UNL     1      14.495  40.776  53.846  0.00  0.00    +0.000 C 
BRANCH  19  20
ATOM     20  C   UNL     1      14.438  42.279  53.741  0.00  0.00    +0.000 A 
ATOM     21  C   UNL     1      13.220  42.962  53.875  0.00  0.00    +0.000 A 
ATOM     22  C   UNL     1      13.170  44.350  53.750  0.00  0.00    +0.000 A 
ATOM     23  C   UNL     1      14.334  45.073  53.496  0.00  0.00    +0.000 A 
ATOM     24  C   UNL     1      15.550  44.408  53.365  0.00  0.00    +0.000 A 
ATOM     25  C   UNL     1      15.604  43.019  53.488  0.00  0.00    +0.000 A 
ENDBRANCH  19  20
ENDBRANCH  18  19
ENDBRANCH   4  18
TORSDOF 5
ENDMDL
MODEL 3
REMARK VINA RESULT:    -5.980      5.906      8.986
REMARK INTER + INTRA:          -8.204
REMARK INTER:                  -7.553
REMARK INTRA:                  -0.651
REMARK UNBOUND:                -0.651
REMARK  Name = 
REMARK  7 active torsions:
REMARK  status: ('A' for Active; 'I' for Inactive)
REMARK    1  A    between atoms: C_1  and  C_2
REMARK    2  A    between atoms: C_4  and  C_5
REMARK    3  A    between atoms: C_7  and  C_8
REMARK    4  A    between atoms: C_10  and  O_11
REMARK    5  A    between atoms: C_12  and  S_13
REMARK    6  A    between atoms: S_13  and  C_14
REMARK    7  A    between atoms: C_14  and  C_15
REMARK                            x       y       z     vdW  Elec       q    Type
REMARK                         _______ _______ _______ _____ _____    ______ ____
ROOT
ATOM      1  C   UNL     1      15.215  41.064  46.668  0.00  0.00    +0.000 A 
ATOM      2  C   UNL     1      14.463  40.745  47.729  0.00  0.00    +0.000 A 
ATOM      3  C   UNL     1      14.731  39.530  48.436  0.00  0.00    +0.000 A 
ATOM      4  C   UNL     1      15.706  38.693  48.050  0.00  0.00    +0.000 A 
ATOM      5  C   UNL     1      16.583  39.063  46.899  0.00  0.00    +0.000 A 
ATOM      6  O   UNL     1      17.544  38.381  46.548  0.00  0.00    +0.000 OA
ATOM      7  O   UNL     1      16.274  40.227  46.243  0.00  0.00    +0.000 OA
ENDROOT
BRANCH   1  14
ATOM      8  C   UNL     1      13.061  45.542  46.056  0.00  0.00    +0.000 C 
ATOM      9  C   UNL     1      13.972  44.463  45.551  0.00  0.00    +0.000 A 
ATOM     10  C   UNL     1      14.563  44.566  44.286  0.00  0.00    +0.000 A 
ATOM     11  C   UNL     1      15.388  43.548  43.796  0.00  0.00    +0.000 A 
ATOM     12  C   UNL     1      15.987  43.652  42.424  0.00  0.00    +0.000 C 
ATOM     13  C   UNL     1      15.595  42.400  44.575  0.00  0.00    +0.000 A 
ATOM     14  C   UNL     1      15.011  42.269  45.844  0.00  0.00    +0.000 A 
ATOM     15  C   UNL     1      14.191  43.307  46.313  0.00  0.00    +0.000 A 
ENDBRANCH   1  14
BRANCH   3  16
ATOM     16  O   UNL     1      13.892  39.306  49.506  0.00  0.00    +0.000 OA
ATOM     17  H   UNL     1      13.746  40.168  49.940  0.00  0.00    +0.000 HD
ENDBRANCH   3  16
BRANCH   4  18
ATOM     18  S   UNL     1      15.980  37.167  48.838  0.00  0.00    +0.000 S 
BRANCH  18  19
ATOM     19  C   UNL     1      17.069  37.684  50.207  0.00  0.00    +0.000 C 
BRANCH  19  20
ATOM     20  C   UNL     1      18.400  36.979  50.259  0.00  0.00    +0.000 A 
ATOM     21  C   UNL     1      19.272  37.172  51.341  0.00  0.00    +0.000 A 
ATOM     22  C   UNL     1      20.514  36.537  51.371  0.00  0.00    +0.000 A 
ATOM     23  C   UNL     1      20.897  35.699  50.325  0.00  0.00    +0.000 A 
ATOM     24  C   UNL     1      20.039  35.495  49.248  0.00  0.00    +0.000 A 
ATOM     25  C   UNL     1      18.796  36.130  49.214  0.00  0.00    +0.000 A 
ENDBRANCH  19  20
ENDBRANCH  18  19
ENDBRANCH   4  18
TORSDOF 5
ENDMDL
