MODEL 1
REMARK VINA RESULT:    -6.580      0.000      0.000
REMARK INTER + INTRA:          -8.946
REMARK INTER:                  -8.176
REMARK INTRA:                  -0.769
REMARK UNBOUND:                -0.827
REMARK  Name = 
REMARK  6 active torsions:
REMARK  status: ('A' for Active; 'I' for Inactive)
REMARK    1  A    between atoms: C_1  and  N_2
REMARK    2  A    between atoms: C_3  and  C_5
REMARK    3  A    between atoms: C_8  and  N_9
REMARK    4  A    between atoms: N_9  and  C_10
REMARK    5  A    between atoms: C_14  and  N_15
REMARK    6  A    between atoms: C_21  and  N_22
REMARK                            x       y       z     vdW  Elec       q    Type
REMARK                         _______ _______ _______ _____ _____    ______ ____
ROOT
ATOM      1  C   UNL     1      13.584  45.945  45.822  0.00  0.00    +0.000 A 
ATOM      2  C   UNL     1      12.522  45.286  46.494  0.00  0.00    +0.000 A 
ATOM      3  C   UNL     1      12.424  43.883  46.630  0.00  0.00    +0.000 A 
ATOM      4  C   UNL     1      11.355  43.297  47.307  0.00  0.00    +0.000 A 
ATOM      5  C   UNL     1      10.387  44.094  47.905  0.00  0.00    +0.000 A 
ATOM      6  C   UNL     1      10.460  45.478  47.721  0.00  0.00    +0.000 A 
ATOM      7  C   UNL     1      11.515  46.090  47.052  0.00  0.00    +0.000 A 
ATOM      8  N   UNL     1      11.525  47.428  46.964  0.00  0.00    +0.000 NA
ATOM      9  C   UNL     1      12.521  48.050  46.316  0.00  0.00    +0.000 A 
ATOM     10  C   UNL     1      12.486  49.438  46.239  0.00  0.00    +0.000 A 
ATOM     11  C   UNL     1      13.488  50.183  45.611  0.00  0.00    +0.000 A 
ATOM     12  C   UNL     1      14.501  49.500  44.950  0.00  0.00    +0.000 A 
ATOM     13  C   UNL     1      14.563  48.106  45.011  0.00  0.00    +0.000 A 
ATOM     14  C   UNL     1      13.584  47.360  45.709  0.00  0.00    +0.000 A 
ENDROOT
BRANCH   5  15
ATOM     15  N   UNL     1       9.251  43.515  48.482  0.00  0.00    +0.000 N 
ATOM     16  H   UNL     1       9.315  42.509  48.604  0.00  0.00    +0.000 HD
ATOM     17  H   UNL     1       8.927  43.987  49.321  0.00  0.00    +0.000 HD
ENDBRANCH   5  15
BRANCH  11  18
ATOM     18  N   UNL     1      13.352  51.567  45.457  0.00  0.00    +0.000 N 
ATOM     19  H   UNL     1      14.145  52.014  45.008  0.00  0.00    +0.000 HD
ATOM     20  H   UNL     1      12.465  51.858  45.058  0.00  0.00    +0.000 HD
ENDBRANCH  11  18
BRANCH   1  21
ATOM     21  N   UNL     1      14.624  45.167  45.221  0.00  0.00    +0.000 N 
ATOM     22  H   UNL     1      15.526  45.613  45.370  0.00  0.00    +0.000 HD
BRANCH  21  26
ATOM     23  C   UNL     1      14.456  43.662  41.262  0.00  0.00    +0.000 A 
ATOM     24  C   UNL     1      15.532  43.323  42.087  0.00  0.00    +0.000 A 
ATOM     25  C   UNL     1      15.597  43.805  43.398  0.00  0.00    +0.000 A 
ATOM     26  C   UNL     1      14.571  44.603  43.920  0.00  0.00    +0.000 A 
ATOM     27  C   UNL     1      13.503  44.949  43.079  0.00  0.00    +0.000 A 
ATOM     28  C   UNL     1      13.435  44.474  41.765  0.00  0.00    +0.000 A 
BRANCH  23  31
ATOM     29  C   UNL     1      13.902  41.227  38.425  0.00  0.00    +0.000 C 
ATOM     30  N   UNL     1      14.081  41.799  39.735  0.00  0.00    +0.000 N 
ATOM     31  C   UNL     1      14.428  43.129  39.872  0.00  0.00    +0.000 C 
ATOM     32  O   UNL     1      14.673  43.867  38.924  0.00  0.00    +0.000 OA
ATOM     33  H   UNL     1      13.632  41.338  40.513  0.00  0.00    +0.000 HD
ENDBRANCH  23  31
ENDBRANCH  21  26
ENDBRANCH   1  21
TORSDOF 5
ENDMDL
MODEL 2
REMARK VINA RESULT:    -6.563      0.083      4.348
REMARK INTER + INTRA:          -8.925
REMARK INTER:                  -8.136
REMARK INTRA:                  -0.789
REMARK UNBOUND:                -0.827
REMARK  Name = 
REMARK  6 active torsions:
REMARK  status: ('A' for Active; 'I' for Inactive)
REMARK    1  A    between atoms: C_1  and  N_2
REMARK    2  A    between atoms: C_3  and  C_5
REMARK    3  A    between atoms: C_8  and  N_9
REMARK    4  A    between atoms: N_9  and  C_10
REMARK    5  A    between atoms: C_14  and  N_15
REMARK    6  A    between atoms: C_21  and  N_22
REMARK                            x       y       z     vdW  Elec       q    Type
REMARK                         _______ _______ _______ _____ _____    ______ ____
ROOT
ATOM      1  C   UNL     1      13.565  45.928  45.767  0.00  0.00    +0.000 A 
ATOM      2  C   UNL     1      13.589  47.345  45.696  0.00  0.00    +0.000 A 
ATOM      3  C   UNL     1      14.598  48.084  45.038  0.00  0.00    +0.000 A 
ATOM      4  C   UNL     1      14.562  49.478  45.001  0.00  0.00    +0.000 A 
ATOM      5  C   UNL     1      13.498  50.164  45.574  0.00  0.00    +0.000 A 
ATOM      6  C   UNL     1      12.533  49.430  46.270  0.00  0.00    +0.000 A 
ATOM      7  C   UNL     1      12.542  48.040  46.322  0.00  0.00    +0.000 A 
ATOM      8  N   UNL     1      11.548  47.419  46.974  0.00  0.00    +0.000 NA
ATOM      9  C   UNL     1      11.533  46.080  47.053  0.00  0.00    +0.000 A 
ATOM     10  C   UNL     1      10.490  45.478  47.748  0.00  0.00    +0.000 A 
ATOM     11  C   UNL     1      10.366  44.091  47.866  0.00  0.00    +0.000 A 
ATOM     12  C   UNL     1      11.382  43.293  47.357  0.00  0.00    +0.000 A 
ATOM     13  C   UNL     1      12.441  43.869  46.654  0.00  0.00    +0.000 A 
ATOM     14  C   UNL     1      12.525  45.270  46.475  0.00  0.00    +0.000 A 
ENDROOT
BRANCH   5  15
ATOM     15  N   UNL     1      13.515  51.561  45.646  0.00  0.00    +0.000 N 
ATOM     16  H   UNL     1      12.800  52.014  45.085  0.00  0.00    +0.000 HD
ATOM     17  H   UNL     1      13.552  51.926  46.593  0.00  0.00    +0.000 HD
ENDBRANCH   5  15
BRANCH  11  18
ATOM     18  N   UNL     1       9.366  43.534  48.672  0.00  0.00    +0.000 N 
ATOM     19  H   UNL     1       9.671  43.304  49.612  0.00  0.00    +0.000 HD
ATOM     20  H   UNL     1       8.489  44.045  48.663  0.00  0.00    +0.000 HD
ENDBRANCH  11  18
BRANCH   1  21
ATOM     21  N   UNL     1      14.620  45.176  45.160  0.00  0.00    +0.000 N 
ATOM     22  H   UNL     1      15.510  45.652  45.292  0.00  0.00    +0.000 HD
BRANCH  21  26
ATOM     23  C   UNL     1      14.450  43.623  41.220  0.00  0.00    +0.000 A 
ATOM     24  C   UNL     1      15.537  43.310  42.042  0.00  0.00    +0.000 A 
ATOM     25  C   UNL     1      15.603  43.808  43.347  0.00  0.00    +0.000 A 
ATOM     26  C   UNL     1      14.568  44.596  43.866  0.00  0.00    +0.000 A 
ATOM     27  C   UNL     1      13.489  44.916  43.029  0.00  0.00    +0.000 A 
ATOM     28  C   UNL     1      13.419  44.425  41.721  0.00  0.00    +0.000 A 
BRANCH  23  31
ATOM     29  C   UNL     1      13.880  41.160  38.411  0.00  0.00    +0.000 C 
ATOM     30  N   UNL     1      14.060  41.746  39.714  0.00  0.00    +0.000 N 
ATOM     31  C   UNL     1      14.421  43.074  39.837  0.00  0.00    +0.000 C 
ATOM     32  O   UNL     1      14.677  43.797  38.881  0.00  0.00    +0.000 OA
ATOM     33  H   UNL     1      13.603  41.299  40.497  0.00  0.00    +0.000 HD
ENDBRANCH  23  31
ENDBRANCH  21  26
ENDBRANCH   1  21
TORSDOF 5
ENDMDL
MODEL 3
REMARK VINA RESULT:    -6.171      3.028      6.954
REMARK INTER + INTRA:          -8.440
REMARK INTER:                  -7.614
REMARK INTRA:                  -0.827
REMARK UNBOUND:                -0.827
REMARK  Name = 
REMARK  6 active torsions:
REMARK  status: ('A' for Active; 'I' for Inactive)
REMARK    1  A    between atoms: C_1  and  N_2
REMARK    2  A    between atoms: C_3  and  C_5
REMARK    3  A    between atoms: C_8  and  N_9
REMARK    4  A    between atoms: N_9  and  C_10
REMARK    5  A    between atoms: C_14  and  N_15
REMARK    6  A    between atoms: C_21  and  N_22
REMARK                            x       y       z     vdW  Elec       q    Type
REMARK                         _______ _______ _______ _____ _____    ______ ____
ROOT
ATOM      1  C   UNL     1      13.600  43.737  43.914  0.00  0.00    +0.000 A 
ATOM      2  C   UNL     1      14.224  42.782  44.759  0.00  0.00    +0.000 A 
ATOM      3  C   UNL     1      14.092  42.768  46.166  0.00  0.00    +0.000 A 
ATOM      4  C   UNL     1      14.728  41.799  46.940  0.00  0.00    +0.000 A 
ATOM      5  C   UNL     1      15.468  40.793  46.330  0.00  0.00    +0.000 A 
ATOM      6  C   UNL     1      15.639  40.844  44.943  0.00  0.00    +0.000 A 
ATOM      7  C   UNL     1      15.015  41.798  44.145  0.00  0.00    +0.000 A 
ATOM      8  N   UNL     1      15.200  41.740  42.818  0.00  0.00    +0.000 NA
ATOM      9  C   UNL     1      14.623  42.652  42.021  0.00  0.00    +0.000 A 
ATOM     10  C   UNL     1      14.850  42.561  40.653  0.00  0.00    +0.000 A 
ATOM     11  C   UNL     1      14.274  43.443  39.734  0.00  0.00    +0.000 A 
ATOM     12  C   UNL     1      13.532  44.511  40.222  0.00  0.00    +0.000 A 
ATOM     13  C   UNL     1      13.286  44.627  41.591  0.00  0.00    +0.000 A 
ATOM     14  C   UNL     1      13.813  43.690  42.511  0.00  0.00    +0.000 A 
ENDROOT
BRANCH   5  15
ATOM     15  N   UNL     1      16.205  39.889  47.102  0.00  0.00    +0.000 N 
ATOM     16  H   UNL     1      15.754  39.621  47.971  0.00  0.00    +0.000 HD
ATOM     17  H   UNL     1      16.552  39.089  46.583  0.00  0.00    +0.000 HD
ENDBRANCH   5  15
BRANCH  11  18
ATOM     18  N   UNL     1      14.624  43.385  38.380  0.00  0.00    +0.000 N 
ATOM     19  H   UNL     1      13.835  43.454  37.745  0.00  0.00    +0.000 HD
ATOM     20  H   UNL     1      15.387  44.001  38.118  0.00  0.00    +0.000 HD
ENDBRANCH  11  18
BRANCH   1  21
ATOM     21  N   UNL     1      12.799  44.770  44.495  0.00  0.00    +0.000 N 
ATOM     22  H   UNL     1      11.855  44.734  44.117  0.00  0.00    +0.000 HD
BRANCH  21  26
ATOM     23  C   UNL     1      14.179  48.757  44.904  0.00  0.00    +0.000 A 
ATOM     24  C   UNL     1      12.988  48.503  44.218  0.00  0.00    +0.000 A 
ATOM     25  C   UNL     1      12.516  47.194  44.081  0.00  0.00    +0.000 A 
ATOM     26  C   UNL     1      13.204  46.120  44.660  0.00  0.00    +0.000 A 
ATOM     27  C   UNL     1      14.406  46.383  45.334  0.00  0.00    +0.000 A 
ATOM     28  C   UNL     1      14.886  47.691  45.469  0.00  0.00    +0.000 A 
BRANCH  23  31
ATOM     29  C   UNL     1      16.569  51.680  45.077  0.00  0.00    +0.000 C 
ATOM     30  N   UNL     1      16.015  50.350  45.090  0.00  0.00    +0.000 N 
ATOM     31  C   UNL     1      14.647  50.165  45.022  0.00  0.00    +0.000 C 
ATOM     32  O   UNL     1      13.838  51.086  45.024  0.00  0.00    +0.000 OA
ATOM     33  H   UNL     1      16.616  49.589  44.809  0.00  0.00    +0.000 HD
ENDBRANCH  23  31
ENDBRANCH  21  26
ENDBRANCH   1  21
TORSDOF 5
ENDMDL
