MODEL 1
REMARK VINA RESULT:    -6.901      0.000      0.000
REMARK INTER + INTRA:         -10.915
REMARK INTER:                  -9.520
REMARK INTRA:                  -1.395
REMARK UNBOUND:                -1.191
REMARK  Name = 
REMARK  9 active torsions:
REMARK  status: ('A' for Active; 'I' for Inactive)
REMARK    1  A    between atoms: C_1  and  O_2
REMARK    2  A    between atoms: O_2  and  C_3
REMARK    3  A    between atoms: C_7  and  O_8
REMARK    4  A    between atoms: C_9  and  C_10
REMARK    5  A    between atoms: N_18  and  C_19
REMARK    6  A    between atoms: C_19  and  C_20
REMARK    7  A    between atoms: C_23  and  C_24
REMARK    8  A    between atoms: C_29  and  C_30
REMARK    9  A    between atoms: C_30  and  O_32
REMARK                            x       y       z     vdW  Elec       q    Type
REMARK                         _______ _______ _______ _____ _____    ______ ____
ROOT
ATOM      1  C   UNL     1      20.247  34.613  56.238  0.00  0.00    +0.000 A 
ATOM      2  C   UNL     1      21.511  34.626  56.812  0.00  0.00    +0.000 A 
ATOM      3  C   UNL     1      22.628  34.323  56.031  0.00  0.00    +0.000 A 
ATOM      4  C   UNL     1      22.501  33.991  54.669  0.00  0.00    +0.000 A 
ATOM      5  C   UNL     1      23.672  33.625  53.858  0.00  0.00    +0.000 A 
ATOM      6  C   UNL     1      23.569  33.400  52.536  0.00  0.00    +0.000 A 
ATOM      7  C   UNL     1      22.224  33.478  51.875  0.00  0.00    +0.000 A 
ATOM      8  O   UNL     1      22.133  33.287  50.660  0.00  0.00    +0.000 OA
ATOM      9  N   UNL     1      21.113  33.747  52.672  0.00  0.00    +0.000 N 
ATOM     10  C   UNL     1      21.232  34.016  54.072  0.00  0.00    +0.000 A 
ATOM     11  C   UNL     1      20.118  34.318  54.875  0.00  0.00    +0.000 A 
ENDROOT
BRANCH   6  12
ATOM     12  C   UNL     1      24.758  33.009  51.742  0.00  0.00    +0.000 A 
ATOM     13  C   UNL     1      25.064  31.659  51.519  0.00  0.00    +0.000 A 
ATOM     14  C   UNL     1      26.182  31.299  50.763  0.00  0.00    +0.000 A 
ATOM     15  C   UNL     1      27.008  32.285  50.226  0.00  0.00    +0.000 A 
ATOM     16  C   UNL     1      26.718  33.630  50.444  0.00  0.00    +0.000 A 
ATOM     17  C   UNL     1      25.599  33.991  51.198  0.00  0.00    +0.000 A 
ENDBRANCH   6  12
BRANCH   1  19
ATOM     18  C   UNL     1      18.198  35.820  56.272  0.00  0.00    +0.000 C 
ATOM     19  O   UNL     1      19.069  34.873  56.880  0.00  0.00    +0.000 OA
ENDBRANCH   1  19
BRANCH   5  20
ATOM     20  O   UNL     1      24.877  33.476  54.524  0.00  0.00    +0.000 OA
ATOM     21  H   UNL     1      24.724  33.692  55.459  0.00  0.00    +0.000 HD
ENDBRANCH   5  20
BRANCH   9  22
ATOM     22  C   UNL     1      19.809  33.796  52.004  0.00  0.00    +0.000 C 
BRANCH  22  23
ATOM     23  C   UNL     1      19.144  35.159  52.026  0.00  0.00    +0.000 A 
ATOM     24  C   UNL     1      19.814  36.280  51.518  0.00  0.00    +0.000 A 
ATOM     25  C   UNL     1      19.217  37.543  51.549  0.00  0.00    +0.000 A 
ATOM     26  C   UNL     1      17.939  37.720  52.097  0.00  0.00    +0.000 A 
ATOM     27  C   UNL     1      17.280  36.604  52.627  0.00  0.00    +0.000 A 
ATOM     28  C   UNL     1      17.876  35.339  52.595  0.00  0.00    +0.000 A 
BRANCH  26  29
ATOM     29  C   UNL     1      17.326  39.054  52.146  0.00  0.00    +0.000 A 
ATOM     30  C   UNL     1      17.545  39.852  53.288  0.00  0.00    +0.000 A 
ATOM     31  C   UNL     1      17.025  41.145  53.380  0.00  0.00    +0.000 A 
ATOM     32  C   UNL     1      16.278  41.672  52.329  0.00  0.00    +0.000 A 
ATOM     33  C   UNL     1      16.046  40.901  51.188  0.00  0.00    +0.000 A 
ATOM     34  C   UNL     1      16.563  39.598  51.092  0.00  0.00    +0.000 A 
BRANCH  34  35
ATOM     35  C   UNL     1      16.265  38.814  49.868  0.00  0.00    +0.000 C 
ATOM     36  O   UNL     1      15.423  37.950  49.724  0.00  0.00    +0.000 OA
BRANCH  35  37
ATOM     37  O   UNL     1      17.079  39.168  48.853  0.00  0.00    +0.000 OA
ATOM     38  H   UNL     1      16.768  38.605  48.112  0.00  0.00    +0.000 HD
ENDBRANCH  35  37
ENDBRANCH  34  35
ENDBRANCH  26  29
ENDBRANCH  22  23
ENDBRANCH   9  22
TORSDOF 8
ENDMDL
MODEL 2
REMARK VINA RESULT:    -6.765      1.416      2.127
REMARK INTER + INTRA:         -10.724
REMARK INTER:                  -9.147
REMARK INTRA:                  -1.577
REMARK UNBOUND:                -1.191
REMARK  Name = 
REMARK  9 active torsions:
REMARK  status: ('A' for Active; 'I' for Inactive)
REMARK    1  A    between atoms: C_1  and  O_2
REMARK    2  A    between atoms: O_2  and  C_3
REMARK    3  A    between atoms: C_7  and  O_8
REMARK    4  A    between atoms: C_9  and  C_10
REMARK    5  A    between atoms: N_18  and  C_19
REMARK    6  A    between atoms: C_19  and  C_20
REMARK    7  A    between atoms: C_23  and  C_24
REMARK    8  A    between atoms: C_29  and  C_30
REMARK    9  A    between atoms: C_30  and  O_32
REMARK                            x       y       z     vdW  Elec       q    Type
REMARK                         _______ _______ _______ _____ _____    ______ ____
ROOT
ATOM      1  C   UNL     1      20.035  34.630  56.445  0.00  0.00    +0.000 A 
ATOM      2  C   UNL     1      21.336  34.731  56.919  0.00  0.00    +0.000 A 
ATOM      3  C   UNL     1      22.405  34.445  56.066  0.00  0.00    +0.000 A 
ATOM      4  C   UNL     1      22.192  34.044  54.734  0.00  0.00    +0.000 A 
ATOM      5  C   UNL     1      23.316  33.697  53.851  0.00  0.00    +0.000 A 
ATOM      6  C   UNL     1      23.125  33.407  52.551  0.00  0.00    +0.000 A 
ATOM      7  C   UNL     1      21.732  33.390  51.994  0.00  0.00    +0.000 A 
ATOM      8  O   UNL     1      21.559  33.139  50.800  0.00  0.00    +0.000 OA
ATOM      9  N   UNL     1      20.671  33.642  52.864  0.00  0.00    +0.000 N 
ATOM     10  C   UNL     1      20.882  33.981  54.237  0.00  0.00    +0.000 A 
ATOM     11  C   UNL     1      19.818  34.266  55.110  0.00  0.00    +0.000 A 
ENDROOT
BRANCH   6  12
ATOM     12  C   UNL     1      24.269  33.037  51.685  0.00  0.00    +0.000 A 
ATOM     13  C   UNL     1      24.967  34.011  50.957  0.00  0.00    +0.000 A 
ATOM     14  C   UNL     1      26.049  33.655  50.148  0.00  0.00    +0.000 A 
ATOM     15  C   UNL     1      26.441  32.321  50.055  0.00  0.00    +0.000 A 
ATOM     16  C   UNL     1      25.753  31.343  50.769  0.00  0.00    +0.000 A 
ATOM     17  C   UNL     1      24.672  31.698  51.580  0.00  0.00    +0.000 A 
ENDBRANCH   6  12
BRANCH   1  19
ATOM     18  C   UNL     1      17.755  34.079  56.842  0.00  0.00    +0.000 C 
ATOM     19  O   UNL     1      18.896  34.864  57.166  0.00  0.00    +0.000 OA
ENDBRANCH   1  19
BRANCH   5  20
ATOM     20  O   UNL     1      24.574  33.638  54.427  0.00  0.00    +0.000 OA
ATOM     21  H   UNL     1      24.524  33.023  55.178  0.00  0.00    +0.000 HD
ENDBRANCH   5  20
BRANCH   9  22
ATOM     22  C   UNL     1      19.320  33.598  52.297  0.00  0.00    +0.000 C 
BRANCH  22  23
ATOM     23  C   UNL     1      18.672  34.956  52.116  0.00  0.00    +0.000 A 
ATOM     24  C   UNL     1      17.355  35.174  52.541  0.00  0.00    +0.000 A 
ATOM     25  C   UNL     1      16.744  36.419  52.363  0.00  0.00    +0.000 A 
ATOM     26  C   UNL     1      17.429  37.474  51.748  0.00  0.00    +0.000 A 
ATOM     27  C   UNL     1      18.737  37.249  51.301  0.00  0.00    +0.000 A 
ATOM     28  C   UNL     1      19.351  36.005  51.480  0.00  0.00    +0.000 A 
BRANCH  26  29
ATOM     29  C   UNL     1      16.774  38.773  51.545  0.00  0.00    +0.000 A 
ATOM     30  C   UNL     1      15.933  38.932  50.424  0.00  0.00    +0.000 A 
ATOM     31  C   UNL     1      15.247  40.128  50.196  0.00  0.00    +0.000 A 
ATOM     32  C   UNL     1      15.384  41.190  51.086  0.00  0.00    +0.000 A 
ATOM     33  C   UNL     1      16.212  41.058  52.202  0.00  0.00    +0.000 A 
ATOM     34  C   UNL     1      16.908  39.859  52.434  0.00  0.00    +0.000 A 
BRANCH  34  35
ATOM     35  C   UNL     1      17.794  39.781  53.621  0.00  0.00    +0.000 C 
ATOM     36  O   UNL     1      17.651  39.095  54.614  0.00  0.00    +0.000 OA
BRANCH  35  37
ATOM     37  O   UNL     1      18.853  40.606  53.493  0.00  0.00    +0.000 OA
ATOM     38  H   UNL     1      19.584  39.995  53.260  0.00  0.00    +0.000 HD
ENDBRANCH  35  37
ENDBRANCH  34  35
ENDBRANCH  26  29
ENDBRANCH  22  23
ENDBRANCH   9  22
TORSDOF 8
ENDMDL
MODEL 3
REMARK VINA RESULT:    -6.688      2.185      8.763
REMARK INTER + INTRA:         -10.616
REMARK INTER:                  -9.425
REMARK INTRA:                  -1.191
REMARK UNBOUND:                -1.191
REMARK  Name = 
REMARK  9 active torsions:
REMARK  status: ('A' for Active; 'I' for Inactive)
REMARK    1  A    between atoms: C_1  and  O_2
REMARK    2  A    between atoms: O_2  and  C_3
REMARK    3  A    between atoms: C_7  and  O_8
REMARK    4  A    between atoms: C_9  and  C_10
REMARK    5  A    between atoms: N_18  and  C_19
REMARK    6  A    between atoms: C_19  and  C_20
REMARK    7  A    between atoms: C_23  and  C_24
REMARK    8  A    between atoms: C_29  and  C_30
REMARK    9  A    between atoms: C_30  and  O_32
REMARK                            x       y       z     vdW  Elec       q    Type
REMARK                         _______ _______ _______ _____ _____    ______ ____
ROOT
ATOM      1  C   UNL     1      18.398  35.455  56.043  0.00  0.00    +0.000 A 
ATOM      2  C   UNL     1      18.244  36.349  57.094  0.00  0.00    +0.000 A 
ATOM      3  C   UNL     1      17.706  37.615  56.850  0.00  0.00    +0.000 A 
ATOM      4  C   UNL     1      17.325  38.011  55.554  0.00  0.00    +0.000 A 
ATOM      5  C   UNL     1      16.803  39.360  55.289  0.00  0.00    +0.000 A 
ATOM      6  C   UNL     1      16.348  39.712  54.073  0.00  0.00    +0.000 A 
ATOM      7  C   UNL     1      16.414  38.725  52.945  0.00  0.00    +0.000 A 
ATOM      8  O   UNL     1      15.983  39.043  51.835  0.00  0.00    +0.000 OA
ATOM      9  N   UNL     1      16.985  37.477  53.194  0.00  0.00    +0.000 N 
ATOM     10  C   UNL     1      17.438  37.098  54.496  0.00  0.00    +0.000 A 
ATOM     11  C   UNL     1      17.987  35.831  54.759  0.00  0.00    +0.000 A 
ENDROOT
BRANCH   6  12
ATOM     12  C   UNL     1      15.849  41.084  53.822  0.00  0.00    +0.000 A 
ATOM     13  C   UNL     1      14.565  41.472  54.234  0.00  0.00    +0.000 A 
ATOM     14  C   UNL     1      14.105  42.770  54.001  0.00  0.00    +0.000 A 
ATOM     15  C   UNL     1      14.921  43.692  53.348  0.00  0.00    +0.000 A 
ATOM     16  C   UNL     1      16.196  43.319  52.929  0.00  0.00    +0.000 A 
ATOM     17  C   UNL     1      16.658  42.022  53.164  0.00  0.00    +0.000 A 
ENDBRANCH   6  12
BRANCH   1  19
ATOM     18  C   UNL     1      19.049  33.463  54.916  0.00  0.00    +0.000 C 
ATOM     19  O   UNL     1      18.921  34.194  56.130  0.00  0.00    +0.000 OA
ENDBRANCH   1  19
BRANCH   5  20
ATOM     20  O   UNL     1      16.844  40.267  56.336  0.00  0.00    +0.000 OA
ATOM     21  H   UNL     1      17.516  40.935  56.119  0.00  0.00    +0.000 HD
ENDBRANCH   5  20
BRANCH   9  22
ATOM     22  C   UNL     1      17.056  36.540  52.068  0.00  0.00    +0.000 C 
BRANCH  22  23
ATOM     23  C   UNL     1      18.458  36.068  51.734  0.00  0.00    +0.000 A 
ATOM     24  C   UNL     1      19.514  36.986  51.657  0.00  0.00    +0.000 A 
ATOM     25  C   UNL     1      20.806  36.562  51.335  0.00  0.00    +0.000 A 
ATOM     26  C   UNL     1      21.075  35.212  51.072  0.00  0.00    +0.000 A 
ATOM     27  C   UNL     1      20.015  34.299  51.125  0.00  0.00    +0.000 A 
ATOM     28  C   UNL     1      18.721  34.721  51.450  0.00  0.00    +0.000 A 
BRANCH  26  29
ATOM     29  C   UNL     1      22.430  34.777  50.712  0.00  0.00    +0.000 A 
ATOM     30  C   UNL     1      22.993  35.255  49.511  0.00  0.00    +0.000 A 
ATOM     31  C   UNL     1      24.293  34.913  49.131  0.00  0.00    +0.000 A 
ATOM     32  C   UNL     1      25.062  34.088  49.948  0.00  0.00    +0.000 A 
ATOM     33  C   UNL     1      24.528  33.600  51.141  0.00  0.00    +0.000 A 
ATOM     34  C   UNL     1      23.219  33.938  51.526  0.00  0.00    +0.000 A 
BRANCH  34  35
ATOM     35  C   UNL     1      22.692  33.371  52.792  0.00  0.00    +0.000 C 
ATOM     36  O   UNL     1      22.507  33.947  53.846  0.00  0.00    +0.000 OA
BRANCH  35  37
ATOM     37  O   UNL     1      22.418  32.058  52.660  0.00  0.00    +0.000 OA
ATOM     38  H   UNL     1      21.470  32.052  52.408  0.00  0.00    +0.000 HD
ENDBRANCH  35  37
ENDBRANCH  34  35
ENDBRANCH  26  29
ENDBRANCH  22  23
ENDBRANCH   9  22
TORSDOF 8
ENDMDL
