MODEL 1
REMARK VINA RESULT:    -6.294      0.000      0.000
REMARK INTER + INTRA:          -9.148
REMARK INTER:                  -8.538
REMARK INTRA:                  -0.610
REMARK UNBOUND:                -0.646
REMARK  Name = 
REMARK  7 active torsions:
REMARK  status: ('A' for Active; 'I' for Inactive)
REMARK    1  A    between atoms: C_2  and  O_3
REMARK    2  A    between atoms: C_2  and  C_4
REMARK    3  A    between atoms: C_8  and  C_9
REMARK    4  A    between atoms: C_9  and  S_10
REMARK    5  A    between atoms: S_10  and  C_11
REMARK    6  A    between atoms: C_12  and  O_13
REMARK    7  A    between atoms: C_15  and  C_16
REMARK                            x       y       z     vdW  Elec       q    Type
REMARK                         _______ _______ _______ _____ _____    ______ ____
ROOT
ATOM      1  C   UNL     1      14.001  43.390  44.613  0.00  0.00    +0.000 A 
ATOM      2  C   UNL     1      15.283  43.373  44.212  0.00  0.00    +0.000 A 
ATOM      3  C   UNL     1      16.092  42.192  44.341  0.00  0.00    +0.000 A 
ATOM      4  C   UNL     1      15.556  41.087  44.872  0.00  0.00    +0.000 A 
ATOM      5  O   UNL     1      14.208  41.055  45.296  0.00  0.00    +0.000 OA
ATOM      6  C   UNL     1      13.398  42.155  45.202  0.00  0.00    +0.000 A 
ATOM      7  O   UNL     1      12.238  42.108  45.604  0.00  0.00    +0.000 OA
ENDROOT
BRANCH   4   8
ATOM      8  C   UNL     1      16.285  39.818  45.044  0.00  0.00    +0.000 A 
ATOM      9  C   UNL     1      16.612  39.366  46.331  0.00  0.00    +0.000 A 
ATOM     10  C   UNL     1      17.309  38.168  46.515  0.00  0.00    +0.000 A 
ATOM     11  C   UNL     1      17.696  37.410  45.412  0.00  0.00    +0.000 A 
ATOM     12  C   UNL     1      17.390  37.851  44.127  0.00  0.00    +0.000 A 
ATOM     13  C   UNL     1      16.692  39.048  43.943  0.00  0.00    +0.000 A 
ENDBRANCH   4   8
BRANCH   2  14
ATOM     14  O   UNL     1      15.903  44.476  43.659  0.00  0.00    +0.000 OA
ATOM     15  H   UNL     1      15.356  45.268  43.788  0.00  0.00    +0.000 HD
ENDBRANCH   2  14
BRANCH   1  16
ATOM     16  S   UNL     1      12.986  44.793  44.436  0.00  0.00    +0.000 S 
BRANCH  16  17
ATOM     17  C   UNL     1      13.320  45.624  46.017  0.00  0.00    +0.000 C 
BRANCH  17  22
ATOM     18  C   UNL     1      14.779  49.057  45.193  0.00  0.00    +0.000 A 
ATOM     19  C   UNL     1      13.710  49.896  45.528  0.00  0.00    +0.000 A 
ATOM     20  C   UNL     1      12.522  49.355  46.020  0.00  0.00    +0.000 A 
ATOM     21  C   UNL     1      12.395  47.973  46.175  0.00  0.00    +0.000 A 
ATOM     22  C   UNL     1      13.453  47.116  45.835  0.00  0.00    +0.000 A 
ATOM     23  C   UNL     1      14.649  47.670  45.350  0.00  0.00    +0.000 A 
BRANCH  18  25
ATOM     24  O   UNL     1      16.100  50.464  43.754  0.00  0.00    +0.000 OA
ATOM     25  C   UNL     1      16.024  49.679  44.681  0.00  0.00    +0.000 C 
BRANCH  25  26
ATOM     26  O   UNL     1      17.120  49.284  45.352  0.00  0.00    +0.000 OA
ATOM     27  H   UNL     1      16.929  49.530  46.281  0.00  0.00    +0.000 HD
ENDBRANCH  25  26
ENDBRANCH  18  25
ENDBRANCH  17  22
ENDBRANCH  16  17
ENDBRANCH   1  16
TORSDOF 7
ENDMDL
MODEL 2
REMARK VINA RESULT:    -6.204      9.482     11.310
REMARK INTER + INTRA:          -9.027
REMARK INTER:                  -8.193
REMARK INTRA:                  -0.834
REMARK UNBOUND:                -0.646
REMARK  Name = 
REMARK  7 active torsions:
REMARK  status: ('A' for Active; 'I' for Inactive)
REMARK    1  A    between atoms: C_2  and  O_3
REMARK    2  A    between atoms: C_2  and  C_4
REMARK    3  A    between atoms: C_8  and  C_9
REMARK    4  A    between atoms: C_9  and  S_10
REMARK    5  A    between atoms: S_10  and  C_11
REMARK    6  A    between atoms: C_12  and  O_13
REMARK    7  A    between atoms: C_15  and  C_16
REMARK                            x       y       z     vdW  Elec       q    Type
REMARK                         _______ _______ _______ _____ _____    ______ ____
ROOT
ATOM      1  C   UNL     1      16.317  39.673  52.796  0.00  0.00    +0.000 A 
ATOM      2  C   UNL     1      17.647  39.783  52.956  0.00  0.00    +0.000 A 
ATOM      3  C   UNL     1      18.557  38.893  52.288  0.00  0.00    +0.000 A 
ATOM      4  C   UNL     1      18.069  37.935  51.491  0.00  0.00    +0.000 A 
ATOM      5  O   UNL     1      16.679  37.791  51.283  0.00  0.00    +0.000 OA
ATOM      6  C   UNL     1      15.769  38.607  51.902  0.00  0.00    +0.000 A 
ATOM      7  O   UNL     1      14.565  38.442  51.726  0.00  0.00    +0.000 OA
ENDROOT
BRANCH   4   8
ATOM      8  C   UNL     1      18.905  36.975  50.749  0.00  0.00    +0.000 A 
ATOM      9  C   UNL     1      20.174  36.628  51.237  0.00  0.00    +0.000 A 
ATOM     10  C   UNL     1      20.985  35.724  50.544  0.00  0.00    +0.000 A 
ATOM     11  C   UNL     1      20.540  35.160  49.351  0.00  0.00    +0.000 A 
ATOM     12  C   UNL     1      19.288  35.503  48.847  0.00  0.00    +0.000 A 
ATOM     13  C   UNL     1      18.476  36.406  49.541  0.00  0.00    +0.000 A 
ENDBRANCH   4   8
BRANCH   2  14
ATOM     14  O   UNL     1      18.221  40.743  53.765  0.00  0.00    +0.000 OA
ATOM     15  H   UNL     1      18.984  41.145  53.319  0.00  0.00    +0.000 HD
ENDBRANCH   2  14
BRANCH   1  16
ATOM     16  S   UNL     1      15.193  40.759  53.562  0.00  0.00    +0.000 S 
BRANCH  16  17
ATOM     17  C   UNL     1      14.610  39.701  54.920  0.00  0.00    +0.000 C 
BRANCH  17  22
ATOM     18  C   UNL     1      16.577  40.868  57.979  0.00  0.00    +0.000 A 
ATOM     19  C   UNL     1      17.395  39.757  58.218  0.00  0.00    +0.000 A 
ATOM     20  C   UNL     1      17.313  38.636  57.393  0.00  0.00    +0.000 A 
ATOM     21  C   UNL     1      16.410  38.616  56.328  0.00  0.00    +0.000 A 
ATOM     22  C   UNL     1      15.575  39.716  56.080  0.00  0.00    +0.000 A 
ATOM     23  C   UNL     1      15.672  40.846  56.910  0.00  0.00    +0.000 A 
BRANCH  18  25
ATOM     24  O   UNL     1      15.787  42.648  59.394  0.00  0.00    +0.000 OA
ATOM     25  C   UNL     1      16.706  42.039  58.879  0.00  0.00    +0.000 C 
BRANCH  25  26
ATOM     26  O   UNL     1      17.984  42.398  59.090  0.00  0.00    +0.000 OA
ATOM     27  H   UNL     1      18.067  43.257  58.626  0.00  0.00    +0.000 HD
ENDBRANCH  25  26
ENDBRANCH  18  25
ENDBRANCH  17  22
ENDBRANCH  16  17
ENDBRANCH   1  16
TORSDOF 7
ENDMDL
MODEL 3
REMARK VINA RESULT:    -6.189      2.286      3.188
REMARK INTER + INTRA:          -9.006
REMARK INTER:                  -8.360
REMARK INTRA:                  -0.646
REMARK UNBOUND:                -0.646
REMARK  Name = 
REMARK  7 active torsions:
REMARK  status: ('A' for Active; 'I' for Inactive)
REMARK    1  A    between atoms: C_2  and  O_3
REMARK    2  A    between atoms: C_2  and  C_4
REMARK    3  A    between atoms: C_8  and  C_9
REMARK    4  A    between atoms: C_9  and  S_10
REMARK    5  A    between atoms: S_10  and  C_11
REMARK    6  A    between atoms: C_12  and  O_13
REMARK    7  A    between atoms: C_15  and  C_16
REMARK                            x       y       z     vdW  Elec       q    Type
REMARK                         _______ _______ _______ _____ _____    ______ ____
ROOT
ATOM      1  C   UNL     1      15.523  41.930  44.789  0.00  0.00    +0.000 A 
ATOM      2  C   UNL     1      16.192  42.519  43.783  0.00  0.00    +0.000 A 
ATOM      3  C   UNL     1      16.663  41.763  42.655  0.00  0.00    +0.000 A 
ATOM      4  C   UNL     1      16.430  40.446  42.606  0.00  0.00    +0.000 A 
ATOM      5  O   UNL     1      15.719  39.787  43.634  0.00  0.00    +0.000 OA
ATOM      6  C   UNL     1      15.257  40.460  44.735  0.00  0.00    +0.000 A 
ATOM      7  O   UNL     1      14.666  39.857  45.628  0.00  0.00    +0.000 OA
ENDROOT
BRANCH   4   8
ATOM      8  C   UNL     1      16.855  39.575  41.496  0.00  0.00    +0.000 A 
ATOM      9  C   UNL     1      18.221  39.351  41.265  0.00  0.00    +0.000 A 
ATOM     10  C   UNL     1      18.645  38.534  40.213  0.00  0.00    +0.000 A 
ATOM     11  C   UNL     1      17.708  37.934  39.374  0.00  0.00    +0.000 A 
ATOM     12  C   UNL     1      16.350  38.155  39.583  0.00  0.00    +0.000 A 
ATOM     13  C   UNL     1      15.925  38.972  40.636  0.00  0.00    +0.000 A 
ENDBRANCH   4   8
BRANCH   2  14
ATOM     14  O   UNL     1      16.472  43.870  43.768  0.00  0.00    +0.000 OA
ATOM     15  H   UNL     1      15.781  44.351  43.283  0.00  0.00    +0.000 HD
ENDBRANCH   2  14
BRANCH   1  16
ATOM     16  S   UNL     1      14.909  42.824  46.150  0.00  0.00    +0.000 S 
BRANCH  16  17
ATOM     17  C   UNL     1      13.343  43.425  45.451  0.00  0.00    +0.000 C 
BRANCH  17  22
ATOM     18  C   UNL     1      13.953  47.194  45.571  0.00  0.00    +0.000 A 
ATOM     19  C   UNL     1      12.811  47.634  46.252  0.00  0.00    +0.000 A 
ATOM     20  C   UNL     1      11.849  46.716  46.672  0.00  0.00    +0.000 A 
ATOM     21  C   UNL     1      12.019  45.355  46.410  0.00  0.00    +0.000 A 
ATOM     22  C   UNL     1      13.152  44.898  45.720  0.00  0.00    +0.000 A 
ATOM     23  C   UNL     1      14.122  45.828  45.310  0.00  0.00    +0.000 A 
BRANCH  18  25
ATOM     24  O   UNL     1      14.718  49.217  44.514  0.00  0.00    +0.000 OA
ATOM     25  C   UNL     1      14.952  48.207  45.150  0.00  0.00    +0.000 C 
BRANCH  25  26
ATOM     26  O   UNL     1      16.201  47.903  45.543  0.00  0.00    +0.000 OA
ATOM     27  H   UNL     1      16.113  47.744  46.506  0.00  0.00    +0.000 HD
ENDBRANCH  25  26
ENDBRANCH  18  25
ENDBRANCH  17  22
ENDBRANCH  16  17
ENDBRANCH   1  16
TORSDOF 7
ENDMDL
