MODEL 1
REMARK VINA RESULT:    -5.643      0.000      0.000
REMARK INTER + INTRA:         -12.904
REMARK INTER:                  -9.107
REMARK INTRA:                  -3.797
REMARK UNBOUND:                -3.797
REMARK  Name = 
REMARK  13 active torsions:
REMARK  status: ('A' for Active; 'I' for Inactive)
REMARK    1  A    between atoms: C_2  and  C_4
REMARK    2  A    between atoms: C_7  and  C_8
REMARK    3  A    between atoms: C_11  and  C_12
REMARK    4  A    between atoms: C_12  and  C_13
REMARK    5  A    between atoms: N_15  and  C_16
REMARK    6  A    between atoms: C_16  and  C_17
REMARK    7  A    between atoms: C_17  and  N_18
REMARK    8  A    between atoms: C_17  and  C_32
REMARK    9  A    between atoms: N_18  and  S_19
REMARK   10  A    between atoms: S_19  and  C_22
REMARK   11  A    between atoms: C_32  and  O_34
REMARK   12  A    between atoms: C_39  and  O_40
REMARK   13  A    between atoms: C_39  and  C_41
REMARK                            x       y       z     vdW  Elec       q    Type
REMARK                         _______ _______ _______ _____ _____    ______ ____
ROOT
ATOM      1  C   UNL     1      14.599  39.852  58.983  0.00  0.00    +0.000 C 
ATOM      2  O   UNL     1      14.245  38.690  59.139  0.00  0.00    +0.000 OA
ATOM      3  N   UNL     1      13.762  40.832  58.487  0.00  0.00    +0.000 N 
ATOM      4  H   UNL     1      14.192  41.673  58.110  0.00  0.00    +0.000 HD
ENDROOT
BRANCH   1   5
ATOM      5  C   UNL     1      16.011  40.340  59.235  0.00  0.00    +0.000 C 
BRANCH   5   9
ATOM      6  C   UNL     1      16.768  40.045  55.738  0.00  0.00    +0.000 C 
ATOM      7  N   UNL     1      16.207  41.213  55.767  0.00  0.00    +0.000 NA
ATOM      8  O   UNL     1      15.927  41.504  57.123  0.00  0.00    +0.000 OA
ATOM      9  C   UNL     1      16.737  40.635  57.931  0.00  0.00    +0.000 C 
ATOM     10  C   UNL     1      16.907  39.398  57.073  0.00  0.00    +0.000 C 
BRANCH   6  14
ATOM     11  C   UNL     1      18.004  38.078  52.143  0.00  0.00    +0.000 A 
ATOM     12  C   UNL     1      18.504  39.351  52.438  0.00  0.00    +0.000 A 
ATOM     13  C   UNL     1      18.104  40.004  53.610  0.00  0.00    +0.000 A 
ATOM     14  C   UNL     1      17.209  39.383  54.489  0.00  0.00    +0.000 A 
ATOM     15  C   UNL     1      16.718  38.105  54.192  0.00  0.00    +0.000 A 
ATOM     16  C   UNL     1      17.113  37.454  53.020  0.00  0.00    +0.000 A 
BRANCH  11  18
ATOM     17  N   UNL     1      17.721  37.427  49.817  0.00  0.00    +0.000 NA
ATOM     18  C   UNL     1      18.424  37.377  50.903  0.00  0.00    +0.000 C 
ATOM     19  N   UNL     1      19.573  36.652  50.869  0.00  0.00    +0.000 N 
ATOM     20  H   UNL     1      16.891  38.014  49.940  0.00  0.00    +0.000 HD
ATOM     21  H   UNL     1      19.861  36.396  49.930  0.00  0.00    +0.000 HD
ATOM     22  H   UNL     1      20.321  36.847  51.517  0.00  0.00    +0.000 HD
ENDBRANCH  11  18
ENDBRANCH   6  14
ENDBRANCH   5   9
ENDBRANCH   1   5
BRANCH   3  23
ATOM     23  C   UNL     1      12.409  40.498  58.059  0.00  0.00    +0.000 C 
BRANCH  23  24
ATOM     24  C   UNL     1      11.833  41.486  57.038  0.00  0.00    +0.000 C 
BRANCH  24  25
ATOM     25  N   UNL     1      12.904  41.916  56.099  0.00  0.00    +0.000 NA
ATOM     26  H   UNL     1      13.647  42.478  56.522  0.00  0.00    +0.000 HD
BRANCH  25  27
ATOM     27  S   UNL     1      12.394  42.627  54.660  0.00  0.00    +0.000 S 
ATOM     28  O   UNL     1      12.189  44.031  54.937  0.00  0.00    +0.000 OA
ATOM     29  O   UNL     1      11.327  41.800  54.136  0.00  0.00    +0.000 OA
BRANCH  27  30
ATOM     30  C   UNL     1      13.826  42.462  53.613  0.00  0.00    +0.000 A 
ATOM     31  C   UNL     1      14.762  43.508  53.657  0.00  0.00    +0.000 A 
ATOM     32  C   UNL     1      15.890  43.466  52.851  0.00  0.00    +0.000 A 
ATOM     33  C   UNL     1      16.088  42.383  51.999  0.00  0.00    +0.000 A 
ATOM     34  C   UNL     1      15.170  41.322  51.944  0.00  0.00    +0.000 A 
ATOM     35  C   UNL     1      15.411  40.248  51.071  0.00  0.00    +0.000 A 
ATOM     36  C   UNL     1      14.527  39.176  50.987  0.00  0.00    +0.000 A 
ATOM     37  C   UNL     1      13.390  39.162  51.778  0.00  0.00    +0.000 A 
ATOM     38  C   UNL     1      13.135  40.223  52.652  0.00  0.00    +0.000 A 
ATOM     39  C   UNL     1      14.009  41.335  52.761  0.00  0.00    +0.000 A 
ENDBRANCH  27  30
ENDBRANCH  25  27
ENDBRANCH  24  25
BRANCH  24  40
ATOM     40  C   UNL     1      11.261  42.673  57.797  0.00  0.00    +0.000 C 
ATOM     41  O   UNL     1      11.900  43.432  58.512  0.00  0.00    +0.000 OA
BRANCH  40  42
ATOM     42  O   UNL     1       9.951  42.899  57.554  0.00  0.00    +0.000 OA
ATOM     43  H   UNL     1       9.547  42.005  57.508  0.00  0.00    +0.000 HD
ENDBRANCH  40  42
ENDBRANCH  24  40
ENDBRANCH  23  24
ENDBRANCH   3  23
TORSDOF 11
ENDMDL
MODEL 2
REMARK VINA RESULT:    -5.623      2.550      4.655
REMARK INTER + INTRA:         -12.873
REMARK INTER:                  -7.462
REMARK INTRA:                  -5.411
REMARK UNBOUND:                -3.797
REMARK  Name = 
REMARK  13 active torsions:
REMARK  status: ('A' for Active; 'I' for Inactive)
REMARK    1  A    between atoms: C_2  and  C_4
REMARK    2  A    between atoms: C_7  and  C_8
REMARK    3  A    between atoms: C_11  and  C_12
REMARK    4  A    between atoms: C_12  and  C_13
REMARK    5  A    between atoms: N_15  and  C_16
REMARK    6  A    between atoms: C_16  and  C_17
REMARK    7  A    between atoms: C_17  and  N_18
REMARK    8  A    between atoms: C_17  and  C_32
REMARK    9  A    between atoms: N_18  and  S_19
REMARK   10  A    between atoms: S_19  and  C_22
REMARK   11  A    between atoms: C_32  and  O_34
REMARK   12  A    between atoms: C_39  and  O_40
REMARK   13  A    between atoms: C_39  and  C_41
REMARK                            x       y       z     vdW  Elec       q    Type
REMARK                         _______ _______ _______ _____ _____    ______ ____
ROOT
ATOM      1  C   UNL     1      12.081  42.179  55.779  0.00  0.00    +0.000 C 
ATOM      2  O   UNL     1      11.787  43.351  55.980  0.00  0.00    +0.000 OA
ATOM      3  N   UNL     1      12.657  41.740  54.603  0.00  0.00    +0.000 N 
ATOM      4  H   UNL     1      12.595  40.748  54.390  0.00  0.00    +0.000 HD
ENDROOT
BRANCH   1   5
ATOM      5  C   UNL     1      11.775  41.059  56.752  0.00  0.00    +0.000 C 
BRANCH   5   9
ATOM      6  C   UNL     1      14.794  39.161  56.344  0.00  0.00    +0.000 C 
ATOM      7  N   UNL     1      15.279  40.326  56.639  0.00  0.00    +0.000 NA
ATOM      8  O   UNL     1      14.180  41.174  56.916  0.00  0.00    +0.000 OA
ATOM      9  C   UNL     1      13.042  40.336  57.184  0.00  0.00    +0.000 C 
ATOM     10  C   UNL     1      13.306  39.093  56.360  0.00  0.00    +0.000 C 
BRANCH   6  14
ATOM     11  C   UNL     1      17.168  35.752  55.311  0.00  0.00    +0.000 A 
ATOM     12  C   UNL     1      17.793  36.982  55.540  0.00  0.00    +0.000 A 
ATOM     13  C   UNL     1      17.026  38.105  55.876  0.00  0.00    +0.000 A 
ATOM     14  C   UNL     1      15.635  37.996  55.988  0.00  0.00    +0.000 A 
ATOM     15  C   UNL     1      15.016  36.759  55.765  0.00  0.00    +0.000 A 
ATOM     16  C   UNL     1      15.780  35.639  55.425  0.00  0.00    +0.000 A 
BRANCH  11  18
ATOM     17  N   UNL     1      17.447  33.378  54.861  0.00  0.00    +0.000 NA
ATOM     18  C   UNL     1      17.975  34.557  54.956  0.00  0.00    +0.000 C 
ATOM     19  N   UNL     1      19.308  34.663  54.718  0.00  0.00    +0.000 N 
ATOM     20  H   UNL     1      16.438  33.410  55.037  0.00  0.00    +0.000 HD
ATOM     21  H   UNL     1      19.708  33.835  54.287  0.00  0.00    +0.000 HD
ATOM     22  H   UNL     1      19.708  35.542  54.427  0.00  0.00    +0.000 HD
ENDBRANCH  11  18
ENDBRANCH   6  14
ENDBRANCH   5   9
ENDBRANCH   1   5
BRANCH   3  23
ATOM     23  C   UNL     1      12.886  42.669  53.503  0.00  0.00    +0.000 C 
BRANCH  23  24
ATOM     24  C   UNL     1      14.365  42.810  53.124  0.00  0.00    +0.000 C 
BRANCH  24  25
ATOM     25  N   UNL     1      15.166  41.789  53.852  0.00  0.00    +0.000 NA
ATOM     26  H   UNL     1      15.486  42.076  54.781  0.00  0.00    +0.000 HD
BRANCH  25  27
ATOM     27  S   UNL     1      16.437  41.089  52.996  0.00  0.00    +0.000 S 
ATOM     28  O   UNL     1      17.538  40.951  53.922  0.00  0.00    +0.000 OA
ATOM     29  O   UNL     1      16.579  41.837  51.765  0.00  0.00    +0.000 OA
BRANCH  27  30
ATOM     30  C   UNL     1      15.808  39.465  52.621  0.00  0.00    +0.000 A 
ATOM     31  C   UNL     1      14.419  39.288  52.731  0.00  0.00    +0.000 A 
ATOM     32  C   UNL     1      13.855  38.044  52.482  0.00  0.00    +0.000 A 
ATOM     33  C   UNL     1      14.673  36.976  52.125  0.00  0.00    +0.000 A 
ATOM     34  C   UNL     1      16.064  37.132  52.002  0.00  0.00    +0.000 A 
ATOM     35  C   UNL     1      16.850  36.027  51.637  0.00  0.00    +0.000 A 
ATOM     36  C   UNL     1      18.231  36.139  51.502  0.00  0.00    +0.000 A 
ATOM     37  C   UNL     1      18.845  37.361  51.728  0.00  0.00    +0.000 A 
ATOM     38  C   UNL     1      18.076  38.470  52.093  0.00  0.00    +0.000 A 
ATOM     39  C   UNL     1      16.668  38.393  52.245  0.00  0.00    +0.000 A 
ENDBRANCH  27  30
ENDBRANCH  25  27
ENDBRANCH  24  25
BRANCH  24  40
ATOM     40  C   UNL     1      14.815  44.217  53.482  0.00  0.00    +0.000 C 
ATOM     41  O   UNL     1      14.195  45.002  54.185  0.00  0.00    +0.000 OA
BRANCH  40  42
ATOM     42  O   UNL     1      16.045  44.533  53.019  0.00  0.00    +0.000 OA
ATOM     43  H   UNL     1      15.882  45.160  52.282  0.00  0.00    +0.000 HD
ENDBRANCH  40  42
ENDBRANCH  24  40
ENDBRANCH  23  24
ENDBRANCH   3  23
TORSDOF 11
ENDMDL
MODEL 3
REMARK VINA RESULT:    -5.551      8.187     10.732
REMARK INTER + INTRA:         -12.755
REMARK INTER:                  -7.303
REMARK INTRA:                  -5.452
REMARK UNBOUND:                -3.797
REMARK  Name = 
REMARK  13 active torsions:
REMARK  status: ('A' for Active; 'I' for Inactive)
REMARK    1  A    between atoms: C_2  and  C_4
REMARK    2  A    between atoms: C_7  and  C_8
REMARK    3  A    between atoms: C_11  and  C_12
REMARK    4  A    between atoms: C_12  and  C_13
REMARK    5  A    between atoms: N_15  and  C_16
REMARK    6  A    between atoms: C_16  and  C_17
REMARK    7  A    between atoms: C_17  and  N_18
REMARK    8  A    between atoms: C_17  and  C_32
REMARK    9  A    between atoms: N_18  and  S_19
REMARK   10  A    between atoms: S_19  and  C_22
REMARK   11  A    between atoms: C_32  and  O_34
REMARK   12  A    between atoms: C_39  and  O_40
REMARK   13  A    between atoms: C_39  and  C_41
REMARK                            x       y       z     vdW  Elec       q    Type
REMARK                         _______ _______ _______ _____ _____    ______ ____
ROOT
ATOM      1  C   UNL     1      15.580  38.129  47.564  0.00  0.00    +0.000 C 
ATOM      2  O   UNL     1      16.016  37.939  48.693  0.00  0.00    +0.000 OA
ATOM      3  N   UNL     1      14.286  38.545  47.319  0.00  0.00    +0.000 N 
ATOM      4  H   UNL     1      13.911  38.394  46.386  0.00  0.00    +0.000 HD
ENDROOT
BRANCH   1   5
ATOM      5  C   UNL     1      16.371  37.854  46.302  0.00  0.00    +0.000 C 
BRANCH   5   9
ATOM      6  C   UNL     1      15.768  40.748  44.267  0.00  0.00    +0.000 C 
ATOM      7  N   UNL     1      15.914  41.297  45.431  0.00  0.00    +0.000 NA
ATOM      8  O   UNL     1      16.248  40.263  46.337  0.00  0.00    +0.000 OA
ATOM      9  C   UNL     1      16.709  39.141  45.566  0.00  0.00    +0.000 C 
ATOM     10  C   UNL     1      15.960  39.271  44.256  0.00  0.00    +0.000 C 
BRANCH   6  14
ATOM     11  C   UNL     1      14.697  42.889  40.717  0.00  0.00    +0.000 A 
ATOM     12  C   UNL     1      15.477  43.519  41.692  0.00  0.00    +0.000 A 
ATOM     13  C   UNL     1      15.831  42.829  42.859  0.00  0.00    +0.000 A 
ATOM     14  C   UNL     1      15.409  41.508  43.047  0.00  0.00    +0.000 A 
ATOM     15  C   UNL     1      14.635  40.879  42.063  0.00  0.00    +0.000 A 
ATOM     16  C   UNL     1      14.277  41.568  40.901  0.00  0.00    +0.000 A 
BRANCH  11  18
ATOM     17  N   UNL     1      13.906  44.840  39.500  0.00  0.00    +0.000 NA
ATOM     18  C   UNL     1      14.319  43.613  39.477  0.00  0.00    +0.000 C 
ATOM     19  N   UNL     1      14.393  43.003  38.265  0.00  0.00    +0.000 N 
ATOM     20  H   UNL     1      13.908  45.213  40.454  0.00  0.00    +0.000 HD
ATOM     21  H   UNL     1      14.313  43.647  37.485  0.00  0.00    +0.000 HD
ATOM     22  H   UNL     1      15.012  42.219  38.123  0.00  0.00    +0.000 HD
ENDBRANCH  11  18
ENDBRANCH   6  14
ENDBRANCH   5   9
ENDBRANCH   1   5
BRANCH   3  23
ATOM     23  C   UNL     1      13.347  38.718  48.421  0.00  0.00    +0.000 C 
BRANCH  23  24
ATOM     24  C   UNL     1      12.994  40.185  48.695  0.00  0.00    +0.000 C 
BRANCH  24  25
ATOM     25  N   UNL     1      13.394  41.020  47.530  0.00  0.00    +0.000 NA
ATOM     26  H   UNL     1      13.753  41.948  47.769  0.00  0.00    +0.000 HD
BRANCH  25  27
ATOM     27  S   UNL     1      12.272  41.143  46.280  0.00  0.00    +0.000 S 
ATOM     28  O   UNL     1      10.970  41.263  46.896  0.00  0.00    +0.000 OA
ATOM     29  O   UNL     1      12.565  40.078  45.344  0.00  0.00    +0.000 OA
BRANCH  27  30
ATOM     30  C   UNL     1      12.689  42.706  45.533  0.00  0.00    +0.000 A 
ATOM     31  C   UNL     1      13.533  43.551  46.272  0.00  0.00    +0.000 A 
ATOM     32  C   UNL     1      13.882  44.797  45.770  0.00  0.00    +0.000 A 
ATOM     33  C   UNL     1      13.391  45.203  44.533  0.00  0.00    +0.000 A 
ATOM     34  C   UNL     1      12.551  44.372  43.773  0.00  0.00    +0.000 A 
ATOM     35  C   UNL     1      12.080  44.822  42.528  0.00  0.00    +0.000 A 
ATOM     36  C   UNL     1      11.248  44.028  41.743  0.00  0.00    +0.000 A 
ATOM     37  C   UNL     1      10.877  42.771  42.192  0.00  0.00    +0.000 A 
ATOM     38  C   UNL     1      11.337  42.308  43.429  0.00  0.00    +0.000 A 
ATOM     39  C   UNL     1      12.182  43.090  44.258  0.00  0.00    +0.000 A 
ENDBRANCH  27  30
ENDBRANCH  25  27
ENDBRANCH  24  25
BRANCH  24  40
ATOM     40  C   UNL     1      13.723  40.620  49.957  0.00  0.00    +0.000 C 
ATOM     41  O   UNL     1      13.189  40.924  51.014  0.00  0.00    +0.000 OA
BRANCH  40  42
ATOM     42  O   UNL     1      15.070  40.568  49.856  0.00  0.00    +0.000 OA
ATOM     43  H   UNL     1      15.385  40.461  50.780  0.00  0.00    +0.000 HD
ENDBRANCH  40  42
ENDBRANCH  24  40
ENDBRANCH  23  24
ENDBRANCH   3  23
TORSDOF 11
ENDMDL
