MODEL 1
REMARK VINA RESULT:    -6.384      0.000      0.000
REMARK INTER + INTRA:          -8.772
REMARK INTER:                  -7.687
REMARK INTRA:                  -1.085
REMARK UNBOUND:                -1.268
REMARK  Name = 
REMARK  3 active torsions:
REMARK  status: ('A' for Active; 'I' for Inactive)
REMARK    1  A    between atoms: C_2  and  C_4
REMARK    2  A    between atoms: N_6  and  C_7
REMARK    3  A    between atoms: C_16  and  C_17
REMARK                            x       y       z     vdW  Elec       q    Type
REMARK                         _______ _______ _______ _____ _____    ______ ____
ROOT
ATOM      1  C   UNL     1      16.303  39.648  45.033  0.00  0.00    +0.000 A 
ATOM      2  C   UNL     1      15.625  39.835  46.175  0.00  0.00    +0.000 A 
ATOM      3  N   UNL     1      14.917  40.973  46.558  0.00  0.00    +0.000 N 
ATOM      4  C   UNL     1      14.942  42.102  45.673  0.00  0.00    +0.000 A 
ATOM      5  C   UNL     1      14.358  43.339  46.011  0.00  0.00    +0.000 A 
ATOM      6  C   UNL     1      14.379  44.446  45.140  0.00  0.00    +0.000 A 
ATOM      7  C   UNL     1      15.024  44.303  43.904  0.00  0.00    +0.000 A 
ATOM      8  C   UNL     1      15.638  43.101  43.553  0.00  0.00    +0.000 A 
ATOM      9  C   UNL     1      15.605  42.013  44.435  0.00  0.00    +0.000 A 
ATOM     10  C   UNL     1      16.302  40.762  44.056  0.00  0.00    +0.000 A 
ATOM     11  O   UNL     1      16.864  40.666  42.967  0.00  0.00    +0.000 OA
ENDROOT
BRANCH   3  12
ATOM     12  C   UNL     1      14.140  40.913  47.759  0.00  0.00    +0.000 A 
ATOM     13  C   UNL     1      14.753  40.638  48.995  0.00  0.00    +0.000 A 
ATOM     14  C   UNL     1      13.993  40.569  50.166  0.00  0.00    +0.000 A 
ATOM     15  C   UNL     1      12.620  40.765  50.104  0.00  0.00    +0.000 A 
ATOM     16  F   UNL     1      11.893  40.698  51.226  0.00  0.00    +0.000 F 
ATOM     17  C   UNL     1      11.989  41.027  48.895  0.00  0.00    +0.000 A 
ATOM     18  C   UNL     1      12.745  41.098  47.724  0.00  0.00    +0.000 A 
ENDBRANCH   3  12
BRANCH   6  19
ATOM     19  C   UNL     1      13.749  45.721  45.523  0.00  0.00    +0.000 A 
ATOM     20  C   UNL     1      12.552  45.743  46.259  0.00  0.00    +0.000 A 
ATOM     21  C   UNL     1      11.953  46.952  46.624  0.00  0.00    +0.000 A 
ATOM     22  C   UNL     1      12.541  48.159  46.260  0.00  0.00    +0.000 A 
ATOM     23  C   UNL     1      13.728  48.160  45.532  0.00  0.00    +0.000 A 
ATOM     24  C   UNL     1      14.326  46.951  45.167  0.00  0.00    +0.000 A 
ENDBRANCH   6  19
BRANCH   1  26
ATOM     25  N   UNL     1      16.753  37.730  43.634  0.00  0.00    +0.000 N 
ATOM     26  C   UNL     1      16.982  38.342  44.825  0.00  0.00    +0.000 C 
ATOM     27  O   UNL     1      17.712  37.828  45.665  0.00  0.00    +0.000 OA
ATOM     28  H   UNL     1      17.191  36.839  43.447  0.00  0.00    +0.000 HD
ATOM     29  H   UNL     1      16.147  38.144  42.928  0.00  0.00    +0.000 HD
ENDBRANCH   1  26
TORSDOF 3
ENDMDL
MODEL 2
REMARK VINA RESULT:    -6.361      2.568      5.956
REMARK INTER + INTRA:          -8.744
REMARK INTER:                  -7.615
REMARK INTRA:                  -1.129
REMARK UNBOUND:                -1.268
REMARK  Name = 
REMARK  3 active torsions:
REMARK  status: ('A' for Active; 'I' for Inactive)
REMARK    1  A    between atoms: C_2  and  C_4
REMARK    2  A    between atoms: N_6  and  C_7
REMARK    3  A    between atoms: C_16  and  C_17
REMARK                            x       y       z     vdW  Elec       q    Type
REMARK                         _______ _______ _______ _____ _____    ______ ____
ROOT
ATOM      1  C   UNL     1      14.849  42.650  41.952  0.00  0.00    +0.000 A 
ATOM      2  C   UNL     1      14.186  43.370  42.869  0.00  0.00    +0.000 A 
ATOM      3  N   UNL     1      14.137  43.146  44.243  0.00  0.00    +0.000 N 
ATOM      4  C   UNL     1      14.822  41.993  44.754  0.00  0.00    +0.000 A 
ATOM      5  C   UNL     1      14.745  41.607  46.107  0.00  0.00    +0.000 A 
ATOM      6  C   UNL     1      15.421  40.478  46.609  0.00  0.00    +0.000 A 
ATOM      7  C   UNL     1      16.180  39.710  45.716  0.00  0.00    +0.000 A 
ATOM      8  C   UNL     1      16.252  40.049  44.365  0.00  0.00    +0.000 A 
ATOM      9  C   UNL     1      15.570  41.175  43.887  0.00  0.00    +0.000 A 
ATOM     10  C   UNL     1      15.628  41.487  42.439  0.00  0.00    +0.000 A 
ATOM     11  O   UNL     1      16.297  40.793  41.678  0.00  0.00    +0.000 OA
ENDROOT
BRANCH   3  12
ATOM     12  C   UNL     1      13.487  44.121  45.064  0.00  0.00    +0.000 A 
ATOM     13  C   UNL     1      12.318  43.795  45.775  0.00  0.00    +0.000 A 
ATOM     14  C   UNL     1      11.677  44.751  46.568  0.00  0.00    +0.000 A 
ATOM     15  C   UNL     1      12.198  46.035  46.647  0.00  0.00    +0.000 A 
ATOM     16  F   UNL     1      11.582  46.951  47.406  0.00  0.00    +0.000 F 
ATOM     17  C   UNL     1      13.345  46.387  45.947  0.00  0.00    +0.000 A 
ATOM     18  C   UNL     1      13.987  45.434  45.155  0.00  0.00    +0.000 A 
ENDBRANCH   3  12
BRANCH   6  19
ATOM     19  C   UNL     1      15.325  40.111  48.032  0.00  0.00    +0.000 A 
ATOM     20  C   UNL     1      14.461  40.801  48.900  0.00  0.00    +0.000 A 
ATOM     21  C   UNL     1      14.368  40.453  50.251  0.00  0.00    +0.000 A 
ATOM     22  C   UNL     1      15.138  39.411  50.756  0.00  0.00    +0.000 A 
ATOM     23  C   UNL     1      16.000  38.713  49.914  0.00  0.00    +0.000 A 
ATOM     24  C   UNL     1      16.093  39.062  48.564  0.00  0.00    +0.000 A 
ENDBRANCH   6  19
BRANCH   1  26
ATOM     25  N   UNL     1      14.422  42.120  39.634  0.00  0.00    +0.000 N 
ATOM     26  C   UNL     1      14.771  43.078  40.531  0.00  0.00    +0.000 C 
ATOM     27  O   UNL     1      15.003  44.226  40.166  0.00  0.00    +0.000 OA
ATOM     28  H   UNL     1      14.358  42.362  38.655  0.00  0.00    +0.000 HD
ATOM     29  H   UNL     1      14.230  41.162  39.923  0.00  0.00    +0.000 HD
ENDBRANCH   1  26
TORSDOF 3
ENDMDL
MODEL 3
REMARK VINA RESULT:    -6.193      3.662      5.499
REMARK INTER + INTRA:          -8.547
REMARK INTER:                  -7.280
REMARK INTRA:                  -1.268
REMARK UNBOUND:                -1.268
REMARK  Name = 
REMARK  3 active torsions:
REMARK  status: ('A' for Active; 'I' for Inactive)
REMARK    1  A    between atoms: C_2  and  C_4
REMARK    2  A    between atoms: N_6  and  C_7
REMARK    3  A    between atoms: C_16  and  C_17
REMARK                            x       y       z     vdW  Elec       q    Type
REMARK                         _______ _______ _______ _____ _____    ______ ____
ROOT
ATOM      1  C   UNL     1      15.935  39.537  42.791  0.00  0.00    +0.000 A 
ATOM      2  C   UNL     1      15.252  40.331  41.951  0.00  0.00    +0.000 A 
ATOM      3  N   UNL     1      14.660  41.558  42.246  0.00  0.00    +0.000 N 
ATOM      4  C   UNL     1      14.731  42.023  43.601  0.00  0.00    +0.000 A 
ATOM      5  C   UNL     1      14.071  43.190  44.033  0.00  0.00    +0.000 A 
ATOM      6  C   UNL     1      14.144  43.649  45.364  0.00  0.00    +0.000 A 
ATOM      7  C   UNL     1      14.888  42.897  46.283  0.00  0.00    +0.000 A 
ATOM      8  C   UNL     1      15.527  41.721  45.893  0.00  0.00    +0.000 A 
ATOM      9  C   UNL     1      15.440  41.283  44.565  0.00  0.00    +0.000 A 
ATOM     10  C   UNL     1      16.093  40.007  44.188  0.00  0.00    +0.000 A 
ATOM     11  O   UNL     1      16.735  39.365  45.016  0.00  0.00    +0.000 OA
ENDROOT
BRANCH   3  12
ATOM     12  C   UNL     1      14.102  42.314  41.166  0.00  0.00    +0.000 A 
ATOM     13  C   UNL     1      14.826  43.368  40.580  0.00  0.00    +0.000 A 
ATOM     14  C   UNL     1      14.277  44.113  39.534  0.00  0.00    +0.000 A 
ATOM     15  C   UNL     1      13.001  43.812  39.075  0.00  0.00    +0.000 A 
ATOM     16  F   UNL     1      12.475  44.528  38.072  0.00  0.00    +0.000 F 
ATOM     17  C   UNL     1      12.261  42.783  39.643  0.00  0.00    +0.000 A 
ATOM     18  C   UNL     1      12.808  42.037  40.688  0.00  0.00    +0.000 A 
ENDBRANCH   3  12
BRANCH   6  19
ATOM     19  C   UNL     1      13.449  44.880  45.777  0.00  0.00    +0.000 A 
ATOM     20  C   UNL     1      12.247  44.823  46.503  0.00  0.00    +0.000 A 
ATOM     21  C   UNL     1      11.587  45.991  46.897  0.00  0.00    +0.000 A 
ATOM     22  C   UNL     1      12.118  47.235  46.571  0.00  0.00    +0.000 A 
ATOM     23  C   UNL     1      13.308  47.315  45.852  0.00  0.00    +0.000 A 
ATOM     24  C   UNL     1      13.967  46.147  45.458  0.00  0.00    +0.000 A 
ENDBRANCH   6  19
BRANCH   1  26
ATOM     25  N   UNL     1      17.814  38.048  42.492  0.00  0.00    +0.000 N 
ATOM     26  C   UNL     1      16.494  38.267  42.258  0.00  0.00    +0.000 C 
ATOM     27  O   UNL     1      15.821  37.448  41.643  0.00  0.00    +0.000 OA
ATOM     28  H   UNL     1      18.240  37.200  42.147  0.00  0.00    +0.000 HD
ATOM     29  H   UNL     1      18.386  38.722  42.999  0.00  0.00    +0.000 HD
ENDBRANCH   1  26
TORSDOF 3
ENDMDL
