MODEL 1
REMARK VINA RESULT:    -7.347      0.000      0.000
REMARK INTER + INTRA:          -9.968
REMARK INTER:                  -9.344
REMARK INTRA:                  -0.624
REMARK UNBOUND:                -0.473
REMARK  Name = 
REMARK  5 active torsions:
REMARK  status: ('A' for Active; 'I' for Inactive)
REMARK    1  A    between atoms: C_1  and  C_25
REMARK    2  A    between atoms: C_2  and  C_3
REMARK    3  A    between atoms: C_5  and  C_6
REMARK    4  A    between atoms: N_17  and  C_18
REMARK    5  A    between atoms: C_18  and  C_19
REMARK                            x       y       z     vdW  Elec       q    Type
REMARK                         _______ _______ _______ _____ _____    ______ ____
ROOT
ATOM      1  C   UNL     1      17.645  38.142  52.652  0.00  0.00    +0.000 A 
ATOM      2  N   UNL     1      17.836  38.127  53.990  0.00  0.00    +0.000 NA
ATOM      3  C   UNL     1      16.962  38.811  54.768  0.00  0.00    +0.000 A 
ATOM      4  N   UNL     1      15.894  39.521  54.333  0.00  0.00    +0.000 NA
ATOM      5  C   UNL     1      15.770  39.495  52.996  0.00  0.00    +0.000 A 
ATOM      6  C   UNL     1      16.586  38.838  52.088  0.00  0.00    +0.000 A 
ATOM      7  N   UNL     1      16.136  39.035  50.799  0.00  0.00    +0.000 NA
ATOM      8  C   UNL     1      15.074  39.804  50.923  0.00  0.00    +0.000 A 
ATOM      9  N   UNL     1      14.816  40.108  52.233  0.00  0.00    +0.000 N 
ENDROOT
BRANCH   3  10
ATOM     10  C   UNL     1      17.197  38.780  56.231  0.00  0.00    +0.000 A 
ATOM     11  C   UNL     1      17.552  37.590  56.897  0.00  0.00    +0.000 A 
ATOM     12  C   UNL     1      17.773  37.560  58.278  0.00  0.00    +0.000 A 
ATOM     13  C   UNL     1      17.643  38.723  59.030  0.00  0.00    +0.000 A 
ATOM     14  C   UNL     1      17.292  39.914  58.402  0.00  0.00    +0.000 A 
ATOM     15  C   UNL     1      17.073  39.940  57.020  0.00  0.00    +0.000 A 
ENDBRANCH   3  10
BRANCH   1  17
ATOM     16  C   UNL     1      19.345  36.805  51.170  0.00  0.00    +0.000 C 
ATOM     17  C   UNL     1      18.568  37.419  51.848  0.00  0.00    +0.000 C 
BRANCH  16  18
ATOM     18  C   UNL     1      20.268  36.067  50.364  0.00  0.00    +0.000 A 
ATOM     19  C   UNL     1      21.572  35.846  50.816  0.00  0.00    +0.000 A 
ATOM     20  C   UNL     1      22.470  35.126  50.026  0.00  0.00    +0.000 A 
ATOM     21  C   UNL     1      22.068  34.626  48.788  0.00  0.00    +0.000 A 
ATOM     22  C   UNL     1      20.766  34.844  48.337  0.00  0.00    +0.000 A 
ATOM     23  C   UNL     1      19.866  35.565  49.125  0.00  0.00    +0.000 A 
ENDBRANCH  16  18
ENDBRANCH   1  17
BRANCH   9  24
ATOM     24  C   UNL     1      13.703  40.896  52.722  0.00  0.00    +0.000 C 
BRANCH  24  25
ATOM     25  C   UNL     1      14.115  42.320  52.995  0.00  0.00    +0.000 A 
ATOM     26  C   UNL     1      13.173  43.258  53.445  0.00  0.00    +0.000 A 
ATOM     27  C   UNL     1      13.554  44.574  53.711  0.00  0.00    +0.000 A 
ATOM     28  C   UNL     1      14.879  44.966  53.531  0.00  0.00    +0.000 A 
ATOM     29  C   UNL     1      15.825  44.043  53.088  0.00  0.00    +0.000 A 
ATOM     30  C   UNL     1      15.446  42.726  52.822  0.00  0.00    +0.000 A 
ENDBRANCH  24  25
ENDBRANCH   9  24
TORSDOF 5
ENDMDL
MODEL 2
REMARK VINA RESULT:    -7.181      1.401      2.230
REMARK INTER + INTRA:          -9.753
REMARK INTER:                  -9.150
REMARK INTRA:                  -0.603
REMARK UNBOUND:                -0.473
REMARK  Name = 
REMARK  5 active torsions:
REMARK  status: ('A' for Active; 'I' for Inactive)
REMARK    1  A    between atoms: C_1  and  C_25
REMARK    2  A    between atoms: C_2  and  C_3
REMARK    3  A    between atoms: C_5  and  C_6
REMARK    4  A    between atoms: N_17  and  C_18
REMARK    5  A    between atoms: C_18  and  C_19
REMARK                            x       y       z     vdW  Elec       q    Type
REMARK                         _______ _______ _______ _____ _____    ______ ____
ROOT
ATOM      1  C   UNL     1      17.562  39.404  53.448  0.00  0.00    +0.000 A 
ATOM      2  N   UNL     1      17.521  39.096  54.763  0.00  0.00    +0.000 NA
ATOM      3  C   UNL     1      16.889  39.953  55.601  0.00  0.00    +0.000 A 
ATOM      4  N   UNL     1      16.280  41.110  55.247  0.00  0.00    +0.000 NA
ATOM      5  C   UNL     1      16.364  41.352  53.929  0.00  0.00    +0.000 A 
ATOM      6  C   UNL     1      16.975  40.565  52.966  0.00  0.00    +0.000 A 
ATOM      7  N   UNL     1      16.847  41.137  51.718  0.00  0.00    +0.000 NA
ATOM      8  C   UNL     1      16.181  42.255  51.921  0.00  0.00    +0.000 A 
ATOM      9  N   UNL     1      15.868  42.427  53.244  0.00  0.00    +0.000 N 
ENDROOT
BRANCH   3  10
ATOM     10  C   UNL     1      16.863  39.592  57.038  0.00  0.00    +0.000 A 
ATOM     11  C   UNL     1      17.304  38.333  57.491  0.00  0.00    +0.000 A 
ATOM     12  C   UNL     1      17.278  37.991  58.847  0.00  0.00    +0.000 A 
ATOM     13  C   UNL     1      16.808  38.903  59.787  0.00  0.00    +0.000 A 
ATOM     14  C   UNL     1      16.365  40.155  59.371  0.00  0.00    +0.000 A 
ATOM     15  C   UNL     1      16.393  40.493  58.014  0.00  0.00    +0.000 A 
ENDBRANCH   3  10
BRANCH   1  17
ATOM     16  C   UNL     1      18.791  37.732  51.845  0.00  0.00    +0.000 C 
ATOM     17  C   UNL     1      18.227  38.495  52.580  0.00  0.00    +0.000 C 
BRANCH  16  18
ATOM     18  C   UNL     1      19.465  36.827  50.965  0.00  0.00    +0.000 A 
ATOM     19  C   UNL     1      18.806  36.322  49.841  0.00  0.00    +0.000 A 
ATOM     20  C   UNL     1      19.467  35.439  48.984  0.00  0.00    +0.000 A 
ATOM     21  C   UNL     1      20.783  35.062  49.249  0.00  0.00    +0.000 A 
ATOM     22  C   UNL     1      21.442  35.567  50.370  0.00  0.00    +0.000 A 
ATOM     23  C   UNL     1      20.783  36.450  51.229  0.00  0.00    +0.000 A 
ENDBRANCH  16  18
ENDBRANCH   1  17
BRANCH   9  24
ATOM     24  C   UNL     1      15.107  43.524  53.805  0.00  0.00    +0.000 C 
BRANCH  24  25
ATOM     25  C   UNL     1      13.632  43.357  53.551  0.00  0.00    +0.000 A 
ATOM     26  C   UNL     1      12.741  44.409  53.817  0.00  0.00    +0.000 A 
ATOM     27  C   UNL     1      11.376  44.262  53.570  0.00  0.00    +0.000 A 
ATOM     28  C   UNL     1      10.886  43.064  53.056  0.00  0.00    +0.000 A 
ATOM     29  C   UNL     1      11.759  42.012  52.785  0.00  0.00    +0.000 A 
ATOM     30  C   UNL     1      13.126  42.157  53.029  0.00  0.00    +0.000 A 
ENDBRANCH  24  25
ENDBRANCH   9  24
TORSDOF 5
ENDMDL
MODEL 3
REMARK VINA RESULT:    -7.072      5.897     11.031
REMARK INTER + INTRA:          -9.613
REMARK INTER:                  -9.140
REMARK INTRA:                  -0.473
REMARK UNBOUND:                -0.473
REMARK  Name = 
REMARK  5 active torsions:
REMARK  status: ('A' for Active; 'I' for Inactive)
REMARK    1  A    between atoms: C_1  and  C_25
REMARK    2  A    between atoms: C_2  and  C_3
REMARK    3  A    between atoms: C_5  and  C_6
REMARK    4  A    between atoms: N_17  and  C_18
REMARK    5  A    between atoms: C_18  and  C_19
REMARK                            x       y       z     vdW  Elec       q    Type
REMARK                         _______ _______ _______ _____ _____    ______ ____
ROOT
ATOM      1  C   UNL     1      15.150  41.550  46.005  0.00  0.00    +0.000 A 
ATOM      2  N   UNL     1      15.755  41.072  44.894  0.00  0.00    +0.000 NA
ATOM      3  C   UNL     1      16.237  39.806  44.924  0.00  0.00    +0.000 A 
ATOM      4  N   UNL     1      16.172  38.952  45.973  0.00  0.00    +0.000 NA
ATOM      5  C   UNL     1      15.563  39.495  47.040  0.00  0.00    +0.000 A 
ATOM      6  C   UNL     1      15.026  40.769  47.144  0.00  0.00    +0.000 A 
ATOM      7  N   UNL     1      14.476  40.963  48.394  0.00  0.00    +0.000 NA
ATOM      8  C   UNL     1      14.684  39.833  49.038  0.00  0.00    +0.000 A 
ATOM      9  N   UNL     1      15.339  38.917  48.258  0.00  0.00    +0.000 N 
ENDROOT
BRANCH   3  10
ATOM     10  C   UNL     1      16.897  39.309  43.694  0.00  0.00    +0.000 A 
ATOM     11  C   UNL     1      17.441  38.011  43.620  0.00  0.00    +0.000 A 
ATOM     12  C   UNL     1      18.066  37.542  42.460  0.00  0.00    +0.000 A 
ATOM     13  C   UNL     1      18.164  38.363  41.341  0.00  0.00    +0.000 A 
ATOM     14  C   UNL     1      17.638  39.650  41.382  0.00  0.00    +0.000 A 
ATOM     15  C   UNL     1      17.013  40.115  42.544  0.00  0.00    +0.000 A 
ENDBRANCH   3  10
BRANCH   1  17
ATOM     16  C   UNL     1      14.222  44.001  45.926  0.00  0.00    +0.000 C 
ATOM     17  C   UNL     1      14.648  42.879  45.960  0.00  0.00    +0.000 C 
BRANCH  16  18
ATOM     18  C   UNL     1      13.711  45.337  45.893  0.00  0.00    +0.000 A 
ATOM     19  C   UNL     1      14.398  46.332  45.192  0.00  0.00    +0.000 A 
ATOM     20  C   UNL     1      13.898  47.635  45.162  0.00  0.00    +0.000 A 
ATOM     21  C   UNL     1      12.713  47.944  45.830  0.00  0.00    +0.000 A 
ATOM     22  C   UNL     1      12.025  46.951  46.528  0.00  0.00    +0.000 A 
ATOM     23  C   UNL     1      12.525  45.647  46.560  0.00  0.00    +0.000 A 
ENDBRANCH  16  18
ENDBRANCH   1  17
BRANCH   9  24
ATOM     24  C   UNL     1      15.686  37.564  48.642  0.00  0.00    +0.000 C 
BRANCH  24  25
ATOM     25  C   UNL     1      16.848  37.545  49.602  0.00  0.00    +0.000 A 
ATOM     26  C   UNL     1      16.888  38.435  50.686  0.00  0.00    +0.000 A 
ATOM     27  C   UNL     1      17.955  38.411  51.584  0.00  0.00    +0.000 A 
ATOM     28  C   UNL     1      18.993  37.498  51.409  0.00  0.00    +0.000 A 
ATOM     29  C   UNL     1      18.965  36.607  50.337  0.00  0.00    +0.000 A 
ATOM     30  C   UNL     1      17.897  36.629  49.438  0.00  0.00    +0.000 A 
ENDBRANCH  24  25
ENDBRANCH   9  24
TORSDOF 5
ENDMDL
