MODEL 1
REMARK VINA RESULT:    -7.545      0.000      0.000
REMARK INTER + INTRA:          -9.688
REMARK INTER:                  -8.929
REMARK INTRA:                  -0.760
REMARK UNBOUND:                -0.821
REMARK  Name = 
REMARK  3 active torsions:
REMARK  status: ('A' for Active; 'I' for Inactive)
REMARK    1  A    between atoms: C_2  and  C_3
REMARK    2  A    between atoms: C_6  and  C_7
REMARK    3  A    between atoms: C_10  and  C_11
REMARK                            x       y       z     vdW  Elec       q    Type
REMARK                         _______ _______ _______ _____ _____    ______ ____
ROOT
ATOM      1  C   UNL     1      12.325  41.421  47.150  0.00  0.00    +0.000 A 
ATOM      2  C   UNL     1      11.164  41.858  47.763  0.00  0.00    +0.000 A 
ATOM      3  C   UNL     1      11.105  43.260  47.575  0.00  0.00    +0.000 A 
ATOM      4  C   UNL     1      12.242  43.618  46.878  0.00  0.00    +0.000 A 
ATOM      5  O   UNL     1      12.987  42.500  46.631  0.00  0.00    +0.000 OA
ENDROOT
BRANCH   1   7
ATOM      6  O   UNL     1      12.504  39.265  46.261  0.00  0.00    +0.000 OA
ATOM      7  C   UNL     1      12.953  40.118  47.030  0.00  0.00    +0.000 C 
ATOM      8  N   UNL     1      14.102  39.845  47.791  0.00  0.00    +0.000 N 
ATOM      9  C   UNL     1      14.712  40.783  48.761  0.00  0.00    +0.000 C 
ATOM     10  C   UNL     1      15.316  40.095  50.001  0.00  0.00    +0.000 C 
ATOM     11  C   UNL     1      16.128  38.929  49.581  0.00  0.00    +0.000 A 
ATOM     12  C   UNL     1      15.893  38.308  48.374  0.00  0.00    +0.000 A 
ATOM     13  N   UNL     1      16.771  37.265  48.257  0.00  0.00    +0.000 N 
ATOM     14  C   UNL     1      17.580  37.207  49.374  0.00  0.00    +0.000 A 
ATOM     15  C   UNL     1      18.613  36.317  49.692  0.00  0.00    +0.000 A 
ATOM     16  C   UNL     1      19.267  36.494  50.914  0.00  0.00    +0.000 A 
ATOM     17  C   UNL     1      18.901  37.519  51.784  0.00  0.00    +0.000 A 
ATOM     18  C   UNL     1      17.865  38.401  51.453  0.00  0.00    +0.000 A 
ATOM     19  C   UNL     1      17.191  38.245  50.226  0.00  0.00    +0.000 A 
ATOM     20  C   UNL     1      14.881  38.678  47.354  0.00  0.00    +0.000 C 
ATOM     21  H   UNL     1      16.826  36.624  47.478  0.00  0.00    +0.000 HD
ENDBRANCH   1   7
BRANCH   4  22
ATOM     22  C   UNL     1      12.786  44.881  46.381  0.00  0.00    +0.000 A 
ATOM     23  C   UNL     1      13.949  44.902  45.600  0.00  0.00    +0.000 A 
ATOM     24  C   UNL     1      14.473  46.108  45.120  0.00  0.00    +0.000 A 
ATOM     25  C   UNL     1      13.853  47.335  45.406  0.00  0.00    +0.000 A 
ATOM     26  C   UNL     1      12.689  47.310  46.187  0.00  0.00    +0.000 A 
ATOM     27  C   UNL     1      12.164  46.103  46.666  0.00  0.00    +0.000 A 
BRANCH  25  28
ATOM     28  C   UNL     1      14.406  48.602  44.902  0.00  0.00    +0.000 A 
ATOM     29  C   UNL     1      15.742  48.959  45.147  0.00  0.00    +0.000 A 
ATOM     30  C   UNL     1      16.267  50.163  44.668  0.00  0.00    +0.000 A 
ATOM     31  C   UNL     1      15.462  51.031  43.935  0.00  0.00    +0.000 A 
ATOM     32  C   UNL     1      14.135  50.697  43.680  0.00  0.00    +0.000 A 
ATOM     33  C   UNL     1      13.612  49.493  44.159  0.00  0.00    +0.000 A 
ENDBRANCH  25  28
ENDBRANCH   4  22
TORSDOF 3
ENDMDL
MODEL 2
REMARK VINA RESULT:    -7.292      3.531      4.691
REMARK INTER + INTRA:          -9.391
REMARK INTER:                  -8.587
REMARK INTRA:                  -0.804
REMARK UNBOUND:                -0.821
REMARK  Name = 
REMARK  3 active torsions:
REMARK  status: ('A' for Active; 'I' for Inactive)
REMARK    1  A    between atoms: C_2  and  C_3
REMARK    2  A    between atoms: C_6  and  C_7
REMARK    3  A    between atoms: C_10  and  C_11
REMARK                            x       y       z     vdW  Elec       q    Type
REMARK                         _______ _______ _______ _____ _____    ______ ____
ROOT
ATOM      1  C   UNL     1      13.505  42.477  46.619  0.00  0.00    +0.000 A 
ATOM      2  C   UNL     1      12.136  42.529  46.808  0.00  0.00    +0.000 A 
ATOM      3  C   UNL     1      11.745  43.874  46.597  0.00  0.00    +0.000 A 
ATOM      4  C   UNL     1      12.895  44.584  46.312  0.00  0.00    +0.000 A 
ATOM      5  O   UNL     1      13.964  43.735  46.337  0.00  0.00    +0.000 OA
ENDROOT
BRANCH   1   7
ATOM      6  O   UNL     1      14.840  40.985  47.829  0.00  0.00    +0.000 OA
ATOM      7  C   UNL     1      14.481  41.408  46.727  0.00  0.00    +0.000 C 
ATOM      8  N   UNL     1      15.001  40.840  45.552  0.00  0.00    +0.000 N 
ATOM      9  C   UNL     1      14.660  41.285  44.181  0.00  0.00    +0.000 C 
ATOM     10  C   UNL     1      15.835  41.202  43.187  0.00  0.00    +0.000 C 
ATOM     11  C   UNL     1      16.520  39.896  43.328  0.00  0.00    +0.000 A 
ATOM     12  C   UNL     1      16.431  39.179  44.501  0.00  0.00    +0.000 A 
ATOM     13  N   UNL     1      17.166  38.035  44.353  0.00  0.00    +0.000 N 
ATOM     14  C   UNL     1      17.724  37.996  43.092  0.00  0.00    +0.000 A 
ATOM     15  C   UNL     1      18.542  37.027  42.499  0.00  0.00    +0.000 A 
ATOM     16  C   UNL     1      18.973  37.256  41.189  0.00  0.00    +0.000 A 
ATOM     17  C   UNL     1      18.601  38.409  40.501  0.00  0.00    +0.000 A 
ATOM     18  C   UNL     1      17.783  39.370  41.107  0.00  0.00    +0.000 A 
ATOM     19  C   UNL     1      17.334  39.162  42.426  0.00  0.00    +0.000 A 
ATOM     20  C   UNL     1      15.681  39.549  45.726  0.00  0.00    +0.000 C 
ATOM     21  H   UNL     1      17.291  37.319  45.055  0.00  0.00    +0.000 HD
ENDBRANCH   1   7
BRANCH   4  22
ATOM     22  C   UNL     1      13.187  45.984  46.010  0.00  0.00    +0.000 A 
ATOM     23  C   UNL     1      14.368  46.342  45.346  0.00  0.00    +0.000 A 
ATOM     24  C   UNL     1      14.653  47.681  45.053  0.00  0.00    +0.000 A 
ATOM     25  C   UNL     1      13.767  48.708  45.415  0.00  0.00    +0.000 A 
ATOM     26  C   UNL     1      12.586  48.347  46.078  0.00  0.00    +0.000 A 
ATOM     27  C   UNL     1      12.300  47.007  46.370  0.00  0.00    +0.000 A 
BRANCH  25  28
ATOM     28  C   UNL     1      14.068  50.115  45.107  0.00  0.00    +0.000 A 
ATOM     29  C   UNL     1      14.727  50.473  43.919  0.00  0.00    +0.000 A 
ATOM     30  C   UNL     1      15.013  51.809  43.626  0.00  0.00    +0.000 A 
ATOM     31  C   UNL     1      14.644  52.813  44.519  0.00  0.00    +0.000 A 
ATOM     32  C   UNL     1      13.989  52.481  45.701  0.00  0.00    +0.000 A 
ATOM     33  C   UNL     1      13.703  51.144  45.993  0.00  0.00    +0.000 A 
ENDBRANCH  25  28
ENDBRANCH   4  22
TORSDOF 3
ENDMDL
MODEL 3
REMARK VINA RESULT:    -7.184      2.041     10.867
REMARK INTER + INTRA:          -9.265
REMARK INTER:                  -8.445
REMARK INTRA:                  -0.821
REMARK UNBOUND:                -0.821
REMARK  Name = 
REMARK  3 active torsions:
REMARK  status: ('A' for Active; 'I' for Inactive)
REMARK    1  A    between atoms: C_2  and  C_3
REMARK    2  A    between atoms: C_6  and  C_7
REMARK    3  A    between atoms: C_10  and  C_11
REMARK                            x       y       z     vdW  Elec       q    Type
REMARK                         _______ _______ _______ _____ _____    ______ ____
ROOT
ATOM      1  C   UNL     1      14.478  40.116  45.749  0.00  0.00    +0.000 A 
ATOM      2  C   UNL     1      15.196  39.716  44.637  0.00  0.00    +0.000 A 
ATOM      3  C   UNL     1      16.252  38.897  45.104  0.00  0.00    +0.000 A 
ATOM      4  C   UNL     1      16.144  38.852  46.480  0.00  0.00    +0.000 A 
ATOM      5  O   UNL     1      15.072  39.604  46.870  0.00  0.00    +0.000 OA
ENDROOT
BRANCH   1   7
ATOM      6  O   UNL     1      12.187  40.512  46.007  0.00  0.00    +0.000 OA
ATOM      7  C   UNL     1      13.325  40.980  45.928  0.00  0.00    +0.000 C 
ATOM      8  N   UNL     1      13.525  42.367  46.032  0.00  0.00    +0.000 N 
ATOM      9  C   UNL     1      14.841  43.038  45.927  0.00  0.00    +0.000 C 
ATOM     10  C   UNL     1      14.787  44.415  45.235  0.00  0.00    +0.000 C 
ATOM     11  C   UNL     1      13.661  45.207  45.783  0.00  0.00    +0.000 A 
ATOM     12  C   UNL     1      12.586  44.583  46.376  0.00  0.00    +0.000 A 
ATOM     13  N   UNL     1      11.702  45.549  46.771  0.00  0.00    +0.000 N 
ATOM     14  C   UNL     1      12.196  46.797  46.449  0.00  0.00    +0.000 A 
ATOM     15  C   UNL     1      11.645  48.066  46.660  0.00  0.00    +0.000 A 
ATOM     16  C   UNL     1      12.376  49.172  46.218  0.00  0.00    +0.000 A 
ATOM     17  C   UNL     1      13.608  49.014  45.587  0.00  0.00    +0.000 A 
ATOM     18  C   UNL     1      14.147  47.738  45.382  0.00  0.00    +0.000 A 
ATOM     19  C   UNL     1      13.431  46.607  45.821  0.00  0.00    +0.000 A 
ATOM     20  C   UNL     1      12.387  43.126  46.572  0.00  0.00    +0.000 C 
ATOM     21  H   UNL     1      10.815  45.387  47.228  0.00  0.00    +0.000 HD
ENDBRANCH   1   7
BRANCH   4  22
ATOM     22  C   UNL     1      16.903  38.205  47.548  0.00  0.00    +0.000 A 
ATOM     23  C   UNL     1      16.770  38.625  48.878  0.00  0.00    +0.000 A 
ATOM     24  C   UNL     1      17.494  38.008  49.906  0.00  0.00    +0.000 A 
ATOM     25  C   UNL     1      18.378  36.951  49.638  0.00  0.00    +0.000 A 
ATOM     26  C   UNL     1      18.509  36.533  48.306  0.00  0.00    +0.000 A 
ATOM     27  C   UNL     1      17.783  37.149  47.278  0.00  0.00    +0.000 A 
BRANCH  25  28
ATOM     28  C   UNL     1      19.140  36.304  50.718  0.00  0.00    +0.000 A 
ATOM     29  C   UNL     1      18.508  35.891  51.903  0.00  0.00    +0.000 A 
ATOM     30  C   UNL     1      19.232  35.277  52.929  0.00  0.00    +0.000 A 
ATOM     31  C   UNL     1      20.601  35.065  52.787  0.00  0.00    +0.000 A 
ATOM     32  C   UNL     1      21.246  35.465  51.621  0.00  0.00    +0.000 A 
ATOM     33  C   UNL     1      20.522  36.079  50.595  0.00  0.00    +0.000 A 
ENDBRANCH  25  28
ENDBRANCH   4  22
TORSDOF 3
ENDMDL
