MODEL 1
REMARK VINA RESULT:    -6.817      0.000      0.000
REMARK INTER + INTRA:         -10.743
REMARK INTER:                  -9.465
REMARK INTRA:                  -1.279
REMARK UNBOUND:                -0.937
REMARK  Name = 
REMARK  10 active torsions:
REMARK  status: ('A' for Active; 'I' for Inactive)
REMARK    1  A    between atoms: C_1  and  C_2
REMARK    2  A    between atoms: C_2  and  C_3
REMARK    3  A    between atoms: C_2  and  N_4
REMARK    4  A    between atoms: C_2  and  C_5
REMARK    5  A    between atoms: N_7  and  C_8
REMARK    6  A    between atoms: C_8  and  C_9
REMARK    7  A    between atoms: C_8  and  C_18
REMARK    8  A    between atoms: C_9  and  S_10
REMARK    9  A    between atoms: S_10  and  C_11
REMARK   10  A    between atoms: C_11  and  C_12
REMARK                            x       y       z     vdW  Elec       q    Type
REMARK                         _______ _______ _______ _____ _____    ______ ____
ROOT
ATOM      1  C   UNL     1      17.249  37.937  53.134  0.00  0.00    +0.000 C 
ENDROOT
BRANCH   1   2
ATOM      2  C   UNL     1      17.788  36.496  53.227  0.00  0.00    +0.000 C 
ATOM      3  O   UNL     1      17.361  35.739  54.110  0.00  0.00    +0.000 OA
ATOM      4  N   UNL     1      18.714  36.051  52.290  0.00  0.00    +0.000 N 
ATOM      5  C   UNL     1      19.156  34.657  52.385  0.00  0.00    +0.000 C 
ATOM      6  C   UNL     1      19.768  34.162  51.080  0.00  0.00    +0.000 C 
ATOM      7  C   UNL     1      20.996  35.007  50.679  0.00  0.00    +0.000 C 
ATOM      8  C   UNL     1      22.313  34.378  51.230  0.00  0.00    +0.000 C 
ATOM      9  C   UNL     1      23.435  34.783  50.267  0.00  0.00    +0.000 C 
ATOM     10  C   UNL     1      22.684  34.833  48.975  0.00  0.00    +0.000 A 
ATOM     11  C   UNL     1      23.215  34.815  47.695  0.00  0.00    +0.000 A 
ATOM     12  C   UNL     1      22.339  34.909  46.614  0.00  0.00    +0.000 A 
ATOM     13  C   UNL     1      20.959  35.033  46.823  0.00  0.00    +0.000 A 
ATOM     14  C   UNL     1      20.433  35.066  48.117  0.00  0.00    +0.000 A 
ATOM     15  C   UNL     1      21.303  34.958  49.193  0.00  0.00    +0.000 A 
ATOM     16  C   UNL     1      20.866  36.479  51.150  0.00  0.00    +0.000 C 
ATOM     17  C   UNL     1      19.407  36.896  51.310  0.00  0.00    +0.000 C 
ENDBRANCH   1   2
BRANCH   1  20
ATOM     18  C   UNL     1      17.080  39.550  55.016  0.00  0.00    +0.000 C 
ATOM     19  O   UNL     1      17.807  40.360  54.439  0.00  0.00    +0.000 OA
ATOM     20  N   UNL     1      16.780  38.331  54.463  0.00  0.00    +0.000 N 
ATOM     21  H   UNL     1      16.097  37.715  54.893  0.00  0.00    +0.000 HD
BRANCH  18  23
ATOM     22  C   UNL     1      15.768  38.630  57.012  0.00  0.00    +0.000 C 
ATOM     23  C   UNL     1      16.387  39.877  56.373  0.00  0.00    +0.000 C 
ATOM     24  C   UNL     1      15.320  40.953  56.135  0.00  0.00    +0.000 C 
BRANCH  23  25
ATOM     25  N   UNL     1      17.416  40.383  57.316  0.00  0.00    +0.000 NA
ATOM     26  H   UNL     1      17.150  40.164  58.274  0.00  0.00    +0.000 HD
ATOM     27  H   UNL     1      17.403  41.409  57.262  0.00  0.00    +0.000 HD
ENDBRANCH  23  25
ENDBRANCH  18  23
ENDBRANCH   1  20
BRANCH   1  28
ATOM     28  C   UNL     1      16.155  38.097  52.062  0.00  0.00    +0.000 C 
BRANCH  28  29
ATOM     29  S   UNL     1      16.057  39.751  51.270  0.00  0.00    +0.000 S 
BRANCH  29  30
ATOM     30  C   UNL     1      14.530  40.376  52.034  0.00  0.00    +0.000 C 
BRANCH  30  31
ATOM     31  C   UNL     1      14.712  41.773  52.568  0.00  0.00    +0.000 A 
ATOM     32  C   UNL     1      13.648  42.448  53.186  0.00  0.00    +0.000 A 
ATOM     33  C   UNL     1      13.823  43.741  53.680  0.00  0.00    +0.000 A 
ATOM     34  C   UNL     1      15.058  44.374  53.558  0.00  0.00    +0.000 A 
ATOM     35  C   UNL     1      16.119  43.720  52.934  0.00  0.00    +0.000 A 
ATOM     36  C   UNL     1      15.947  42.426  52.440  0.00  0.00    +0.000 A 
ENDBRANCH  30  31
ENDBRANCH  29  30
ENDBRANCH  28  29
ENDBRANCH   1  28
TORSDOF 8
ENDMDL
MODEL 2
REMARK VINA RESULT:    -6.429      6.772      8.427
REMARK INTER + INTRA:         -10.184
REMARK INTER:                  -8.407
REMARK INTRA:                  -1.777
REMARK UNBOUND:                -0.937
REMARK  Name = 
REMARK  10 active torsions:
REMARK  status: ('A' for Active; 'I' for Inactive)
REMARK    1  A    between atoms: C_1  and  C_2
REMARK    2  A    between atoms: C_2  and  C_3
REMARK    3  A    between atoms: C_2  and  N_4
REMARK    4  A    between atoms: C_2  and  C_5
REMARK    5  A    between atoms: N_7  and  C_8
REMARK    6  A    between atoms: C_8  and  C_9
REMARK    7  A    between atoms: C_8  and  C_18
REMARK    8  A    between atoms: C_9  and  S_10
REMARK    9  A    between atoms: S_10  and  C_11
REMARK   10  A    between atoms: C_11  and  C_12
REMARK                            x       y       z     vdW  Elec       q    Type
REMARK                         _______ _______ _______ _____ _____    ______ ____
ROOT
ATOM      1  C   UNL     1      14.571  39.591  45.575  0.00  0.00    +0.000 C 
ENDROOT
BRANCH   1   2
ATOM      2  C   UNL     1      14.167  38.780  46.822  0.00  0.00    +0.000 C 
ATOM      3  O   UNL     1      12.972  38.537  47.034  0.00  0.00    +0.000 OA
ATOM      4  N   UNL     1      15.157  38.293  47.670  0.00  0.00    +0.000 N 
ATOM      5  C   UNL     1      14.729  37.481  48.812  0.00  0.00    +0.000 C 
ATOM      6  C   UNL     1      15.868  36.634  49.368  0.00  0.00    +0.000 C 
ATOM      7  C   UNL     1      17.042  37.515  49.845  0.00  0.00    +0.000 C 
ATOM      8  C   UNL     1      16.906  37.858  51.361  0.00  0.00    +0.000 C 
ATOM      9  C   UNL     1      18.327  38.063  51.899  0.00  0.00    +0.000 C 
ATOM     10  C   UNL     1      19.087  37.103  51.041  0.00  0.00    +0.000 A 
ATOM     11  C   UNL     1      20.355  36.592  51.274  0.00  0.00    +0.000 A 
ATOM     12  C   UNL     1      20.906  35.732  50.325  0.00  0.00    +0.000 A 
ATOM     13  C   UNL     1      20.198  35.407  49.160  0.00  0.00    +0.000 A 
ATOM     14  C   UNL     1      18.927  35.937  48.925  0.00  0.00    +0.000 A 
ATOM     15  C   UNL     1      18.372  36.783  49.877  0.00  0.00    +0.000 A 
ATOM     16  C   UNL     1      17.168  38.815  49.010  0.00  0.00    +0.000 C 
ATOM     17  C   UNL     1      16.579  38.650  47.612  0.00  0.00    +0.000 C 
ENDBRANCH   1   2
BRANCH   1  20
ATOM     18  C   UNL     1      14.124  41.997  46.005  0.00  0.00    +0.000 C 
ATOM     19  O   UNL     1      15.210  42.137  46.571  0.00  0.00    +0.000 OA
ATOM     20  N   UNL     1      13.721  40.781  45.515  0.00  0.00    +0.000 N 
ATOM     21  H   UNL     1      12.876  40.695  44.958  0.00  0.00    +0.000 HD
BRANCH  18  23
ATOM     22  C   UNL     1      12.416  43.040  44.409  0.00  0.00    +0.000 C 
ATOM     23  C   UNL     1      13.167  43.197  45.736  0.00  0.00    +0.000 C 
ATOM     24  C   UNL     1      13.987  44.493  45.746  0.00  0.00    +0.000 C 
BRANCH  23  25
ATOM     25  N   UNL     1      12.145  43.234  46.812  0.00  0.00    +0.000 NA
ATOM     26  H   UNL     1      12.537  43.657  47.651  0.00  0.00    +0.000 HD
ATOM     27  H   UNL     1      11.941  42.261  47.072  0.00  0.00    +0.000 HD
ENDBRANCH  23  25
ENDBRANCH  18  23
ENDBRANCH   1  20
BRANCH   1  28
ATOM     28  C   UNL     1      14.503  38.764  44.278  0.00  0.00    +0.000 C 
BRANCH  28  29
ATOM     29  S   UNL     1      16.086  38.597  43.361  0.00  0.00    +0.000 S 
BRANCH  29  30
ATOM     30  C   UNL     1      15.684  39.547  41.863  0.00  0.00    +0.000 C 
BRANCH  30  31
ATOM     31  C   UNL     1      15.723  41.030  42.124  0.00  0.00    +0.000 A 
ATOM     32  C   UNL     1      16.556  41.560  43.120  0.00  0.00    +0.000 A 
ATOM     33  C   UNL     1      16.590  42.935  43.357  0.00  0.00    +0.000 A 
ATOM     34  C   UNL     1      15.787  43.792  42.606  0.00  0.00    +0.000 A 
ATOM     35  C   UNL     1      14.945  43.276  41.622  0.00  0.00    +0.000 A 
ATOM     36  C   UNL     1      14.911  41.902  41.383  0.00  0.00    +0.000 A 
ENDBRANCH  30  31
ENDBRANCH  29  30
ENDBRANCH  28  29
ENDBRANCH   1  28
TORSDOF 8
ENDMDL
MODEL 3
REMARK VINA RESULT:    -6.373      3.845      4.921
REMARK INTER + INTRA:         -10.103
REMARK INTER:                  -9.167
REMARK INTRA:                  -0.937
REMARK UNBOUND:                -0.937
REMARK  Name = 
REMARK  10 active torsions:
REMARK  status: ('A' for Active; 'I' for Inactive)
REMARK    1  A    between atoms: C_1  and  C_2
REMARK    2  A    between atoms: C_2  and  C_3
REMARK    3  A    between atoms: C_2  and  N_4
REMARK    4  A    between atoms: C_2  and  C_5
REMARK    5  A    between atoms: N_7  and  C_8
REMARK    6  A    between atoms: C_8  and  C_9
REMARK    7  A    between atoms: C_8  and  C_18
REMARK    8  A    between atoms: C_9  and  S_10
REMARK    9  A    between atoms: S_10  and  C_11
REMARK   10  A    between atoms: C_11  and  C_12
REMARK                            x       y       z     vdW  Elec       q    Type
REMARK                         _______ _______ _______ _____ _____    ______ ____
ROOT
ATOM      1  C   UNL     1      14.803  40.126  50.865  0.00  0.00    +0.000 C 
ENDROOT
BRANCH   1   2
ATOM      2  C   UNL     1      14.957  38.734  51.507  0.00  0.00    +0.000 C 
ATOM      3  O   UNL     1      14.063  38.297  52.244  0.00  0.00    +0.000 OA
ATOM      4  N   UNL     1      16.081  37.967  51.213  0.00  0.00    +0.000 N 
ATOM      5  C   UNL     1      16.157  36.627  51.802  0.00  0.00    +0.000 C 
ATOM      6  C   UNL     1      17.143  35.733  51.059  0.00  0.00    +0.000 C 
ATOM      7  C   UNL     1      18.568  36.327  51.082  0.00  0.00    +0.000 C 
ATOM      8  C   UNL     1      19.385  35.778  52.292  0.00  0.00    +0.000 C 
ATOM      9  C   UNL     1      20.860  35.799  51.878  0.00  0.00    +0.000 C 
ATOM     10  C   UNL     1      20.738  35.539  50.410  0.00  0.00    +0.000 A 
ATOM     11  C   UNL     1      21.736  35.114  49.548  0.00  0.00    +0.000 A 
ATOM     12  C   UNL     1      21.424  34.966  48.196  0.00  0.00    +0.000 A 
ATOM     13  C   UNL     1      20.136  35.256  47.725  0.00  0.00    +0.000 A 
ATOM     14  C   UNL     1      19.139  35.698  48.599  0.00  0.00    +0.000 A 
ATOM     15  C   UNL     1      19.446  35.832  49.947  0.00  0.00    +0.000 A 
ATOM     16  C   UNL     1      18.549  37.877  51.106  0.00  0.00    +0.000 C 
ATOM     17  C   UNL     1      17.269  38.439  50.493  0.00  0.00    +0.000 C 
ENDBRANCH   1   2
BRANCH   1  20
ATOM     18  C   UNL     1      15.392  41.860  52.546  0.00  0.00    +0.000 C 
ATOM     19  O   UNL     1      16.591  41.767  52.279  0.00  0.00    +0.000 OA
ATOM     20  N   UNL     1      14.454  41.075  51.924  0.00  0.00    +0.000 N 
ATOM     21  H   UNL     1      13.462  41.231  52.070  0.00  0.00    +0.000 HD
BRANCH  18  23
ATOM     22  C   UNL     1      13.327  43.091  53.423  0.00  0.00    +0.000 C 
ATOM     23  C   UNL     1      14.844  42.922  53.547  0.00  0.00    +0.000 C 
ATOM     24  C   UNL     1      15.563  44.253  53.295  0.00  0.00    +0.000 C 
BRANCH  23  25
ATOM     25  N   UNL     1      15.118  42.450  54.927  0.00  0.00    +0.000 NA
ATOM     26  H   UNL     1      14.398  42.791  55.562  0.00  0.00    +0.000 HD
ATOM     27  H   UNL     1      15.986  42.902  55.238  0.00  0.00    +0.000 HD
ENDBRANCH  23  25
ENDBRANCH  18  23
ENDBRANCH   1  20
BRANCH   1  28
ATOM     28  C   UNL     1      13.783  40.143  49.712  0.00  0.00    +0.000 C 
BRANCH  28  29
ATOM     29  S   UNL     1      14.472  39.820  48.040  0.00  0.00    +0.000 S 
BRANCH  29  30
ATOM     30  C   UNL     1      14.570  41.522  47.407  0.00  0.00    +0.000 C 
BRANCH  30  31
ATOM     31  C   UNL     1      15.173  41.563  46.026  0.00  0.00    +0.000 A 
ATOM     32  C   UNL     1      15.221  42.764  45.302  0.00  0.00    +0.000 A 
ATOM     33  C   UNL     1      15.782  42.796  44.024  0.00  0.00    +0.000 A 
ATOM     34  C   UNL     1      16.293  41.631  43.456  0.00  0.00    +0.000 A 
ATOM     35  C   UNL     1      16.240  40.430  44.161  0.00  0.00    +0.000 A 
ATOM     36  C   UNL     1      15.680  40.395  45.439  0.00  0.00    +0.000 A 
ENDBRANCH  30  31
ENDBRANCH  29  30
ENDBRANCH  28  29
ENDBRANCH   1  28
TORSDOF 8
ENDMDL
