MODEL 1
REMARK VINA RESULT:    -6.213      0.000      0.000
REMARK INTER + INTRA:          -8.761
REMARK INTER:                  -7.893
REMARK INTRA:                  -0.868
REMARK UNBOUND:                -0.914
REMARK  Name = 
REMARK  6 active torsions:
REMARK  status: ('A' for Active; 'I' for Inactive)
REMARK    1  A    between atoms: C_1  and  C_2
REMARK    2  A    between atoms: C_3  and  C_4
REMARK    3  A    between atoms: C_7  and  O_8
REMARK    4  A    between atoms: O_8  and  C_9
REMARK    5  A    between atoms: C_25  and  C_26
REMARK    6  A    between atoms: C_26  and  O_28
REMARK                            x       y       z     vdW  Elec       q    Type
REMARK                         _______ _______ _______ _____ _____    ______ ____
ROOT
ATOM      1  C   UNL     1      12.519  44.620  46.641  0.00  0.00    +0.000 C 
ATOM      2  C   UNL     1      13.566  44.113  45.687  0.00  0.00    +0.000 A 
ATOM      3  C   UNL     1      14.222  44.965  44.798  0.00  0.00    +0.000 A 
ATOM      4  N   UNL     1      15.126  44.518  43.891  0.00  0.00    +0.000 NA
ATOM      5  C   UNL     1      15.449  43.221  43.847  0.00  0.00    +0.000 A 
ATOM      6  C   UNL     1      16.383  42.814  42.902  0.00  0.00    +0.000 A 
ATOM      7  C   UNL     1      16.792  41.484  42.793  0.00  0.00    +0.000 A 
ATOM      8  C   UNL     1      16.251  40.545  43.652  0.00  0.00    +0.000 A 
ATOM      9  F   UNL     1      16.634  39.266  43.563  0.00  0.00    +0.000 F 
ATOM     10  C   UNL     1      15.313  40.918  44.607  0.00  0.00    +0.000 A 
ATOM     11  C   UNL     1      14.892  42.269  44.719  0.00  0.00    +0.000 A 
ATOM     12  C   UNL     1      13.947  42.758  45.655  0.00  0.00    +0.000 A 
ENDROOT
BRANCH   3  13
ATOM     13  C   UNL     1      14.010  46.421  44.742  0.00  0.00    +0.000 A 
ATOM     14  C   UNL     1      12.883  46.974  44.109  0.00  0.00    +0.000 A 
ATOM     15  C   UNL     1      12.690  48.357  44.063  0.00  0.00    +0.000 A 
ATOM     16  C   UNL     1      13.614  49.207  44.673  0.00  0.00    +0.000 A 
ATOM     17  C   UNL     1      14.742  48.680  45.297  0.00  0.00    +0.000 A 
ATOM     18  C   UNL     1      14.931  47.297  45.341  0.00  0.00    +0.000 A 
BRANCH  16  19
ATOM     19  O   UNL     1      13.500  50.577  44.636  0.00  0.00    +0.000 OA
BRANCH  19  20
ATOM     20  C   UNL     1      13.846  51.272  45.772  0.00  0.00    +0.000 A 
ATOM     21  C   UNL     1      12.928  51.265  46.822  0.00  0.00    +0.000 A 
ATOM     22  C   UNL     1      13.202  51.975  47.992  0.00  0.00    +0.000 A 
ATOM     23  C   UNL     1      14.385  52.706  48.102  0.00  0.00    +0.000 A 
ATOM     24  C   UNL     1      15.293  52.732  47.043  0.00  0.00    +0.000 A 
ATOM     25  C   UNL     1      15.021  52.022  45.872  0.00  0.00    +0.000 A 
ENDBRANCH  19  20
ENDBRANCH  16  19
ENDBRANCH   3  13
BRANCH  12  26
ATOM     26  C   UNL     1      13.343  41.808  46.611  0.00  0.00    +0.000 C 
ATOM     27  O   UNL     1      13.778  41.504  47.703  0.00  0.00    +0.000 OA
BRANCH  26  28
ATOM     28  O   UNL     1      12.179  41.333  46.137  0.00  0.00    +0.000 OA
ATOM     29  H   UNL     1      12.397  40.999  45.241  0.00  0.00    +0.000 HD
ENDBRANCH  26  28
ENDBRANCH  12  26
TORSDOF 5
ENDMDL
MODEL 2
REMARK VINA RESULT:    -6.202      9.704     14.025
REMARK INTER + INTRA:          -8.748
REMARK INTER:                  -7.871
REMARK INTRA:                  -0.877
REMARK UNBOUND:                -0.914
REMARK  Name = 
REMARK  6 active torsions:
REMARK  status: ('A' for Active; 'I' for Inactive)
REMARK    1  A    between atoms: C_1  and  C_2
REMARK    2  A    between atoms: C_3  and  C_4
REMARK    3  A    between atoms: C_7  and  O_8
REMARK    4  A    between atoms: O_8  and  C_9
REMARK    5  A    between atoms: C_25  and  C_26
REMARK    6  A    between atoms: C_26  and  O_28
REMARK                            x       y       z     vdW  Elec       q    Type
REMARK                         _______ _______ _______ _____ _____    ______ ____
ROOT
ATOM      1  C   UNL     1      18.024  39.186  53.734  0.00  0.00    +0.000 C 
ATOM      2  C   UNL     1      17.383  39.043  52.380  0.00  0.00    +0.000 A 
ATOM      3  C   UNL     1      17.702  37.988  51.525  0.00  0.00    +0.000 A 
ATOM      4  N   UNL     1      17.178  37.873  50.279  0.00  0.00    +0.000 NA
ATOM      5  C   UNL     1      16.291  38.772  49.838  0.00  0.00    +0.000 A 
ATOM      6  C   UNL     1      15.781  38.609  48.555  0.00  0.00    +0.000 A 
ATOM      7  C   UNL     1      14.841  39.489  48.017  0.00  0.00    +0.000 A 
ATOM      8  C   UNL     1      14.405  40.553  48.784  0.00  0.00    +0.000 A 
ATOM      9  F   UNL     1      13.502  41.405  48.284  0.00  0.00    +0.000 F 
ATOM     10  C   UNL     1      14.896  40.746  50.069  0.00  0.00    +0.000 A 
ATOM     11  C   UNL     1      15.854  39.856  50.620  0.00  0.00    +0.000 A 
ATOM     12  C   UNL     1      16.418  39.958  51.915  0.00  0.00    +0.000 A 
ENDROOT
BRANCH   3  13
ATOM     13  C   UNL     1      18.628  36.897  51.870  0.00  0.00    +0.000 A 
ATOM     14  C   UNL     1      18.201  35.778  52.607  0.00  0.00    +0.000 A 
ATOM     15  C   UNL     1      19.088  34.747  52.929  0.00  0.00    +0.000 A 
ATOM     16  C   UNL     1      20.412  34.811  52.494  0.00  0.00    +0.000 A 
ATOM     17  C   UNL     1      20.858  35.914  51.770  0.00  0.00    +0.000 A 
ATOM     18  C   UNL     1      19.969  36.943  51.451  0.00  0.00    +0.000 A 
BRANCH  16  19
ATOM     19  O   UNL     1      21.342  33.845  52.803  0.00  0.00    +0.000 OA
BRANCH  19  20
ATOM     20  C   UNL     1      22.031  33.986  53.986  0.00  0.00    +0.000 A 
ATOM     21  C   UNL     1      23.365  33.579  53.994  0.00  0.00    +0.000 A 
ATOM     22  C   UNL     1      24.113  33.665  55.169  0.00  0.00    +0.000 A 
ATOM     23  C   UNL     1      23.519  34.141  56.339  0.00  0.00    +0.000 A 
ATOM     24  C   UNL     1      22.179  34.526  56.337  0.00  0.00    +0.000 A 
ATOM     25  C   UNL     1      21.429  34.442  55.162  0.00  0.00    +0.000 A 
ENDBRANCH  19  20
ENDBRANCH  16  19
ENDBRANCH   3  13
BRANCH  12  26
ATOM     26  C   UNL     1      15.983  41.064  52.791  0.00  0.00    +0.000 C 
ATOM     27  O   UNL     1      15.064  41.042  53.585  0.00  0.00    +0.000 OA
BRANCH  26  28
ATOM     28  O   UNL     1      16.783  42.133  52.640  0.00  0.00    +0.000 OA
ATOM     29  H   UNL     1      17.096  42.075  51.713  0.00  0.00    +0.000 HD
ENDBRANCH  26  28
ENDBRANCH  12  26
TORSDOF 5
ENDMDL
MODEL 3
REMARK VINA RESULT:    -6.064     10.617     14.153
REMARK INTER + INTRA:          -8.574
REMARK INTER:                  -7.660
REMARK INTRA:                  -0.914
REMARK UNBOUND:                -0.914
REMARK  Name = 
REMARK  6 active torsions:
REMARK  status: ('A' for Active; 'I' for Inactive)
REMARK    1  A    between atoms: C_1  and  C_2
REMARK    2  A    between atoms: C_3  and  C_4
REMARK    3  A    between atoms: C_7  and  O_8
REMARK    4  A    between atoms: O_8  and  C_9
REMARK    5  A    between atoms: C_25  and  C_26
REMARK    6  A    between atoms: C_26  and  O_28
REMARK                            x       y       z     vdW  Elec       q    Type
REMARK                         _______ _______ _______ _____ _____    ______ ____
ROOT
ATOM      1  C   UNL     1      18.660  34.984  53.380  0.00  0.00    +0.000 C 
ATOM      2  C   UNL     1      18.357  36.408  53.003  0.00  0.00    +0.000 A 
ATOM      3  C   UNL     1      18.935  37.010  51.884  0.00  0.00    +0.000 A 
ATOM      4  N   UNL     1      18.720  38.309  51.561  0.00  0.00    +0.000 NA
ATOM      5  C   UNL     1      17.898  39.059  52.304  0.00  0.00    +0.000 A 
ATOM      6  C   UNL     1      17.708  40.384  51.928  0.00  0.00    +0.000 A 
ATOM      7  C   UNL     1      16.859  41.236  52.635  0.00  0.00    +0.000 A 
ATOM      8  C   UNL     1      16.187  40.748  53.739  0.00  0.00    +0.000 A 
ATOM      9  F   UNL     1      15.366  41.550  54.426  0.00  0.00    +0.000 F 
ATOM     10  C   UNL     1      16.355  39.429  54.142  0.00  0.00    +0.000 A 
ATOM     11  C   UNL     1      17.221  38.558  53.429  0.00  0.00    +0.000 A 
ATOM     12  C   UNL     1      17.464  37.201  53.750  0.00  0.00    +0.000 A 
ENDROOT
BRANCH   3  13
ATOM     13  C   UNL     1      19.830  36.315  50.944  0.00  0.00    +0.000 A 
ATOM     14  C   UNL     1      19.363  35.832  49.709  0.00  0.00    +0.000 A 
ATOM     15  C   UNL     1      20.221  35.175  48.822  0.00  0.00    +0.000 A 
ATOM     16  C   UNL     1      21.569  35.016  49.151  0.00  0.00    +0.000 A 
ATOM     17  C   UNL     1      22.049  35.480  50.373  0.00  0.00    +0.000 A 
ATOM     18  C   UNL     1      21.189  36.135  51.257  0.00  0.00    +0.000 A 
BRANCH  16  19
ATOM     19  O   UNL     1      22.457  34.352  48.338  0.00  0.00    +0.000 OA
BRANCH  19  20
ATOM     20  C   UNL     1      23.367  35.114  47.640  0.00  0.00    +0.000 A 
ATOM     21  C   UNL     1      23.005  35.508  46.351  0.00  0.00    +0.000 A 
ATOM     22  C   UNL     1      23.893  36.255  45.576  0.00  0.00    +0.000 A 
ATOM     23  C   UNL     1      25.148  36.591  46.085  0.00  0.00    +0.000 A 
ATOM     24  C   UNL     1      25.518  36.177  47.364  0.00  0.00    +0.000 A 
ATOM     25  C   UNL     1      24.632  35.430  48.142  0.00  0.00    +0.000 A 
ENDBRANCH  19  20
ENDBRANCH  16  19
ENDBRANCH   3  13
BRANCH  12  26
ATOM     26  C   UNL     1      16.765  36.612  54.910  0.00  0.00    +0.000 C 
ATOM     27  O   UNL     1      17.146  36.611  56.063  0.00  0.00    +0.000 OA
BRANCH  26  28
ATOM     28  O   UNL     1      15.581  36.096  54.539  0.00  0.00    +0.000 OA
ATOM     29  H   UNL     1      15.405  35.390  55.196  0.00  0.00    +0.000 HD
ENDBRANCH  26  28
ENDBRANCH  12  26
TORSDOF 5
ENDMDL
