MODEL 1
REMARK VINA RESULT:    -6.584      0.000      0.000
REMARK INTER + INTRA:          -8.939
REMARK INTER:                  -8.367
REMARK INTRA:                  -0.572
REMARK UNBOUND:                -0.815
REMARK  Name = 
REMARK  5 active torsions:
REMARK  status: ('A' for Active; 'I' for Inactive)
REMARK    1  A    between atoms: C_1  and  C_2
REMARK    2  A    between atoms: C_7  and  O_8
REMARK    3  A    between atoms: O_8  and  C_9
REMARK    4  A    between atoms: C_12  and  N_13
REMARK    5  A    between atoms: C_21  and  C_22
REMARK                            x       y       z     vdW  Elec       q    Type
REMARK                         _______ _______ _______ _____ _____    ______ ____
ROOT
ATOM      1  N   UNL     1      17.843  37.192  51.121  0.00  0.00    +0.000 N 
ATOM      2  C   UNL     1      17.311  37.580  49.914  0.00  0.00    +0.000 C 
ATOM      3  O   UNL     1      17.526  36.999  48.852  0.00  0.00    +0.000 OA
ATOM      4  N   UNL     1      16.430  38.643  49.980  0.00  0.00    +0.000 N 
ATOM      5  C   UNL     1      15.541  38.937  48.848  0.00  0.00    +0.000 C 
ATOM      6  C   UNL     1      14.532  39.977  49.343  0.00  0.00    +0.000 C 
ATOM      7  C   UNL     1      15.221  40.497  50.566  0.00  0.00    +0.000 A 
ATOM      8  C   UNL     1      14.869  41.607  51.320  0.00  0.00    +0.000 A 
ATOM      9  C   UNL     1      15.645  41.935  52.443  0.00  0.00    +0.000 A 
ATOM     10  C   UNL     1      16.770  41.143  52.760  0.00  0.00    +0.000 A 
ATOM     11  C   UNL     1      17.108  40.020  51.995  0.00  0.00    +0.000 A 
ATOM     12  C   UNL     1      16.308  39.689  50.913  0.00  0.00    +0.000 A 
ATOM     13  H   UNL     1      17.292  37.460  51.922  0.00  0.00    +0.000 HD
ENDROOT
BRANCH   1  17
ATOM     14  C   UNL     1      20.874  34.401  51.681  0.00  0.00    +0.000 A 
ATOM     15  C   UNL     1      21.208  35.715  51.397  0.00  0.00    +0.000 A 
ATOM     16  C   UNL     1      20.179  36.640  51.217  0.00  0.00    +0.000 A 
ATOM     17  C   UNL     1      18.849  36.230  51.329  0.00  0.00    +0.000 A 
ATOM     18  C   UNL     1      18.619  34.884  51.608  0.00  0.00    +0.000 A 
ATOM     19  N   UNL     1      19.601  33.964  51.783  0.00  0.00    +0.000 NA
BRANCH  14  20
ATOM     20  O   UNL     1      21.938  33.520  51.834  0.00  0.00    +0.000 OA
BRANCH  20  27
ATOM     21  C   UNL     1      24.622  32.525  51.980  0.00  0.00    +0.000 C 
ATOM     22  C   UNL     1      23.897  33.095  53.161  0.00  0.00    +0.000 A 
ATOM     23  N   UNL     1      24.587  33.160  54.329  0.00  0.00    +0.000 NA
ATOM     24  C   UNL     1      23.940  33.669  55.402  0.00  0.00    +0.000 A 
ATOM     25  C   UNL     1      22.636  34.137  55.371  0.00  0.00    +0.000 A 
ATOM     26  C   UNL     1      21.946  34.078  54.166  0.00  0.00    +0.000 A 
ATOM     27  C   UNL     1      22.576  33.535  53.048  0.00  0.00    +0.000 A 
ENDBRANCH  20  27
ENDBRANCH  14  20
ENDBRANCH   1  17
BRANCH   9  28
ATOM     28  C   UNL     1      15.313  43.153  53.274  0.00  0.00    +0.000 C 
ATOM     29  F   UNL     1      16.023  44.258  52.911  0.00  0.00    +0.000 F 
ATOM     30  F   UNL     1      15.566  42.961  54.597  0.00  0.00    +0.000 F 
ATOM     31  F   UNL     1      14.001  43.511  53.190  0.00  0.00    +0.000 F 
ENDBRANCH   9  28
TORSDOF 4
ENDMDL
MODEL 2
REMARK VINA RESULT:    -6.395      5.109      9.777
REMARK INTER + INTRA:          -8.705
REMARK INTER:                  -7.890
REMARK INTRA:                  -0.815
REMARK UNBOUND:                -0.815
REMARK  Name = 
REMARK  5 active torsions:
REMARK  status: ('A' for Active; 'I' for Inactive)
REMARK    1  A    between atoms: C_1  and  C_2
REMARK    2  A    between atoms: C_7  and  O_8
REMARK    3  A    between atoms: O_8  and  C_9
REMARK    4  A    between atoms: C_12  and  N_13
REMARK    5  A    between atoms: C_21  and  C_22
REMARK                            x       y       z     vdW  Elec       q    Type
REMARK                         _______ _______ _______ _____ _____    ______ ____
ROOT
ATOM      1  N   UNL     1      18.092  38.509  51.247  0.00  0.00    +0.000 N 
ATOM      2  C   UNL     1      17.435  37.522  50.552  0.00  0.00    +0.000 C 
ATOM      3  O   UNL     1      16.211  37.446  50.462  0.00  0.00    +0.000 OA
ATOM      4  N   UNL     1      18.256  36.641  49.873  0.00  0.00    +0.000 N 
ATOM      5  C   UNL     1      17.700  35.765  48.834  0.00  0.00    +0.000 C 
ATOM      6  C   UNL     1      18.893  35.130  48.113  0.00  0.00    +0.000 C 
ATOM      7  C   UNL     1      19.993  35.365  49.102  0.00  0.00    +0.000 A 
ATOM      8  C   UNL     1      21.271  34.826  49.079  0.00  0.00    +0.000 A 
ATOM      9  C   UNL     1      22.168  35.170  50.102  0.00  0.00    +0.000 A 
ATOM     10  C   UNL     1      21.740  36.033  51.134  0.00  0.00    +0.000 A 
ATOM     11  C   UNL     1      20.449  36.577  51.139  0.00  0.00    +0.000 A 
ATOM     12  C   UNL     1      19.591  36.257  50.100  0.00  0.00    +0.000 A 
ATOM     13  H   UNL     1      19.024  38.701  50.913  0.00  0.00    +0.000 HD
ENDROOT
BRANCH   1  17
ATOM     14  C   UNL     1      16.407  41.373  53.746  0.00  0.00    +0.000 A 
ATOM     15  C   UNL     1      16.380  41.571  52.375  0.00  0.00    +0.000 A 
ATOM     16  C   UNL     1      16.945  40.597  51.551  0.00  0.00    +0.000 A 
ATOM     17  C   UNL     1      17.516  39.455  52.116  0.00  0.00    +0.000 A 
ATOM     18  C   UNL     1      17.502  39.356  53.505  0.00  0.00    +0.000 A 
ATOM     19  N   UNL     1      16.963  40.290  54.330  0.00  0.00    +0.000 NA
BRANCH  14  20
ATOM     20  O   UNL     1      15.845  42.382  54.520  0.00  0.00    +0.000 OA
BRANCH  20  27
ATOM     21  C   UNL     1      14.940  44.899  53.490  0.00  0.00    +0.000 C 
ATOM     22  C   UNL     1      14.009  43.779  53.845  0.00  0.00    +0.000 A 
ATOM     23  N   UNL     1      12.685  43.990  53.622  0.00  0.00    +0.000 NA
ATOM     24  C   UNL     1      11.837  42.987  53.942  0.00  0.00    +0.000 A 
ATOM     25  C   UNL     1      12.239  41.768  54.463  0.00  0.00    +0.000 A 
ATOM     26  C   UNL     1      13.598  41.560  54.674  0.00  0.00    +0.000 A 
ATOM     27  C   UNL     1      14.496  42.584  54.378  0.00  0.00    +0.000 A 
ENDBRANCH  20  27
ENDBRANCH  14  20
ENDBRANCH   1  17
BRANCH   9  28
ATOM     28  C   UNL     1      23.560  34.582  50.130  0.00  0.00    +0.000 C 
ATOM     29  F   UNL     1      23.839  33.924  51.290  0.00  0.00    +0.000 F 
ATOM     30  F   UNL     1      24.525  35.531  49.995  0.00  0.00    +0.000 F 
ATOM     31  F   UNL     1      23.775  33.680  49.132  0.00  0.00    +0.000 F 
ENDBRANCH   9  28
TORSDOF 4
ENDMDL
MODEL 3
REMARK VINA RESULT:    -6.370     10.876     14.968
REMARK INTER + INTRA:          -8.675
REMARK INTER:                  -7.781
REMARK INTRA:                  -0.894
REMARK UNBOUND:                -0.815
REMARK  Name = 
REMARK  5 active torsions:
REMARK  status: ('A' for Active; 'I' for Inactive)
REMARK    1  A    between atoms: C_1  and  C_2
REMARK    2  A    between atoms: C_7  and  O_8
REMARK    3  A    between atoms: O_8  and  C_9
REMARK    4  A    between atoms: C_12  and  N_13
REMARK    5  A    between atoms: C_21  and  C_22
REMARK                            x       y       z     vdW  Elec       q    Type
REMARK                         _______ _______ _______ _____ _____    ______ ____
ROOT
ATOM      1  N   UNL     1      13.839  45.475  44.583  0.00  0.00    +0.000 N 
ATOM      2  C   UNL     1      13.458  44.644  45.610  0.00  0.00    +0.000 C 
ATOM      3  O   UNL     1      12.900  45.032  46.635  0.00  0.00    +0.000 OA
ATOM      4  N   UNL     1      13.671  43.298  45.379  0.00  0.00    +0.000 N 
ATOM      5  C   UNL     1      13.012  42.291  46.222  0.00  0.00    +0.000 C 
ATOM      6  C   UNL     1      13.239  40.937  45.543  0.00  0.00    +0.000 C 
ATOM      7  C   UNL     1      14.377  41.255  44.625  0.00  0.00    +0.000 A 
ATOM      8  C   UNL     1      15.146  40.358  43.898  0.00  0.00    +0.000 A 
ATOM      9  C   UNL     1      16.176  40.853  43.084  0.00  0.00    +0.000 A 
ATOM     10  C   UNL     1      16.415  42.244  43.045  0.00  0.00    +0.000 A 
ATOM     11  C   UNL     1      15.626  43.140  43.777  0.00  0.00    +0.000 A 
ATOM     12  C   UNL     1      14.588  42.635  44.544  0.00  0.00    +0.000 A 
ATOM     13  H   UNL     1      13.887  45.026  43.682  0.00  0.00    +0.000 HD
ENDROOT
BRANCH   1  17
ATOM     14  C   UNL     1      13.933  49.631  44.700  0.00  0.00    +0.000 A 
ATOM     15  C   UNL     1      15.011  48.915  45.195  0.00  0.00    +0.000 A 
ATOM     16  C   UNL     1      14.966  47.522  45.143  0.00  0.00    +0.000 A 
ATOM     17  C   UNL     1      13.850  46.883  44.598  0.00  0.00    +0.000 A 
ATOM     18  C   UNL     1      12.815  47.693  44.137  0.00  0.00    +0.000 A 
ATOM     19  N   UNL     1      12.832  49.050  44.180  0.00  0.00    +0.000 NA
BRANCH  14  20
ATOM     20  O   UNL     1      14.025  51.015  44.793  0.00  0.00    +0.000 OA
BRANCH  20  27
ATOM     21  C   UNL     1      16.412  52.338  45.672  0.00  0.00    +0.000 C 
ATOM     22  C   UNL     1      15.178  52.229  46.517  0.00  0.00    +0.000 A 
ATOM     23  N   UNL     1      15.218  52.829  47.736  0.00  0.00    +0.000 NA
ATOM     24  C   UNL     1      14.113  52.734  48.508  0.00  0.00    +0.000 A 
ATOM     25  C   UNL     1      12.952  52.082  48.123  0.00  0.00    +0.000 A 
ATOM     26  C   UNL     1      12.919  51.485  46.868  0.00  0.00    +0.000 A 
ATOM     27  C   UNL     1      14.052  51.543  46.058  0.00  0.00    +0.000 A 
ENDBRANCH  20  27
ENDBRANCH  14  20
ENDBRANCH   1  17
BRANCH   9  28
ATOM     28  C   UNL     1      17.055  39.907  42.299  0.00  0.00    +0.000 C 
ATOM     29  F   UNL     1      17.518  38.865  43.044  0.00  0.00    +0.000 F 
ATOM     30  F   UNL     1      18.156  40.525  41.791  0.00  0.00    +0.000 F 
ATOM     31  F   UNL     1      16.414  39.346  41.235  0.00  0.00    +0.000 F 
ENDBRANCH   9  28
TORSDOF 4
ENDMDL
