MODEL 1
REMARK VINA RESULT:    -7.172      0.000      0.000
REMARK INTER + INTRA:          -8.158
REMARK INTER:                  -7.578
REMARK INTRA:                  -0.581
REMARK UNBOUND:                -0.567
REMARK  Name = 
REMARK  4 active torsions:
REMARK  status: ('A' for Active; 'I' for Inactive)
REMARK    1  A    between atoms: C_1  and  C_2
REMARK    2  A    between atoms: C_4  and  C_5
REMARK    3  A    between atoms: C_4  and  C_6
REMARK    4  A    between atoms: C_15  and  C_16
REMARK                            x       y       z     vdW  Elec       q    Type
REMARK                         _______ _______ _______ _____ _____    ______ ____
ROOT
ATOM      1  C   UNL     1      14.752  39.053  51.902  0.00  0.00    +0.000 C 
ATOM      2  C   UNL     1      15.174  40.176  52.804  0.00  0.00    +0.000 C 
ATOM      3  C   UNL     1      14.779  41.437  52.541  0.00  0.00    +0.000 C 
ATOM      4  C   UNL     1      14.978  42.594  53.485  0.00  0.00    +0.000 C 
ATOM      5  C   UNL     1      16.273  43.350  53.159  0.00  0.00    +0.000 C 
ATOM      6  C   UNL     1      13.783  43.556  53.383  0.00  0.00    +0.000 C 
ATOM      7  N   UNL     1      15.008  42.097  54.865  0.00  0.00    +0.000 N 
ATOM      8  C   UNL     1      15.701  40.895  55.103  0.00  0.00    +0.000 A 
ATOM      9  C   UNL     1      16.086  40.607  56.415  0.00  0.00    +0.000 A 
ATOM     10  C   UNL     1      16.720  39.407  56.729  0.00  0.00    +0.000 A 
ATOM     11  C   UNL     1      17.038  38.480  55.728  0.00  0.00    +0.000 A 
ATOM     12  C   UNL     1      16.677  38.780  54.385  0.00  0.00    +0.000 A 
ATOM     13  C   UNL     1      15.891  39.926  54.088  0.00  0.00    +0.000 A 
ATOM     14  C   UNL     1      17.243  37.854  53.371  0.00  0.00    +0.000 C 
ATOM     15  C   UNL     1      17.855  38.302  52.258  0.00  0.00    +0.000 C 
ATOM     16  O   UNL     1      17.282  36.508  53.713  0.00  0.00    +0.000 OA
ATOM     17  C   UNL     1      17.732  36.221  54.985  0.00  0.00    +0.000 A 
ATOM     18  C   UNL     1      18.251  34.941  55.187  0.00  0.00    +0.000 A 
ATOM     19  C   UNL     1      18.762  34.594  56.433  0.00  0.00    +0.000 A 
ATOM     20  C   UNL     1      18.748  35.527  57.466  0.00  0.00    +0.000 A 
ATOM     21  C   UNL     1      18.211  36.804  57.259  0.00  0.00    +0.000 A 
ATOM     22  C   UNL     1      17.679  37.177  56.014  0.00  0.00    +0.000 A 
ATOM     23  H   UNL     1      15.235  42.817  55.544  0.00  0.00    +0.000 HD
ENDROOT
BRANCH  15  24
ATOM     24  C   UNL     1      18.512  37.462  51.248  0.00  0.00    +0.000 A 
ATOM     25  C   UNL     1      17.796  37.092  50.100  0.00  0.00    +0.000 A 
ATOM     26  C   UNL     1      18.376  36.267  49.132  0.00  0.00    +0.000 A 
ATOM     27  C   UNL     1      19.674  35.795  49.309  0.00  0.00    +0.000 A 
ATOM     28  C   UNL     1      20.378  36.149  50.455  0.00  0.00    +0.000 A 
ATOM     29  F   UNL     1      21.623  35.687  50.629  0.00  0.00    +0.000 F 
ATOM     30  C   UNL     1      19.810  36.969  51.424  0.00  0.00    +0.000 A 
ENDBRANCH  15  24
TORSDOF 1
ENDMDL
MODEL 2
REMARK VINA RESULT:    -7.163      3.028      6.434
REMARK INTER + INTRA:          -8.150
REMARK INTER:                  -7.633
REMARK INTRA:                  -0.517
REMARK UNBOUND:                -0.567
REMARK  Name = 
REMARK  4 active torsions:
REMARK  status: ('A' for Active; 'I' for Inactive)
REMARK    1  A    between atoms: C_1  and  C_2
REMARK    2  A    between atoms: C_4  and  C_5
REMARK    3  A    between atoms: C_4  and  C_6
REMARK    4  A    between atoms: C_15  and  C_16
REMARK                            x       y       z     vdW  Elec       q    Type
REMARK                         _______ _______ _______ _____ _____    ______ ____
ROOT
ATOM      1  C   UNL     1      18.188  40.242  52.104  0.00  0.00    +0.000 C 
ATOM      2  C   UNL     1      17.824  38.787  52.175  0.00  0.00    +0.000 C 
ATOM      3  C   UNL     1      17.892  38.019  51.070  0.00  0.00    +0.000 C 
ATOM      4  C   UNL     1      17.744  36.520  51.078  0.00  0.00    +0.000 C 
ATOM      5  C   UNL     1      16.292  36.112  50.795  0.00  0.00    +0.000 C 
ATOM      6  C   UNL     1      18.666  35.904  50.014  0.00  0.00    +0.000 C 
ATOM      7  N   UNL     1      18.180  35.994  52.376  0.00  0.00    +0.000 N 
ATOM      8  C   UNL     1      17.812  36.722  53.523  0.00  0.00    +0.000 A 
ATOM      9  C   UNL     1      17.856  36.069  54.758  0.00  0.00    +0.000 A 
ATOM     10  C   UNL     1      17.564  36.749  55.939  0.00  0.00    +0.000 A 
ATOM     11  C   UNL     1      17.166  38.091  55.914  0.00  0.00    +0.000 A 
ATOM     12  C   UNL     1      17.090  38.754  54.659  0.00  0.00    +0.000 A 
ATOM     13  C   UNL     1      17.539  38.110  53.474  0.00  0.00    +0.000 A 
ATOM     14  C   UNL     1      16.453  40.096  54.706  0.00  0.00    +0.000 C 
ATOM     15  C   UNL     1      15.492  40.460  53.835  0.00  0.00    +0.000 C 
ATOM     16  O   UNL     1      16.758  40.890  55.804  0.00  0.00    +0.000 OA
ATOM     17  C   UNL     1      16.729  40.259  57.030  0.00  0.00    +0.000 A 
ATOM     18  C   UNL     1      16.530  41.077  58.145  0.00  0.00    +0.000 A 
ATOM     19  C   UNL     1      16.449  40.506  59.411  0.00  0.00    +0.000 A 
ATOM     20  C   UNL     1      16.567  39.126  59.553  0.00  0.00    +0.000 A 
ATOM     21  C   UNL     1      16.782  38.315  58.431  0.00  0.00    +0.000 A 
ATOM     22  C   UNL     1      16.879  38.867  57.143  0.00  0.00    +0.000 A 
ATOM     23  H   UNL     1      18.015  34.998  52.479  0.00  0.00    +0.000 HD
ENDROOT
BRANCH  15  24
ATOM     24  C   UNL     1      14.754  41.731  53.861  0.00  0.00    +0.000 A 
ATOM     25  C   UNL     1      13.405  41.727  54.245  0.00  0.00    +0.000 A 
ATOM     26  C   UNL     1      12.661  42.910  54.253  0.00  0.00    +0.000 A 
ATOM     27  C   UNL     1      13.257  44.107  53.865  0.00  0.00    +0.000 A 
ATOM     28  C   UNL     1      14.590  44.109  53.469  0.00  0.00    +0.000 A 
ATOM     29  F   UNL     1      15.160  45.259  53.086  0.00  0.00    +0.000 F 
ATOM     30  C   UNL     1      15.340  42.936  53.458  0.00  0.00    +0.000 A 
ENDBRANCH  15  24
TORSDOF 1
ENDMDL
MODEL 3
REMARK VINA RESULT:    -6.870     10.287     12.623
REMARK INTER + INTRA:          -7.839
REMARK INTER:                  -7.272
REMARK INTRA:                  -0.567
REMARK UNBOUND:                -0.567
REMARK  Name = 
REMARK  4 active torsions:
REMARK  status: ('A' for Active; 'I' for Inactive)
REMARK    1  A    between atoms: C_1  and  C_2
REMARK    2  A    between atoms: C_4  and  C_5
REMARK    3  A    between atoms: C_4  and  C_6
REMARK    4  A    between atoms: C_15  and  C_16
REMARK                            x       y       z     vdW  Elec       q    Type
REMARK                         _______ _______ _______ _____ _____    ______ ____
ROOT
ATOM      1  C   UNL     1      10.122  47.010  45.084  0.00  0.00    +0.000 C 
ATOM      2  C   UNL     1      10.086  46.288  46.400  0.00  0.00    +0.000 C 
ATOM      3  C   UNL     1       9.116  46.563  47.294  0.00  0.00    +0.000 C 
ATOM      4  C   UNL     1       8.875  45.760  48.546  0.00  0.00    +0.000 C 
ATOM      5  C   UNL     1       9.610  46.379  49.742  0.00  0.00    +0.000 C 
ATOM      6  C   UNL     1       7.367  45.707  48.842  0.00  0.00    +0.000 C 
ATOM      7  N   UNL     1       9.317  44.378  48.332  0.00  0.00    +0.000 N 
ATOM      8  C   UNL     1      10.516  44.188  47.619  0.00  0.00    +0.000 A 
ATOM      9  C   UNL     1      11.162  42.954  47.737  0.00  0.00    +0.000 A 
ATOM     10  C   UNL     1      12.319  42.679  47.012  0.00  0.00    +0.000 A 
ATOM     11  C   UNL     1      12.896  43.651  46.186  0.00  0.00    +0.000 A 
ATOM     12  C   UNL     1      12.262  44.919  46.084  0.00  0.00    +0.000 A 
ATOM     13  C   UNL     1      11.000  45.147  46.697  0.00  0.00    +0.000 A 
ATOM     14  C   UNL     1      13.055  45.952  45.367  0.00  0.00    +0.000 C 
ATOM     15  C   UNL     1      13.232  47.190  45.867  0.00  0.00    +0.000 C 
ATOM     16  O   UNL     1      13.764  45.526  44.251  0.00  0.00    +0.000 OA
ATOM     17  C   UNL     1      14.460  44.344  44.393  0.00  0.00    +0.000 A 
ATOM     18  C   UNL     1      15.540  44.150  43.529  0.00  0.00    +0.000 A 
ATOM     19  C   UNL     1      16.313  43.000  43.642  0.00  0.00    +0.000 A 
ATOM     20  C   UNL     1      16.003  42.054  44.614  0.00  0.00    +0.000 A 
ATOM     21  C   UNL     1      14.909  42.249  45.468  0.00  0.00    +0.000 A 
ATOM     22  C   UNL     1      14.104  43.396  45.368  0.00  0.00    +0.000 A 
ATOM     23  H   UNL     1       9.269  43.809  49.171  0.00  0.00    +0.000 HD
ENDROOT
BRANCH  15  24
ATOM     24  C   UNL     1      14.065  48.241  45.268  0.00  0.00    +0.000 A 
ATOM     25  C   UNL     1      15.430  48.290  45.585  0.00  0.00    +0.000 A 
ATOM     26  C   UNL     1      16.250  49.294  45.060  0.00  0.00    +0.000 A 
ATOM     27  C   UNL     1      15.708  50.264  44.221  0.00  0.00    +0.000 A 
ATOM     28  C   UNL     1      14.351  50.225  43.919  0.00  0.00    +0.000 A 
ATOM     29  F   UNL     1      13.828  51.164  43.120  0.00  0.00    +0.000 F 
ATOM     30  C   UNL     1      13.527  49.230  44.437  0.00  0.00    +0.000 A 
ENDBRANCH  15  24
TORSDOF 1
ENDMDL
