MODEL 1
REMARK VINA RESULT:    -6.930      0.000      0.000
REMARK INTER + INTRA:          -8.455
REMARK INTER:                  -7.654
REMARK INTRA:                  -0.801
REMARK UNBOUND:                 0.096
REMARK  Name = 
REMARK  5 active torsions:
REMARK  status: ('A' for Active; 'I' for Inactive)
REMARK    1  A    between atoms: C_1  and  C_2
REMARK    2  A    between atoms: C_2  and  C_3
REMARK    3  A    between atoms: C_3  and  N_4
REMARK    4  A    between atoms: C_6  and  C_7
REMARK    5  A    between atoms: C_17  and  C_18
REMARK                            x       y       z     vdW  Elec       q    Type
REMARK                         _______ _______ _______ _____ _____    ______ ____
ROOT
ATOM      1  N   UNL     1      14.894  42.418  45.667  0.00  0.00    +0.000 N 
ATOM      2  N   UNL     1      14.508  43.567  46.262  0.00  0.00    +0.000 NA
ATOM      3  C   UNL     1      14.246  44.414  45.256  0.00  0.00    +0.000 A 
ATOM      4  C   UNL     1      14.454  43.784  43.998  0.00  0.00    +0.000 A 
ATOM      5  C   UNL     1      14.939  42.524  44.302  0.00  0.00    +0.000 A 
ATOM      6  C   UNL     1      15.276  41.520  43.340  0.00  0.00    +0.000 C 
ATOM      7  C   UNL     1      16.295  40.670  43.583  0.00  0.00    +0.000 C 
ATOM      8  C   UNL     1      14.555  41.586  41.997  0.00  0.00    +0.000 C 
ATOM      9  S   UNL     1      14.812  43.253  41.271  0.00  0.00    +0.000 S 
ATOM     10  C   UNL     1      14.151  44.296  42.629  0.00  0.00    +0.000 C 
ENDROOT
BRANCH   3  11
ATOM     11  C   UNL     1      13.763  45.764  45.533  0.00  0.00    +0.000 A 
ATOM     12  C   UNL     1      12.575  45.948  46.258  0.00  0.00    +0.000 A 
ATOM     13  C   UNL     1      12.099  47.234  46.526  0.00  0.00    +0.000 A 
ATOM     14  C   UNL     1      12.813  48.342  46.075  0.00  0.00    +0.000 A 
ATOM     15 CL   UNL     1      12.229  49.927  46.405  0.00  0.00    +0.000 Cl
ATOM     16  C   UNL     1      14.002  48.176  45.367  0.00  0.00    +0.000 A 
ATOM     17  C   UNL     1      14.478  46.888  45.100  0.00  0.00    +0.000 A 
ENDBRANCH   3  11
BRANCH   7  18
ATOM     18  C   UNL     1      16.775  39.650  42.647  0.00  0.00    +0.000 A 
ATOM     19  C   UNL     1      16.262  38.349  42.704  0.00  0.00    +0.000 A 
ATOM     20  C   UNL     1      16.725  37.375  41.817  0.00  0.00    +0.000 A 
ATOM     21  C   UNL     1      17.699  37.702  40.876  0.00  0.00    +0.000 A 
ATOM     22 CL   UNL     1      18.270  36.501  39.783  0.00  0.00    +0.000 Cl
ATOM     23  C   UNL     1      18.215  38.996  40.813  0.00  0.00    +0.000 A 
ATOM     24  C   UNL     1      17.753  39.971  41.699  0.00  0.00    +0.000 A 
ENDBRANCH   7  18
BRANCH   1  25
ATOM     25  C   UNL     1      15.056  41.255  46.523  0.00  0.00    +0.000 C 
BRANCH  25  27
ATOM     26  C   UNL     1      14.464  40.616  48.884  0.00  0.00    +0.000 C 
ATOM     27  C   UNL     1      13.936  41.128  47.554  0.00  0.00    +0.000 C 
ENDBRANCH  25  27
ENDBRANCH   1  25
TORSDOF 4
ENDMDL
MODEL 2
REMARK VINA RESULT:    -6.334      1.754      2.042
REMARK INTER + INTRA:          -7.719
REMARK INTER:                  -7.815
REMARK INTRA:                   0.096
REMARK UNBOUND:                 0.096
REMARK  Name = 
REMARK  5 active torsions:
REMARK  status: ('A' for Active; 'I' for Inactive)
REMARK    1  A    between atoms: C_1  and  C_2
REMARK    2  A    between atoms: C_2  and  C_3
REMARK    3  A    between atoms: C_3  and  N_4
REMARK    4  A    between atoms: C_6  and  C_7
REMARK    5  A    between atoms: C_17  and  C_18
REMARK                            x       y       z     vdW  Elec       q    Type
REMARK                         _______ _______ _______ _____ _____    ______ ____
ROOT
ATOM      1  N   UNL     1      13.572  42.082  46.361  0.00  0.00    +0.000 N 
ATOM      2  N   UNL     1      13.036  43.275  46.697  0.00  0.00    +0.000 NA
ATOM      3  C   UNL     1      13.662  44.174  45.924  0.00  0.00    +0.000 A 
ATOM      4  C   UNL     1      14.601  43.536  45.068  0.00  0.00    +0.000 A 
ATOM      5  C   UNL     1      14.567  42.200  45.427  0.00  0.00    +0.000 A 
ATOM      6  C   UNL     1      15.343  41.165  44.815  0.00  0.00    +0.000 C 
ATOM      7  C   UNL     1      15.782  40.126  45.554  0.00  0.00    +0.000 C 
ATOM      8  C   UNL     1      15.776  41.395  43.370  0.00  0.00    +0.000 C 
ATOM      9  S   UNL     1      16.681  42.990  43.273  0.00  0.00    +0.000 S 
ATOM     10  C   UNL     1      15.407  44.120  43.955  0.00  0.00    +0.000 C 
ENDROOT
BRANCH   3  11
ATOM     11  C   UNL     1      13.305  45.588  45.997  0.00  0.00    +0.000 A 
ATOM     12  C   UNL     1      12.106  45.977  46.614  0.00  0.00    +0.000 A 
ATOM     13  C   UNL     1      11.750  47.326  46.687  0.00  0.00    +0.000 A 
ATOM     14  C   UNL     1      12.596  48.293  46.148  0.00  0.00    +0.000 A 
ATOM     15 CL   UNL     1      12.160  49.955  46.237  0.00  0.00    +0.000 Cl
ATOM     16  C   UNL     1      13.797  47.924  45.545  0.00  0.00    +0.000 A 
ATOM     17  C   UNL     1      14.153  46.573  45.473  0.00  0.00    +0.000 A 
ENDBRANCH   3  11
BRANCH   7  18
ATOM     18  C   UNL     1      16.637  39.047  45.056  0.00  0.00    +0.000 A 
ATOM     19  C   UNL     1      17.434  38.315  45.944  0.00  0.00    +0.000 A 
ATOM     20  C   UNL     1      18.255  37.291  45.468  0.00  0.00    +0.000 A 
ATOM     21  C   UNL     1      18.279  37.000  44.105  0.00  0.00    +0.000 A 
ATOM     22 CL   UNL     1      19.292  35.739  43.518  0.00  0.00    +0.000 Cl
ATOM     23  C   UNL     1      17.489  37.725  43.213  0.00  0.00    +0.000 A 
ATOM     24  C   UNL     1      16.668  38.749  43.689  0.00  0.00    +0.000 A 
ENDBRANCH   7  18
BRANCH   1  25
ATOM     25  C   UNL     1      12.938  40.897  46.912  0.00  0.00    +0.000 C 
BRANCH  25  27
ATOM     26  C   UNL     1      14.424  40.688  48.931  0.00  0.00    +0.000 C 
ATOM     27  C   UNL     1      12.997  40.859  48.438  0.00  0.00    +0.000 C 
ENDBRANCH  25  27
ENDBRANCH   1  25
TORSDOF 4
ENDMDL
MODEL 3
REMARK VINA RESULT:    -4.610      8.901     13.591
REMARK INTER + INTRA:          -5.592
REMARK INTER:                  -4.496
REMARK INTRA:                  -1.096
REMARK UNBOUND:                 0.096
REMARK  Name = 
REMARK  5 active torsions:
REMARK  status: ('A' for Active; 'I' for Inactive)
REMARK    1  A    between atoms: C_1  and  C_2
REMARK    2  A    between atoms: C_2  and  C_3
REMARK    3  A    between atoms: C_3  and  N_4
REMARK    4  A    between atoms: C_6  and  C_7
REMARK    5  A    between atoms: C_17  and  C_18
REMARK                            x       y       z     vdW  Elec       q    Type
REMARK                         _______ _______ _______ _____ _____    ______ ____
ROOT
ATOM      1  N   UNL     1      17.321  39.635  52.346  0.00  0.00    +0.000 N 
ATOM      2  N   UNL     1      18.041  39.089  51.343  0.00  0.00    +0.000 NA
ATOM      3  C   UNL     1      18.359  37.857  51.766  0.00  0.00    +0.000 A 
ATOM      4  C   UNL     1      17.815  37.610  53.057  0.00  0.00    +0.000 A 
ATOM      5  C   UNL     1      17.215  38.802  53.429  0.00  0.00    +0.000 A 
ATOM      6  C   UNL     1      16.516  39.020  54.658  0.00  0.00    +0.000 C 
ATOM      7  C   UNL     1      16.556  40.232  55.248  0.00  0.00    +0.000 C 
ATOM      8  C   UNL     1      15.897  37.794  55.324  0.00  0.00    +0.000 C 
ATOM      9  S   UNL     1      17.209  36.533  55.571  0.00  0.00    +0.000 S 
ATOM     10  C   UNL     1      17.795  36.342  53.842  0.00  0.00    +0.000 C 
ENDROOT
BRANCH   3  11
ATOM     11  C   UNL     1      19.120  36.953  50.908  0.00  0.00    +0.000 A 
ATOM     12  C   UNL     1      18.536  36.441  49.739  0.00  0.00    +0.000 A 
ATOM     13  C   UNL     1      19.251  35.571  48.911  0.00  0.00    +0.000 A 
ATOM     14  C   UNL     1      20.556  35.216  49.246  0.00  0.00    +0.000 A 
ATOM     15 CL   UNL     1      21.438  34.146  48.228  0.00  0.00    +0.000 Cl
ATOM     16  C   UNL     1      21.154  35.728  50.396  0.00  0.00    +0.000 A 
ATOM     17  C   UNL     1      20.438  36.599  51.223  0.00  0.00    +0.000 A 
ENDBRANCH   3  11
BRANCH   7  18
ATOM     18  C   UNL     1      15.939  40.556  56.536  0.00  0.00    +0.000 A 
ATOM     19  C   UNL     1      14.555  40.743  56.625  0.00  0.00    +0.000 A 
ATOM     20  C   UNL     1      13.967  41.058  57.852  0.00  0.00    +0.000 A 
ATOM     21  C   UNL     1      14.764  41.187  58.988  0.00  0.00    +0.000 A 
ATOM     22 CL   UNL     1      14.041  41.577  60.500  0.00  0.00    +0.000 Cl
ATOM     23  C   UNL     1      16.144  41.003  58.908  0.00  0.00    +0.000 A 
ATOM     24  C   UNL     1      16.732  40.687  57.682  0.00  0.00    +0.000 A 
ENDBRANCH   7  18
BRANCH   1  25
ATOM     25  C   UNL     1      16.678  40.910  52.078  0.00  0.00    +0.000 C 
BRANCH  25  27
ATOM     26  C   UNL     1      14.245  41.370  52.523  0.00  0.00    +0.000 C 
ATOM     27  C   UNL     1      15.248  40.746  51.567  0.00  0.00    +0.000 C 
ENDBRANCH  25  27
ENDBRANCH   1  25
TORSDOF 4
ENDMDL
