MODEL 1
REMARK VINA RESULT:    -6.590      0.000      0.000
REMARK INTER + INTRA:          -9.207
REMARK INTER:                  -8.263
REMARK INTRA:                  -0.944
REMARK UNBOUND:                -1.076
REMARK  Name = 
REMARK  5 active torsions:
REMARK  status: ('A' for Active; 'I' for Inactive)
REMARK    1  A    between atoms: C_1  and  N_2
REMARK    2  A    between atoms: C_3  and  C_4
REMARK    3  A    between atoms: C_8  and  C_9
REMARK    4  A    between atoms: C_18  and  C_19
REMARK    5  A    between atoms: C_19  and  C_20
REMARK                            x       y       z     vdW  Elec       q    Type
REMARK                         _______ _______ _______ _____ _____    ______ ____
ROOT
ATOM      1  C   UNL     1      16.363  37.179  53.368  0.00  0.00    +0.000 C 
ATOM      2  N   UNL     1      17.085  38.399  53.127  0.00  0.00    +0.000 N 
ATOM      3  C   UNL     1      18.074  38.592  52.187  0.00  0.00    +0.000 A 
ATOM      4  N   UNL     1      18.572  39.803  52.357  0.00  0.00    +0.000 NA
ATOM      5  N   UNL     1      17.884  40.420  53.370  0.00  0.00    +0.000 NA
ATOM      6  C   UNL     1      16.985  39.575  53.824  0.00  0.00    +0.000 A 
ENDROOT
BRANCH   3   7
ATOM      7  C   UNL     1      18.537  37.618  51.202  0.00  0.00    +0.000 A 
ATOM      8  C   UNL     1      17.845  37.397  50.007  0.00  0.00    +0.000 A 
ATOM      9  C   UNL     1      18.313  36.460  49.087  0.00  0.00    +0.000 A 
ATOM     10  C   UNL     1      19.482  35.743  49.351  0.00  0.00    +0.000 A 
ATOM     11  C   UNL     1      20.211  35.954  50.533  0.00  0.00    +0.000 A 
ATOM     12  C   UNL     1      19.721  36.904  51.446  0.00  0.00    +0.000 A 
BRANCH  11  13
ATOM     13  C   UNL     1      21.453  35.211  50.804  0.00  0.00    +0.000 A 
ATOM     14  C   UNL     1      21.526  34.279  51.854  0.00  0.00    +0.000 A 
ATOM     15  C   UNL     1      22.705  33.574  52.112  0.00  0.00    +0.000 A 
ATOM     16  C   UNL     1      23.832  33.787  51.323  0.00  0.00    +0.000 A 
ATOM     17  C   UNL     1      23.783  34.705  50.277  0.00  0.00    +0.000 A 
ATOM     18  C   UNL     1      22.604  35.410  50.021  0.00  0.00    +0.000 A 
ENDBRANCH  11  13
ENDBRANCH   3   7
BRANCH   6  19
ATOM     19  C   UNL     1      16.004  39.925  55.028  0.00  0.00    +0.000 C 
ATOM     20  C   UNL     1      14.504  39.598  54.701  0.00  0.00    +0.000 C 
ATOM     21  C   UNL     1      14.367  41.014  54.111  0.00  0.00    +0.000 C 
ATOM     22  C   UNL     1      15.542  41.432  55.010  0.00  0.00    +0.000 C 
BRANCH  19  23
ATOM     23  C   UNL     1      16.647  39.421  56.411  0.00  0.00    +0.000 A 
ATOM     24  C   UNL     1      16.843  40.319  57.486  0.00  0.00    +0.000 A 
ATOM     25  C   UNL     1      17.400  39.917  58.705  0.00  0.00    +0.000 A 
ATOM     26  C   UNL     1      17.778  38.593  58.884  0.00  0.00    +0.000 A 
ATOM     27 CL   UNL     1      18.466  38.090  60.378  0.00  0.00    +0.000 Cl
ATOM     28  C   UNL     1      17.602  37.674  57.857  0.00  0.00    +0.000 A 
ATOM     29  C   UNL     1      17.044  38.086  56.641  0.00  0.00    +0.000 A 
ENDBRANCH  19  23
ENDBRANCH   6  19
TORSDOF 4
ENDMDL
MODEL 2
REMARK VINA RESULT:    -6.508      8.940     13.114
REMARK INTER + INTRA:          -9.106
REMARK INTER:                  -8.906
REMARK INTRA:                  -0.201
REMARK UNBOUND:                -1.076
REMARK  Name = 
REMARK  5 active torsions:
REMARK  status: ('A' for Active; 'I' for Inactive)
REMARK    1  A    between atoms: C_1  and  N_2
REMARK    2  A    between atoms: C_3  and  C_4
REMARK    3  A    between atoms: C_8  and  C_9
REMARK    4  A    between atoms: C_18  and  C_19
REMARK    5  A    between atoms: C_19  and  C_20
REMARK                            x       y       z     vdW  Elec       q    Type
REMARK                         _______ _______ _______ _____ _____    ______ ____
ROOT
ATOM      1  C   UNL     1      13.591  41.054  44.951  0.00  0.00    +0.000 C 
ATOM      2  N   UNL     1      14.723  41.841  44.541  0.00  0.00    +0.000 N 
ATOM      3  C   UNL     1      14.871  43.203  44.696  0.00  0.00    +0.000 A 
ATOM      4  N   UNL     1      15.984  43.567  44.088  0.00  0.00    +0.000 NA
ATOM      5  N   UNL     1      16.590  42.447  43.577  0.00  0.00    +0.000 NA
ATOM      6  C   UNL     1      15.832  41.411  43.860  0.00  0.00    +0.000 A 
ENDROOT
BRANCH   3   7
ATOM      7  C   UNL     1      13.940  44.106  45.368  0.00  0.00    +0.000 A 
ATOM      8  C   UNL     1      12.896  43.623  46.165  0.00  0.00    +0.000 A 
ATOM      9  C   UNL     1      12.024  44.511  46.793  0.00  0.00    +0.000 A 
ATOM     10  C   UNL     1      12.195  45.888  46.638  0.00  0.00    +0.000 A 
ATOM     11  C   UNL     1      13.245  46.406  45.861  0.00  0.00    +0.000 A 
ATOM     12  C   UNL     1      14.112  45.492  45.236  0.00  0.00    +0.000 A 
BRANCH  11  13
ATOM     13  C   UNL     1      13.436  47.858  45.711  0.00  0.00    +0.000 A 
ATOM     14  C   UNL     1      12.482  48.769  46.195  0.00  0.00    +0.000 A 
ATOM     15  C   UNL     1      12.663  50.148  46.053  0.00  0.00    +0.000 A 
ATOM     16  C   UNL     1      13.804  50.640  45.425  0.00  0.00    +0.000 A 
ATOM     17  C   UNL     1      14.764  49.757  44.939  0.00  0.00    +0.000 A 
ATOM     18  C   UNL     1      14.580  48.378  45.080  0.00  0.00    +0.000 A 
ENDBRANCH  11  13
ENDBRANCH   3   7
BRANCH   6  19
ATOM     19  C   UNL     1      16.194  39.928  43.406  0.00  0.00    +0.000 C 
ATOM     20  C   UNL     1      17.011  39.888  42.067  0.00  0.00    +0.000 C 
ATOM     21  C   UNL     1      15.676  39.851  41.301  0.00  0.00    +0.000 C 
ATOM     22  C   UNL     1      15.040  39.256  42.569  0.00  0.00    +0.000 C 
BRANCH  19  23
ATOM     23  C   UNL     1      16.701  39.084  44.676  0.00  0.00    +0.000 A 
ATOM     24  C   UNL     1      17.291  37.810  44.507  0.00  0.00    +0.000 A 
ATOM     25  C   UNL     1      17.743  37.045  45.588  0.00  0.00    +0.000 A 
ATOM     26  C   UNL     1      17.620  37.540  46.879  0.00  0.00    +0.000 A 
ATOM     27 CL   UNL     1      18.172  36.608  48.214  0.00  0.00    +0.000 Cl
ATOM     28  C   UNL     1      17.050  38.789  47.093  0.00  0.00    +0.000 A 
ATOM     29  C   UNL     1      16.599  39.546  46.005  0.00  0.00    +0.000 A 
ENDBRANCH  19  23
ENDBRANCH   6  19
TORSDOF 4
ENDMDL
MODEL 3
REMARK VINA RESULT:    -6.475     10.948     14.226
REMARK INTER + INTRA:          -9.065
REMARK INTER:                  -7.989
REMARK INTRA:                  -1.076
REMARK UNBOUND:                -1.076
REMARK  Name = 
REMARK  5 active torsions:
REMARK  status: ('A' for Active; 'I' for Inactive)
REMARK    1  A    between atoms: C_1  and  N_2
REMARK    2  A    between atoms: C_3  and  C_4
REMARK    3  A    between atoms: C_8  and  C_9
REMARK    4  A    between atoms: C_18  and  C_19
REMARK    5  A    between atoms: C_19  and  C_20
REMARK                            x       y       z     vdW  Elec       q    Type
REMARK                         _______ _______ _______ _____ _____    ______ ____
ROOT
ATOM      1  C   UNL     1      13.365  43.262  43.043  0.00  0.00    +0.000 C 
ATOM      2  N   UNL     1      14.130  42.862  44.194  0.00  0.00    +0.000 N 
ATOM      3  C   UNL     1      14.315  43.593  45.348  0.00  0.00    +0.000 A 
ATOM      4  N   UNL     1      15.172  42.943  46.113  0.00  0.00    +0.000 NA
ATOM      5  N   UNL     1      15.512  41.770  45.490  0.00  0.00    +0.000 NA
ATOM      6  C   UNL     1      14.876  41.722  44.340  0.00  0.00    +0.000 A 
ENDROOT
BRANCH   3   7
ATOM      7  C   UNL     1      13.715  44.887  45.660  0.00  0.00    +0.000 A 
ATOM      8  C   UNL     1      12.548  44.990  46.426  0.00  0.00    +0.000 A 
ATOM      9  C   UNL     1      12.000  46.241  46.707  0.00  0.00    +0.000 A 
ATOM     10  C   UNL     1      12.619  47.399  46.232  0.00  0.00    +0.000 A 
ATOM     11  C   UNL     1      13.802  47.332  45.477  0.00  0.00    +0.000 A 
ATOM     12  C   UNL     1      14.337  46.060  45.206  0.00  0.00    +0.000 A 
BRANCH  11  13
ATOM     13  C   UNL     1      14.465  48.553  44.992  0.00  0.00    +0.000 A 
ATOM     14  C   UNL     1      13.759  49.516  44.250  0.00  0.00    +0.000 A 
ATOM     15  C   UNL     1      14.387  50.677  43.789  0.00  0.00    +0.000 A 
ATOM     16  C   UNL     1      15.735  50.895  44.062  0.00  0.00    +0.000 A 
ATOM     17  C   UNL     1      16.454  49.956  44.796  0.00  0.00    +0.000 A 
ATOM     18  C   UNL     1      15.824  48.796  45.255  0.00  0.00    +0.000 A 
ENDBRANCH  11  13
ENDBRANCH   3   7
BRANCH   6  19
ATOM     19  C   UNL     1      15.039  40.514  43.315  0.00  0.00    +0.000 C 
ATOM     20  C   UNL     1      16.411  39.768  43.471  0.00  0.00    +0.000 C 
ATOM     21  C   UNL     1      17.021  40.766  42.471  0.00  0.00    +0.000 C 
ATOM     22  C   UNL     1      15.601  40.981  41.919  0.00  0.00    +0.000 C 
BRANCH  19  23
ATOM     23  C   UNL     1      13.673  39.669  43.257  0.00  0.00    +0.000 A 
ATOM     24  C   UNL     1      13.207  39.134  42.034  0.00  0.00    +0.000 A 
ATOM     25  C   UNL     1      12.023  38.394  41.943  0.00  0.00    +0.000 A 
ATOM     26  C   UNL     1      11.267  38.165  43.085  0.00  0.00    +0.000 A 
ATOM     27 CL   UNL     1       9.809  37.259  42.984  0.00  0.00    +0.000 Cl
ATOM     28  C   UNL     1      11.687  38.669  44.310  0.00  0.00    +0.000 A 
ATOM     29  C   UNL     1      12.873  39.409  44.390  0.00  0.00    +0.000 A 
ENDBRANCH  19  23
ENDBRANCH   6  19
TORSDOF 4
ENDMDL
