MODEL 1
REMARK VINA RESULT:    -5.897      0.000      0.000
REMARK INTER + INTRA:          -6.682
REMARK INTER:                  -6.483
REMARK INTRA:                  -0.199
REMARK UNBOUND:                -0.440
REMARK  Name = 
REMARK  2 active torsions:
REMARK  status: ('A' for Active; 'I' for Inactive)
REMARK    1  A    between atoms: C_1  and  N_2
REMARK    2  A    between atoms: N_7  and  C_8
REMARK                            x       y       z     vdW  Elec       q    Type
REMARK                         _______ _______ _______ _____ _____    ______ ____
ROOT
ATOM      1  C   UNL     1      16.310  39.505  59.772  0.00  0.00    +0.000 C 
ATOM      2  N   UNL     1      16.257  39.948  58.392  0.00  0.00    +0.000 N 
ATOM      3  C   UNL     1      15.523  41.091  58.110  0.00  0.00    +0.000 A 
ATOM      4  O   UNL     1      14.950  41.698  59.011  0.00  0.00    +0.000 OA
ATOM      5  N   UNL     1      15.422  41.542  56.826  0.00  0.00    +0.000 NA
ATOM      6  C   UNL     1      15.938  40.947  55.796  0.00  0.00    +0.000 A 
ATOM      7  N   UNL     1      15.828  41.415  54.476  0.00  0.00    +0.000 N 
ATOM      8  C   UNL     1      16.531  40.709  53.446  0.00  0.00    +0.000 A 
ATOM      9  C   UNL     1      16.593  41.172  52.118  0.00  0.00    +0.000 A 
ATOM     10  C   UNL     1      17.292  40.463  51.136  0.00  0.00    +0.000 A 
ATOM     11  C   UNL     1      17.951  39.286  51.465  0.00  0.00    +0.000 A 
ATOM     12  C   UNL     1      17.921  38.825  52.780  0.00  0.00    +0.000 A 
ATOM     13  C   UNL     1      17.228  39.528  53.772  0.00  0.00    +0.000 A 
ATOM     14  N   UNL     1      17.273  39.010  55.072  0.00  0.00    +0.000 NA
ATOM     15  C   UNL     1      16.681  39.658  56.030  0.00  0.00    +0.000 A 
ATOM     16  C   UNL     1      16.742  39.100  57.424  0.00  0.00    +0.000 A 
ATOM     17  O   UNL     1      17.176  37.974  57.620  0.00  0.00    +0.000 OA
ENDROOT
BRANCH   7  18
ATOM     18  C   UNL     1      14.951  42.516  54.212  0.00  0.00    +0.000 A 
ATOM     19  C   UNL     1      13.557  42.360  54.316  0.00  0.00    +0.000 A 
ATOM     20  C   UNL     1      12.697  43.431  54.059  0.00  0.00    +0.000 A 
ATOM     21  C   UNL     1      13.223  44.670  53.700  0.00  0.00    +0.000 A 
ATOM     22 CL   UNL     1      12.165  45.988  53.382  0.00  0.00    +0.000 Cl
ATOM     23  C   UNL     1      14.601  44.847  53.598  0.00  0.00    +0.000 A 
ATOM     24  C   UNL     1      15.460  43.775  53.854  0.00  0.00    +0.000 A 
ENDBRANCH   7  18
TORSDOF 1
ENDMDL
MODEL 2
REMARK VINA RESULT:    -5.593      3.167      5.286
REMARK INTER + INTRA:          -6.360
REMARK INTER:                  -5.936
REMARK INTRA:                  -0.424
REMARK UNBOUND:                -0.440
REMARK  Name = 
REMARK  2 active torsions:
REMARK  status: ('A' for Active; 'I' for Inactive)
REMARK    1  A    between atoms: C_1  and  N_2
REMARK    2  A    between atoms: N_7  and  C_8
REMARK                            x       y       z     vdW  Elec       q    Type
REMARK                         _______ _______ _______ _____ _____    ______ ____
ROOT
ATOM      1  C   UNL     1      15.475  37.824  48.528  0.00  0.00    +0.000 C 
ATOM      2  N   UNL     1      15.552  38.483  49.817  0.00  0.00    +0.000 N 
ATOM      3  C   UNL     1      15.095  39.790  49.902  0.00  0.00    +0.000 A 
ATOM      4  O   UNL     1      14.637  40.352  48.910  0.00  0.00    +0.000 OA
ATOM      5  N   UNL     1      15.162  40.466  51.086  0.00  0.00    +0.000 NA
ATOM      6  C   UNL     1      15.678  39.988  52.175  0.00  0.00    +0.000 A 
ATOM      7  N   UNL     1      15.747  40.690  53.390  0.00  0.00    +0.000 N 
ATOM      8  C   UNL     1      16.255  40.004  54.541  0.00  0.00    +0.000 A 
ATOM      9  C   UNL     1      16.242  40.573  55.829  0.00  0.00    +0.000 A 
ATOM     10  C   UNL     1      16.741  39.876  56.934  0.00  0.00    +0.000 A 
ATOM     11  C   UNL     1      17.251  38.594  56.774  0.00  0.00    +0.000 A 
ATOM     12  C   UNL     1      17.250  38.005  55.511  0.00  0.00    +0.000 A 
ATOM     13  C   UNL     1      16.750  38.692  54.399  0.00  0.00    +0.000 A 
ATOM     14  N   UNL     1      16.761  38.016  53.173  0.00  0.00    +0.000 NA
ATOM     15  C   UNL     1      16.263  38.601  52.126  0.00  0.00    +0.000 A 
ATOM     16  C   UNL     1      16.270  37.866  50.816  0.00  0.00    +0.000 A 
ATOM     17  O   UNL     1      16.894  36.820  50.697  0.00  0.00    +0.000 OA
ENDROOT
BRANCH   7  18
ATOM     18  C   UNL     1      15.392  42.077  53.400  0.00  0.00    +0.000 A 
ATOM     19  C   UNL     1      16.324  43.056  53.013  0.00  0.00    +0.000 A 
ATOM     20  C   UNL     1      15.982  44.411  53.021  0.00  0.00    +0.000 A 
ATOM     21  C   UNL     1      14.702  44.800  53.411  0.00  0.00    +0.000 A 
ATOM     22 CL   UNL     1      14.282  46.468  53.422  0.00  0.00    +0.000 Cl
ATOM     23  C   UNL     1      13.762  43.845  53.790  0.00  0.00    +0.000 A 
ATOM     24  C   UNL     1      14.105  42.491  53.784  0.00  0.00    +0.000 A 
ENDBRANCH   7  18
TORSDOF 1
ENDMDL
MODEL 3
REMARK VINA RESULT:    -5.441      9.159     12.385
REMARK INTER + INTRA:          -6.199
REMARK INTER:                  -5.759
REMARK INTRA:                  -0.440
REMARK UNBOUND:                -0.440
REMARK  Name = 
REMARK  2 active torsions:
REMARK  status: ('A' for Active; 'I' for Inactive)
REMARK    1  A    between atoms: C_1  and  N_2
REMARK    2  A    between atoms: N_7  and  C_8
REMARK                            x       y       z     vdW  Elec       q    Type
REMARK                         _______ _______ _______ _____ _____    ______ ____
ROOT
ATOM      1  C   UNL     1      19.021  35.855  49.319  0.00  0.00    +0.000 C 
ATOM      2  N   UNL     1      20.057  35.371  50.209  0.00  0.00    +0.000 N 
ATOM      3  C   UNL     1      21.207  34.848  49.637  0.00  0.00    +0.000 A 
ATOM      4  O   UNL     1      21.330  34.811  48.415  0.00  0.00    +0.000 OA
ATOM      5  N   UNL     1      22.206  34.358  50.427  0.00  0.00    +0.000 NA
ATOM      6  C   UNL     1      22.154  34.297  51.722  0.00  0.00    +0.000 A 
ATOM      7  N   UNL     1      23.186  33.789  52.530  0.00  0.00    +0.000 N 
ATOM      8  C   UNL     1      23.034  33.872  53.952  0.00  0.00    +0.000 A 
ATOM      9  C   UNL     1      24.063  33.515  54.846  0.00  0.00    +0.000 A 
ATOM     10  C   UNL     1      23.886  33.612  56.229  0.00  0.00    +0.000 A 
ATOM     11  C   UNL     1      22.684  34.078  56.746  0.00  0.00    +0.000 A 
ATOM     12  C   UNL     1      21.664  34.460  55.877  0.00  0.00    +0.000 A 
ATOM     13  C   UNL     1      21.830  34.370  54.490  0.00  0.00    +0.000 A 
ATOM     14  N   UNL     1      20.766  34.801  53.690  0.00  0.00    +0.000 NA
ATOM     15  C   UNL     1      20.898  34.778  52.398  0.00  0.00    +0.000 A 
ATOM     16  C   UNL     1      19.754  35.251  51.546  0.00  0.00    +0.000 A 
ATOM     17  O   UNL     1      18.661  35.476  52.048  0.00  0.00    +0.000 OA
ENDROOT
BRANCH   7  18
ATOM     18  C   UNL     1      24.291  33.136  51.897  0.00  0.00    +0.000 A 
ATOM     19  C   UNL     1      25.414  33.874  51.482  0.00  0.00    +0.000 A 
ATOM     20  C   UNL     1      26.496  33.241  50.863  0.00  0.00    +0.000 A 
ATOM     21  C   UNL     1      26.467  31.863  50.658  0.00  0.00    +0.000 A 
ATOM     22 CL   UNL     1      27.798  31.085  49.896  0.00  0.00    +0.000 Cl
ATOM     23  C   UNL     1      25.368  31.114  51.069  0.00  0.00    +0.000 A 
ATOM     24  C   UNL     1      24.286  31.747  51.686  0.00  0.00    +0.000 A 
ENDBRANCH   7  18
TORSDOF 1
ENDMDL
