MODEL 1
REMARK VINA RESULT:    -6.880      0.000      0.000
REMARK INTER + INTRA:         -10.859
REMARK INTER:                 -10.553
REMARK INTRA:                  -0.305
REMARK UNBOUND:                -1.163
REMARK  Name = 
REMARK  7 active torsions:
REMARK  status: ('A' for Active; 'I' for Inactive)
REMARK    1  A    between atoms: C_7  and  N_8
REMARK    2  A    between atoms: N_8  and  C_9
REMARK    3  A    between atoms: C_13  and  C_14
REMARK    4  A    between atoms: N_16  and  C_17
REMARK    5  A    between atoms: C_17  and  C_18
REMARK    6  A    between atoms: C_21  and  O_22
REMARK    7  A    between atoms: O_22  and  C_23
REMARK                            x       y       z     vdW  Elec       q    Type
REMARK                         _______ _______ _______ _____ _____    ______ ____
ROOT
ATOM      1  C   UNL     1      15.791  39.090  49.046  0.00  0.00    +0.000 C 
ATOM      2  O   UNL     1      14.626  38.710  49.078  0.00  0.00    +0.000 OA
ATOM      3  N   UNL     1      16.430  39.538  47.910  0.00  0.00    +0.000 N 
ATOM      4  H   UNL     1      17.429  39.692  48.002  0.00  0.00    +0.000 HD
ENDROOT
BRANCH   1   9
ATOM      5  C   UNL     1      17.492  40.252  52.079  0.00  0.00    +0.000 A 
ATOM      6  C   UNL     1      18.245  39.139  52.463  0.00  0.00    +0.000 A 
ATOM      7  C   UNL     1      18.204  37.974  51.695  0.00  0.00    +0.000 A 
ATOM      8  C   UNL     1      17.397  37.937  50.567  0.00  0.00    +0.000 A 
ATOM      9  C   UNL     1      16.655  39.070  50.271  0.00  0.00    +0.000 A 
ATOM     10  N   UNL     1      16.660  40.209  51.021  0.00  0.00    +0.000 NA
BRANCH   5  11
ATOM     11  N   UNL     1      17.425  41.408  52.885  0.00  0.00    +0.000 N 
ATOM     12  H   UNL     1      18.183  42.017  52.583  0.00  0.00    +0.000 HD
BRANCH  11  19
ATOM     13  O   UNL     1      14.882  45.411  53.178  0.00  0.00    +0.000 OA
ATOM     14  C   UNL     1      14.937  44.202  53.360  0.00  0.00    +0.000 C 
ATOM     15  C   UNL     1      13.802  43.465  53.932  0.00  0.00    +0.000 C 
ATOM     16  C   UNL     1      13.871  42.147  54.125  0.00  0.00    +0.000 C 
ATOM     17  C   UNL     1      15.075  41.364  53.771  0.00  0.00    +0.000 C 
ATOM     18  O   UNL     1      15.061  40.153  53.955  0.00  0.00    +0.000 OA
ATOM     19  C   UNL     1      16.256  42.107  53.181  0.00  0.00    +0.000 C 
ATOM     20  C   UNL     1      16.149  43.436  53.019  0.00  0.00    +0.000 C 
ENDBRANCH  11  19
ENDBRANCH   5  11
ENDBRANCH   1   9
BRANCH   3  21
ATOM     21  C   UNL     1      15.858  39.402  46.593  0.00  0.00    +0.000 C 
BRANCH  21  22
ATOM     22  C   UNL     1      15.619  40.754  45.967  0.00  0.00    +0.000 A 
ATOM     23  C   UNL     1      14.996  41.775  46.700  0.00  0.00    +0.000 A 
ATOM     24  C   UNL     1      14.742  43.016  46.117  0.00  0.00    +0.000 A 
ATOM     25  C   UNL     1      15.128  43.253  44.797  0.00  0.00    +0.000 A 
ATOM     26  C   UNL     1      15.733  42.241  44.049  0.00  0.00    +0.000 A 
ATOM     27  C   UNL     1      15.979  40.997  44.635  0.00  0.00    +0.000 A 
BRANCH  25  28
ATOM     28  O   UNL     1      14.814  44.482  44.263  0.00  0.00    +0.000 OA
BRANCH  28  29
ATOM     29  C   UNL     1      13.955  45.277  44.987  0.00  0.00    +0.000 A 
ATOM     30  C   UNL     1      12.695  44.837  45.395  0.00  0.00    +0.000 A 
ATOM     31  C   UNL     1      11.852  45.706  46.092  0.00  0.00    +0.000 A 
ATOM     32  C   UNL     1      12.266  47.010  46.367  0.00  0.00    +0.000 A 
ATOM     33  C   UNL     1      13.517  47.452  45.939  0.00  0.00    +0.000 A 
ATOM     34  C   UNL     1      14.359  46.588  45.240  0.00  0.00    +0.000 A 
ENDBRANCH  28  29
ENDBRANCH  25  28
ENDBRANCH  21  22
ENDBRANCH   3  21
TORSDOF 7
ENDMDL
MODEL 2
REMARK VINA RESULT:    -6.869      1.654      2.220
REMARK INTER + INTRA:         -10.843
REMARK INTER:                  -9.949
REMARK INTRA:                  -0.894
REMARK UNBOUND:                -1.163
REMARK  Name = 
REMARK  7 active torsions:
REMARK  status: ('A' for Active; 'I' for Inactive)
REMARK    1  A    between atoms: C_7  and  N_8
REMARK    2  A    between atoms: N_8  and  C_9
REMARK    3  A    between atoms: C_13  and  C_14
REMARK    4  A    between atoms: N_16  and  C_17
REMARK    5  A    between atoms: C_17  and  C_18
REMARK    6  A    between atoms: C_21  and  O_22
REMARK    7  A    between atoms: O_22  and  C_23
REMARK                            x       y       z     vdW  Elec       q    Type
REMARK                         _______ _______ _______ _____ _____    ______ ____
ROOT
ATOM      1  C   UNL     1      15.459  39.289  49.438  0.00  0.00    +0.000 C 
ATOM      2  O   UNL     1      14.289  38.971  49.611  0.00  0.00    +0.000 OA
ATOM      3  N   UNL     1      15.996  39.641  48.218  0.00  0.00    +0.000 N 
ATOM      4  H   UNL     1      17.005  39.749  48.199  0.00  0.00    +0.000 HD
ENDROOT
BRANCH   1   9
ATOM      5  C   UNL     1      17.319  40.440  52.382  0.00  0.00    +0.000 A 
ATOM      6  C   UNL     1      18.238  39.410  52.595  0.00  0.00    +0.000 A 
ATOM      7  C   UNL     1      18.258  38.308  51.739  0.00  0.00    +0.000 A 
ATOM      8  C   UNL     1      17.347  38.248  50.695  0.00  0.00    +0.000 A 
ATOM      9  C   UNL     1      16.445  39.293  50.568  0.00  0.00    +0.000 A 
ATOM     10  N   UNL     1      16.391  40.367  51.408  0.00  0.00    +0.000 NA
BRANCH   5  11
ATOM     11  N   UNL     1      17.197  41.517  53.285  0.00  0.00    +0.000 N 
ATOM     12  H   UNL     1      18.063  42.050  53.220  0.00  0.00    +0.000 HD
BRANCH  11  19
ATOM     13  O   UNL     1      14.991  45.715  53.012  0.00  0.00    +0.000 OA
ATOM     14  C   UNL     1      14.926  44.527  53.296  0.00  0.00    +0.000 C 
ATOM     15  C   UNL     1      13.687  43.934  53.817  0.00  0.00    +0.000 C 
ATOM     16  C   UNL     1      13.626  42.637  54.123  0.00  0.00    +0.000 C 
ATOM     17  C   UNL     1      14.785  41.735  53.948  0.00  0.00    +0.000 C 
ATOM     18  O   UNL     1      14.652  40.550  54.228  0.00  0.00    +0.000 OA
ATOM     19  C   UNL     1      16.071  42.328  53.413  0.00  0.00    +0.000 C 
ATOM     20  C   UNL     1      16.093  43.642  53.133  0.00  0.00    +0.000 C 
ENDBRANCH  11  19
ENDBRANCH   5  11
ENDBRANCH   1   9
BRANCH   3  21
ATOM     21  C   UNL     1      15.284  39.461  46.977  0.00  0.00    +0.000 C 
BRANCH  21  22
ATOM     22  C   UNL     1      15.395  40.691  46.110  0.00  0.00    +0.000 A 
ATOM     23  C   UNL     1      14.939  41.933  46.578  0.00  0.00    +0.000 A 
ATOM     24  C   UNL     1      15.007  43.067  45.769  0.00  0.00    +0.000 A 
ATOM     25  C   UNL     1      15.552  42.972  44.488  0.00  0.00    +0.000 A 
ATOM     26  C   UNL     1      15.994  41.740  44.001  0.00  0.00    +0.000 A 
ATOM     27  C   UNL     1      15.916  40.605  44.812  0.00  0.00    +0.000 A 
BRANCH  25  28
ATOM     28  O   UNL     1      15.556  44.116  43.722  0.00  0.00    +0.000 OA
BRANCH  28  29
ATOM     29  C   UNL     1      14.706  44.145  42.640  0.00  0.00    +0.000 A 
ATOM     30  C   UNL     1      13.337  44.382  42.770  0.00  0.00    +0.000 A 
ATOM     31  C   UNL     1      12.521  44.358  41.638  0.00  0.00    +0.000 A 
ATOM     32  C   UNL     1      13.072  44.086  40.384  0.00  0.00    +0.000 A 
ATOM     33  C   UNL     1      14.436  43.829  40.262  0.00  0.00    +0.000 A 
ATOM     34  C   UNL     1      15.254  43.849  41.392  0.00  0.00    +0.000 A 
ENDBRANCH  28  29
ENDBRANCH  25  28
ENDBRANCH  21  22
ENDBRANCH   3  21
TORSDOF 7
ENDMDL
MODEL 3
REMARK VINA RESULT:    -6.745      4.319      9.068
REMARK INTER + INTRA:         -10.669
REMARK INTER:                  -9.506
REMARK INTRA:                  -1.163
REMARK UNBOUND:                -1.163
REMARK  Name = 
REMARK  7 active torsions:
REMARK  status: ('A' for Active; 'I' for Inactive)
REMARK    1  A    between atoms: C_7  and  N_8
REMARK    2  A    between atoms: N_8  and  C_9
REMARK    3  A    between atoms: C_13  and  C_14
REMARK    4  A    between atoms: N_16  and  C_17
REMARK    5  A    between atoms: C_17  and  C_18
REMARK    6  A    between atoms: C_21  and  O_22
REMARK    7  A    between atoms: O_22  and  C_23
REMARK                            x       y       z     vdW  Elec       q    Type
REMARK                         _______ _______ _______ _____ _____    ______ ____
ROOT
ATOM      1  C   UNL     1      16.522  40.725  42.749  0.00  0.00    +0.000 C 
ATOM      2  O   UNL     1      17.174  40.400  41.765  0.00  0.00    +0.000 OA
ATOM      3  N   UNL     1      16.389  39.952  43.883  0.00  0.00    +0.000 N 
ATOM      4  H   UNL     1      15.712  40.285  44.562  0.00  0.00    +0.000 HD
ENDROOT
BRANCH   1   9
ATOM      5  C   UNL     1      14.920  43.733  44.104  0.00  0.00    +0.000 A 
ATOM      6  C   UNL     1      14.353  44.324  42.972  0.00  0.00    +0.000 A 
ATOM      7  C   UNL     1      14.487  43.709  41.726  0.00  0.00    +0.000 A 
ATOM      8  C   UNL     1      15.203  42.524  41.632  0.00  0.00    +0.000 A 
ATOM      9  C   UNL     1      15.765  42.018  42.794  0.00  0.00    +0.000 A 
ATOM     10  N   UNL     1      15.667  42.615  44.017  0.00  0.00    +0.000 NA
BRANCH   5  11
ATOM     11  N   UNL     1      14.897  44.376  45.359  0.00  0.00    +0.000 N 
ATOM     12  H   UNL     1      15.796  44.844  45.463  0.00  0.00    +0.000 HD
BRANCH  11  19
ATOM     13  O   UNL     1      10.624  44.796  47.393  0.00  0.00    +0.000 OA
ATOM     14  C   UNL     1      11.589  45.351  46.885  0.00  0.00    +0.000 C 
ATOM     15  C   UNL     1      11.637  46.811  46.734  0.00  0.00    +0.000 C 
ATOM     16  C   UNL     1      12.693  47.407  46.180  0.00  0.00    +0.000 C 
ATOM     17  C   UNL     1      13.865  46.640  45.701  0.00  0.00    +0.000 C 
ATOM     18  O   UNL     1      14.810  47.254  45.223  0.00  0.00    +0.000 OA
ATOM     19  C   UNL     1      13.834  45.133  45.848  0.00  0.00    +0.000 C 
ATOM     20  C   UNL     1      12.742  44.574  46.396  0.00  0.00    +0.000 C 
ENDBRANCH  11  19
ENDBRANCH   5  11
ENDBRANCH   1   9
BRANCH   3  21
ATOM     21  C   UNL     1      16.829  38.580  43.941  0.00  0.00    +0.000 C 
BRANCH  21  22
ATOM     22  C   UNL     1      16.824  38.074  45.363  0.00  0.00    +0.000 A 
ATOM     23  C   UNL     1      17.271  38.895  46.409  0.00  0.00    +0.000 A 
ATOM     24  C   UNL     1      17.302  38.422  47.721  0.00  0.00    +0.000 A 
ATOM     25  C   UNL     1      16.866  37.125  48.001  0.00  0.00    +0.000 A 
ATOM     26  C   UNL     1      16.435  36.291  46.968  0.00  0.00    +0.000 A 
ATOM     27  C   UNL     1      16.414  36.766  45.654  0.00  0.00    +0.000 A 
BRANCH  25  28
ATOM     28  O   UNL     1      16.958  36.701  49.307  0.00  0.00    +0.000 OA
BRANCH  28  29
ATOM     29  C   UNL     1      18.222  36.573  49.834  0.00  0.00    +0.000 A 
ATOM     30  C   UNL     1      19.202  35.775  49.243  0.00  0.00    +0.000 A 
ATOM     31  C   UNL     1      20.454  35.654  49.850  0.00  0.00    +0.000 A 
ATOM     32  C   UNL     1      20.716  36.317  51.049  0.00  0.00    +0.000 A 
ATOM     33  C   UNL     1      19.727  37.095  51.648  0.00  0.00    +0.000 A 
ATOM     34  C   UNL     1      18.475  37.217  51.046  0.00  0.00    +0.000 A 
ENDBRANCH  28  29
ENDBRANCH  25  28
ENDBRANCH  21  22
ENDBRANCH   3  21
TORSDOF 7
ENDMDL
