MODEL 1
REMARK VINA RESULT:    -6.344      0.000      0.000
REMARK INTER + INTRA:          -7.853
REMARK INTER:                  -7.335
REMARK INTRA:                  -0.518
REMARK UNBOUND:                -0.582
REMARK  Name = 
REMARK  3 active torsions:
REMARK  status: ('A' for Active; 'I' for Inactive)
REMARK    1  A    between atoms: O_1  and  C_2
REMARK    2  A    between atoms: C_12  and  N_13
REMARK    3  A    between atoms: N_16  and  C_17
REMARK                            x       y       z     vdW  Elec       q    Type
REMARK                         _______ _______ _______ _____ _____    ______ ____
ROOT
ATOM      1  N   UNL     1      18.531  36.925  52.266  0.00  0.00    +0.000 NA
ATOM      2  C   UNL     1      19.445  36.690  51.129  0.00  0.00    +0.000 C 
ATOM      3  C   UNL     1      20.779  36.030  51.560  0.00  0.00    +0.000 C 
ATOM      4  N   UNL     1      20.560  34.742  52.260  0.00  0.00    +0.000 N 
ATOM      5  C   UNL     1      19.168  34.470  52.648  0.00  0.00    +0.000 C 
ATOM      6  C   UNL     1      18.448  35.741  53.155  0.00  0.00    +0.000 C 
ENDROOT
BRANCH   1  17
ATOM      7  C   UNL     1      16.304  37.807  53.152  0.00  0.00    +0.000 C 
ATOM      8  C   UNL     1      16.268  39.304  53.169  0.00  0.00    +0.000 A 
ATOM      9  C   UNL     1      15.770  40.126  54.173  0.00  0.00    +0.000 A 
ATOM     10  C   UNL     1      15.825  41.503  53.980  0.00  0.00    +0.000 A 
ATOM     11  F   UNL     1      15.356  42.316  54.937  0.00  0.00    +0.000 F 
ATOM     12  C   UNL     1      16.360  42.043  52.806  0.00  0.00    +0.000 A 
ATOM     13  F   UNL     1      16.400  43.373  52.640  0.00  0.00    +0.000 F 
ATOM     14  C   UNL     1      16.849  41.218  51.796  0.00  0.00    +0.000 A 
ATOM     15  C   UNL     1      16.801  39.846  51.994  0.00  0.00    +0.000 A 
ATOM     16  C   UNL     1      17.227  38.774  51.041  0.00  0.00    +0.000 C 
ATOM     17  C   UNL     1      17.205  37.482  51.911  0.00  0.00    +0.000 C 
BRANCH   7  18
ATOM     18  O   UNL     1      14.980  37.321  52.971  0.00  0.00    +0.000 OA
ATOM     19  H   UNL     1      14.622  37.785  52.195  0.00  0.00    +0.000 HD
ENDBRANCH   7  18
ENDBRANCH   1  17
BRANCH   4  20
ATOM     20  C   UNL     1      21.624  34.366  53.099  0.00  0.00    +0.000 A 
ATOM     21  C   UNL     1      21.657  34.721  54.461  0.00  0.00    +0.000 A 
ATOM     22  C   UNL     1      22.717  34.354  55.298  0.00  0.00    +0.000 A 
ATOM     23  C   UNL     1      23.784  33.624  54.793  0.00  0.00    +0.000 A 
ATOM     24  C   UNL     1      23.794  33.260  53.452  0.00  0.00    +0.000 A 
ATOM     25  C   UNL     1      22.718  33.605  52.612  0.00  0.00    +0.000 A 
ATOM     26  O   UNL     1      22.683  33.197  51.294  0.00  0.00    +0.000 OA
ATOM     27  C   UNL     1      23.595  32.128  51.038  0.00  0.00    +0.000 C 
ATOM     28  C   UNL     1      24.958  32.462  51.610  0.00  0.00    +0.000 C 
ATOM     29  O   UNL     1      24.892  32.548  53.035  0.00  0.00    +0.000 OA
ENDBRANCH   4  20
TORSDOF 3
ENDMDL
MODEL 2
REMARK VINA RESULT:    -6.235     12.489     16.115
REMARK INTER + INTRA:          -7.728
REMARK INTER:                  -7.150
REMARK INTRA:                  -0.579
REMARK UNBOUND:                -0.582
REMARK  Name = 
REMARK  3 active torsions:
REMARK  status: ('A' for Active; 'I' for Inactive)
REMARK    1  A    between atoms: O_1  and  C_2
REMARK    2  A    between atoms: C_12  and  N_13
REMARK    3  A    between atoms: N_16  and  C_17
REMARK                            x       y       z     vdW  Elec       q    Type
REMARK                         _______ _______ _______ _____ _____    ______ ____
ROOT
ATOM      1  N   UNL     1      12.560  47.123  45.160  0.00  0.00    +0.000 NA
ATOM      2  C   UNL     1      12.531  47.901  43.904  0.00  0.00    +0.000 C 
ATOM      3  C   UNL     1      13.104  49.331  44.073  0.00  0.00    +0.000 C 
ATOM      4  N   UNL     1      14.495  49.315  44.583  0.00  0.00    +0.000 N 
ATOM      5  C   UNL     1      14.964  48.013  45.078  0.00  0.00    +0.000 C 
ATOM      6  C   UNL     1      13.862  47.257  45.856  0.00  0.00    +0.000 C 
ENDROOT
BRANCH   1  17
ATOM      7  C   UNL     1      12.273  45.109  43.615  0.00  0.00    +0.000 C 
ATOM      8  C   UNL     1      13.375  44.111  43.797  0.00  0.00    +0.000 A 
ATOM      9  C   UNL     1      14.061  43.421  42.805  0.00  0.00    +0.000 A 
ATOM     10  C   UNL     1      15.050  42.523  43.196  0.00  0.00    +0.000 A 
ATOM     11  F   UNL     1      15.729  41.850  42.256  0.00  0.00    +0.000 F 
ATOM     12  C   UNL     1      15.338  42.316  44.548  0.00  0.00    +0.000 A 
ATOM     13  F   UNL     1      16.293  41.443  44.902  0.00  0.00    +0.000 F 
ATOM     14  C   UNL     1      14.642  43.000  45.542  0.00  0.00    +0.000 A 
ATOM     15  C   UNL     1      13.663  43.901  45.150  0.00  0.00    +0.000 A 
ATOM     16  C   UNL     1      12.767  44.712  46.032  0.00  0.00    +0.000 C 
ATOM     17  C   UNL     1      12.100  45.719  45.049  0.00  0.00    +0.000 C 
BRANCH   7  18
ATOM     18  O   UNL     1      11.099  44.423  43.200  0.00  0.00    +0.000 OA
ATOM     19  H   UNL     1      10.429  44.588  43.887  0.00  0.00    +0.000 HD
ENDBRANCH   7  18
ENDBRANCH   1  17
BRANCH   4  20
ATOM     20  C   UNL     1      14.875  50.507  45.226  0.00  0.00    +0.000 A 
ATOM     21  C   UNL     1      14.024  51.163  46.136  0.00  0.00    +0.000 A 
ATOM     22  C   UNL     1      14.396  52.351  46.774  0.00  0.00    +0.000 A 
ATOM     23  C   UNL     1      15.633  52.926  46.514  0.00  0.00    +0.000 A 
ATOM     24  C   UNL     1      16.499  52.313  45.616  0.00  0.00    +0.000 A 
ATOM     25  C   UNL     1      16.140  51.104  44.991  0.00  0.00    +0.000 A 
ATOM     26  O   UNL     1      17.014  50.451  44.146  0.00  0.00    +0.000 OA
ATOM     27  C   UNL     1      18.358  50.908  44.305  0.00  0.00    +0.000 C 
ATOM     28  C   UNL     1      18.396  52.423  44.283  0.00  0.00    +0.000 C 
ATOM     29  O   UNL     1      17.697  52.955  45.411  0.00  0.00    +0.000 OA
ENDBRANCH   4  20
TORSDOF 3
ENDMDL
MODEL 3
REMARK VINA RESULT:    -5.943      4.204      9.907
REMARK INTER + INTRA:          -7.394
REMARK INTER:                  -6.812
REMARK INTRA:                  -0.582
REMARK UNBOUND:                -0.582
REMARK  Name = 
REMARK  3 active torsions:
REMARK  status: ('A' for Active; 'I' for Inactive)
REMARK    1  A    between atoms: O_1  and  C_2
REMARK    2  A    between atoms: C_12  and  N_13
REMARK    3  A    between atoms: N_16  and  C_17
REMARK                            x       y       z     vdW  Elec       q    Type
REMARK                         _______ _______ _______ _____ _____    ______ ____
ROOT
ATOM      1  N   UNL     1      16.673  38.179  52.000  0.00  0.00    +0.000 NA
ATOM      2  C   UNL     1      15.980  38.136  53.303  0.00  0.00    +0.000 C 
ATOM      3  C   UNL     1      15.616  39.545  53.835  0.00  0.00    +0.000 C 
ATOM      4  N   UNL     1      14.771  40.298  52.878  0.00  0.00    +0.000 N 
ATOM      5  C   UNL     1      14.665  39.705  51.537  0.00  0.00    +0.000 C 
ATOM      6  C   UNL     1      16.010  39.111  51.057  0.00  0.00    +0.000 C 
ENDROOT
BRANCH   1  17
ATOM      7  C   UNL     1      18.055  36.920  50.259  0.00  0.00    +0.000 C 
ATOM      8  C   UNL     1      19.245  36.251  50.875  0.00  0.00    +0.000 A 
ATOM      9  C   UNL     1      20.540  36.202  50.373  0.00  0.00    +0.000 A 
ATOM     10  C   UNL     1      21.501  35.512  51.106  0.00  0.00    +0.000 A 
ATOM     11  F   UNL     1      22.758  35.456  50.645  0.00  0.00    +0.000 F 
ATOM     12  C   UNL     1      21.170  34.879  52.309  0.00  0.00    +0.000 A 
ATOM     13  F   UNL     1      22.111  34.218  52.997  0.00  0.00    +0.000 F 
ATOM     14  C   UNL     1      19.869  34.920  52.805  0.00  0.00    +0.000 A 
ATOM     15  C   UNL     1      18.915  35.617  52.077  0.00  0.00    +0.000 A 
ATOM     16  C   UNL     1      17.459  35.761  52.390  0.00  0.00    +0.000 C 
ATOM     17  C   UNL     1      16.979  36.860  51.397  0.00  0.00    +0.000 C 
BRANCH   7  18
ATOM     18  O   UNL     1      17.647  36.170  49.122  0.00  0.00    +0.000 OA
ATOM     19  H   UNL     1      18.453  35.991  48.608  0.00  0.00    +0.000 HD
ENDBRANCH   7  18
ENDBRANCH   1  17
BRANCH   4  20
ATOM     20  C   UNL     1      14.836  41.693  53.043  0.00  0.00    +0.000 A 
ATOM     21  C   UNL     1      16.032  42.409  52.842  0.00  0.00    +0.000 A 
ATOM     22  C   UNL     1      16.104  43.796  53.009  0.00  0.00    +0.000 A 
ATOM     23  C   UNL     1      14.978  44.512  53.393  0.00  0.00    +0.000 A 
ATOM     24  C   UNL     1      13.779  43.841  53.609  0.00  0.00    +0.000 A 
ATOM     25  C   UNL     1      13.696  42.449  53.417  0.00  0.00    +0.000 A 
ATOM     26  O   UNL     1      12.499  41.779  53.566  0.00  0.00    +0.000 OA
ATOM     27  C   UNL     1      11.379  42.665  53.534  0.00  0.00    +0.000 C 
ATOM     28  C   UNL     1      11.621  43.839  54.463  0.00  0.00    +0.000 C 
ATOM     29  O   UNL     1      12.719  44.626  53.994  0.00  0.00    +0.000 OA
ENDBRANCH   4  20
TORSDOF 3
ENDMDL
