MODEL 1
REMARK VINA RESULT:    -7.005      0.000      0.000
REMARK INTER + INTRA:          -9.257
REMARK INTER:                  -8.408
REMARK INTRA:                  -0.849
REMARK UNBOUND:                -1.024
REMARK  Name = 
REMARK  4 active torsions:
REMARK  status: ('A' for Active; 'I' for Inactive)
REMARK    1  A    between atoms: C_1  and  C_2
REMARK    2  A    between atoms: C_2  and  C_3
REMARK    3  A    between atoms: C_3  and  C_4
REMARK    4  A    between atoms: C_16  and  C_17
REMARK                            x       y       z     vdW  Elec       q    Type
REMARK                         _______ _______ _______ _____ _____    ______ ____
ROOT
ATOM      1  C   UNL     1      13.188  43.670  43.556  0.00  0.00    +0.000 C 
ATOM      2  C   UNL     1      13.494  43.919  45.034  0.00  0.00    +0.000 C 
ATOM      3  C   UNL     1      12.348  43.343  45.913  0.00  0.00    +0.000 C 
ATOM      4  O   UNL     1      11.978  42.184  45.996  0.00  0.00    +0.000 OA
ATOM      5  N   UNL     1      11.780  44.398  46.617  0.00  0.00    +0.000 N 
ATOM      6  C   UNL     1      12.365  45.606  46.288  0.00  0.00    +0.000 A 
ATOM      7  C   UNL     1      12.031  46.853  46.768  0.00  0.00    +0.000 A 
ATOM      8  C   UNL     1      12.755  47.944  46.277  0.00  0.00    +0.000 A 
ATOM      9  C   UNL     1      13.786  47.775  45.324  0.00  0.00    +0.000 A 
ATOM     10  C   UNL     1      14.093  46.484  44.857  0.00  0.00    +0.000 A 
ATOM     11  C   UNL     1      13.375  45.405  45.352  0.00  0.00    +0.000 A 
ATOM     12  H   UNL     1      11.004  44.269  47.251  0.00  0.00    +0.000 HD
ENDROOT
BRANCH   9  13
ATOM     13  C   UNL     1      14.530  48.940  44.821  0.00  0.00    +0.000 A 
ATOM     14  C   UNL     1      15.872  49.086  45.190  0.00  0.00    +0.000 A 
ATOM     15  C   UNL     1      16.574  50.179  44.724  0.00  0.00    +0.000 A 
ATOM     16  N   UNL     1      16.040  51.125  43.928  0.00  0.00    +0.000 NA
ATOM     17  C   UNL     1      14.748  50.993  43.565  0.00  0.00    +0.000 A 
ATOM     18  C   UNL     1      14.145  51.937  42.745  0.00  0.00    +0.000 A 
ATOM     19  N   UNL     1      12.857  51.918  42.310  0.00  0.00    +0.000 NA
ATOM     20  C   UNL     1      12.110  50.882  42.722  0.00  0.00    +0.000 A 
ATOM     21  C   UNL     1      12.594  49.876  43.542  0.00  0.00    +0.000 A 
ATOM     22  C   UNL     1      13.937  49.919  43.981  0.00  0.00    +0.000 A 
ENDBRANCH   9  13
BRANCH   2  23
ATOM     23  C   UNL     1      14.866  43.395  45.517  0.00  0.00    +0.000 C 
BRANCH  23  24
ATOM     24  C   UNL     1      15.504  42.305  44.686  0.00  0.00    +0.000 A 
ATOM     25  C   UNL     1      15.326  40.955  45.031  0.00  0.00    +0.000 A 
ATOM     26  C   UNL     1      15.914  39.944  44.269  0.00  0.00    +0.000 A 
ATOM     27  C   UNL     1      16.684  40.268  43.155  0.00  0.00    +0.000 A 
ATOM     28  C   UNL     1      16.867  41.604  42.802  0.00  0.00    +0.000 A 
ATOM     29  C   UNL     1      16.278  42.616  43.561  0.00  0.00    +0.000 A 
ENDBRANCH  23  24
ENDBRANCH   2  23
TORSDOF 3
ENDMDL
MODEL 2
REMARK VINA RESULT:    -6.980     11.440     14.532
REMARK INTER + INTRA:          -9.228
REMARK INTER:                  -8.117
REMARK INTRA:                  -1.111
REMARK UNBOUND:                -1.024
REMARK  Name = 
REMARK  4 active torsions:
REMARK  status: ('A' for Active; 'I' for Inactive)
REMARK    1  A    between atoms: C_1  and  C_2
REMARK    2  A    between atoms: C_2  and  C_3
REMARK    3  A    between atoms: C_3  and  C_4
REMARK    4  A    between atoms: C_16  and  C_17
REMARK                            x       y       z     vdW  Elec       q    Type
REMARK                         _______ _______ _______ _____ _____    ______ ____
ROOT
ATOM      1  C   UNL     1      22.527  35.505  50.438  0.00  0.00    +0.000 C 
ATOM      2  C   UNL     1      21.188  34.769  50.356  0.00  0.00    +0.000 C 
ATOM      3  C   UNL     1      20.985  34.200  48.924  0.00  0.00    +0.000 C 
ATOM      4  O   UNL     1      21.677  33.384  48.338  0.00  0.00    +0.000 OA
ATOM      5  N   UNL     1      19.850  34.793  48.385  0.00  0.00    +0.000 N 
ATOM      6  C   UNL     1      19.296  35.715  49.251  0.00  0.00    +0.000 A 
ATOM      7  C   UNL     1      18.189  36.507  49.032  0.00  0.00    +0.000 A 
ATOM      8  C   UNL     1      17.818  37.387  50.053  0.00  0.00    +0.000 A 
ATOM      9  C   UNL     1      18.550  37.464  51.262  0.00  0.00    +0.000 A 
ATOM     10  C   UNL     1      19.676  36.641  51.444  0.00  0.00    +0.000 A 
ATOM     11  C   UNL     1      20.036  35.766  50.429  0.00  0.00    +0.000 A 
ATOM     12  H   UNL     1      19.523  34.585  47.453  0.00  0.00    +0.000 HD
ENDROOT
BRANCH   9  13
ATOM     13  C   UNL     1      18.139  38.401  52.318  0.00  0.00    +0.000 A 
ATOM     14  C   UNL     1      18.120  39.770  52.027  0.00  0.00    +0.000 A 
ATOM     15  C   UNL     1      17.739  40.654  53.016  0.00  0.00    +0.000 A 
ATOM     16  N   UNL     1      17.379  40.276  54.257  0.00  0.00    +0.000 NA
ATOM     17  C   UNL     1      17.392  38.959  54.548  0.00  0.00    +0.000 A 
ATOM     18  C   UNL     1      17.030  38.512  55.811  0.00  0.00    +0.000 A 
ATOM     19  N   UNL     1      17.001  37.218  56.227  0.00  0.00    +0.000 NA
ATOM     20  C   UNL     1      17.360  36.297  55.318  0.00  0.00    +0.000 A 
ATOM     21  C   UNL     1      17.742  36.615  54.025  0.00  0.00    +0.000 A 
ATOM     22  C   UNL     1      17.763  37.969  53.617  0.00  0.00    +0.000 A 
ENDBRANCH   9  13
BRANCH   2  23
ATOM     23  C   UNL     1      20.981  33.662  51.416  0.00  0.00    +0.000 C 
BRANCH  23  24
ATOM     24  C   UNL     1      21.737  33.822  52.715  0.00  0.00    +0.000 A 
ATOM     25  C   UNL     1      21.159  34.516  53.790  0.00  0.00    +0.000 A 
ATOM     26  C   UNL     1      21.852  34.669  54.992  0.00  0.00    +0.000 A 
ATOM     27  C   UNL     1      23.129  34.131  55.134  0.00  0.00    +0.000 A 
ATOM     28  C   UNL     1      23.712  33.439  54.075  0.00  0.00    +0.000 A 
ATOM     29  C   UNL     1      23.020  33.282  52.874  0.00  0.00    +0.000 A 
ENDBRANCH  23  24
ENDBRANCH   2  23
TORSDOF 3
ENDMDL
MODEL 3
REMARK VINA RESULT:    -6.752      0.776      2.105
REMARK INTER + INTRA:          -8.961
REMARK INTER:                  -7.937
REMARK INTRA:                  -1.024
REMARK UNBOUND:                -1.024
REMARK  Name = 
REMARK  4 active torsions:
REMARK  status: ('A' for Active; 'I' for Inactive)
REMARK    1  A    between atoms: C_1  and  C_2
REMARK    2  A    between atoms: C_2  and  C_3
REMARK    3  A    between atoms: C_3  and  C_4
REMARK    4  A    between atoms: C_16  and  C_17
REMARK                            x       y       z     vdW  Elec       q    Type
REMARK                         _______ _______ _______ _____ _____    ______ ____
ROOT
ATOM      1  C   UNL     1      12.598  43.690  44.031  0.00  0.00    +0.000 C 
ATOM      2  C   UNL     1      13.120  44.215  45.370  0.00  0.00    +0.000 C 
ATOM      3  C   UNL     1      12.277  43.621  46.533  0.00  0.00    +0.000 C 
ATOM      4  O   UNL     1      12.142  42.448  46.838  0.00  0.00    +0.000 OA
ATOM      5  N   UNL     1      11.668  44.677  47.200  0.00  0.00    +0.000 N 
ATOM      6  C   UNL     1      11.956  45.891  46.607  0.00  0.00    +0.000 A 
ATOM      7  C   UNL     1      11.498  47.135  46.983  0.00  0.00    +0.000 A 
ATOM      8  C   UNL     1      11.912  48.229  46.218  0.00  0.00    +0.000 A 
ATOM      9  C   UNL     1      12.764  48.067  45.101  0.00  0.00    +0.000 A 
ATOM     10  C   UNL     1      13.207  46.780  44.748  0.00  0.00    +0.000 A 
ATOM     11  C   UNL     1      12.798  45.698  45.514  0.00  0.00    +0.000 A 
ATOM     12  H   UNL     1      11.057  44.535  47.992  0.00  0.00    +0.000 HD
ENDROOT
BRANCH   9  13
ATOM     13  C   UNL     1      13.182  49.236  44.311  0.00  0.00    +0.000 A 
ATOM     14  C   UNL     1      12.233  49.867  43.499  0.00  0.00    +0.000 A 
ATOM     15  C   UNL     1      12.620  50.963  42.754  0.00  0.00    +0.000 A 
ATOM     16  N   UNL     1      13.869  51.466  42.761  0.00  0.00    +0.000 NA
ATOM     17  C   UNL     1      14.791  50.867  43.542  0.00  0.00    +0.000 A 
ATOM     18  C   UNL     1      16.094  51.343  43.589  0.00  0.00    +0.000 A 
ATOM     19  N   UNL     1      17.110  50.831  44.332  0.00  0.00    +0.000 NA
ATOM     20  C   UNL     1      16.809  49.762  45.086  0.00  0.00    +0.000 A 
ATOM     21  C   UNL     1      15.547  49.191  45.126  0.00  0.00    +0.000 A 
ATOM     22  C   UNL     1      14.508  49.744  44.343  0.00  0.00    +0.000 A 
ENDBRANCH   9  13
BRANCH   2  23
ATOM     23  C   UNL     1      14.629  43.988  45.620  0.00  0.00    +0.000 C 
BRANCH  23  24
ATOM     24  C   UNL     1      15.292  42.898  44.808  0.00  0.00    +0.000 A 
ATOM     25  C   UNL     1      15.201  41.557  45.215  0.00  0.00    +0.000 A 
ATOM     26  C   UNL     1      15.813  40.547  44.471  0.00  0.00    +0.000 A 
ATOM     27  C   UNL     1      16.521  40.862  43.315  0.00  0.00    +0.000 A 
ATOM     28  C   UNL     1      16.616  42.189  42.900  0.00  0.00    +0.000 A 
ATOM     29  C   UNL     1      16.004  43.201  43.641  0.00  0.00    +0.000 A 
ENDBRANCH  23  24
ENDBRANCH   2  23
TORSDOF 3
ENDMDL
