MODEL 1
REMARK VINA RESULT:    -6.660      0.000      0.000
REMARK INTER + INTRA:          -9.263
REMARK INTER:                  -8.589
REMARK INTRA:                  -0.674
REMARK UNBOUND:                -0.656
REMARK  Name = 
REMARK  10 active torsions:
REMARK  status: ('A' for Active; 'I' for Inactive)
REMARK    1  A    between atoms: C_1  and  C_2
REMARK    2  A    between atoms: C_4  and  O_5
REMARK    3  A    between atoms: O_5  and  C_6
REMARK    4  A    between atoms: C_9  and  C_10
REMARK    5  A    between atoms: C_18  and  C_19
REMARK    6  A    between atoms: C_20  and  C_21
REMARK    7  A    between atoms: C_27  and  O_28
REMARK    8  A    between atoms: C_30  and  O_31
REMARK    9  A    between atoms: C_34  and  O_35
REMARK   10  A    between atoms: C_36  and  O_37
REMARK                            x       y       z     vdW  Elec       q    Type
REMARK                         _______ _______ _______ _____ _____    ______ ____
ROOT
ATOM      1  C   UNL     1      16.079  37.601  49.309  0.00  0.00    +0.000 C 
ATOM      2  C   UNL     1      17.341  37.601  48.439  0.00  0.00    +0.000 C 
ATOM      3  C   UNL     1      17.279  38.632  47.306  0.00  0.00    +0.000 C 
ATOM      4  C   UNL     1      16.017  38.503  46.407  0.00  0.00    +0.000 C 
ATOM      5  C   UNL     1      16.105  37.155  45.637  0.00  0.00    +0.000 C 
ATOM      6  C   UNL     1      14.767  38.518  47.334  0.00  0.00    +0.000 C 
ATOM      7  C   UNL     1      13.458  38.426  46.531  0.00  0.00    +0.000 C 
ATOM      8  C   UNL     1      13.472  39.273  45.250  0.00  0.00    +0.000 C 
ATOM      9  C   UNL     1      14.534  40.384  45.316  0.00  0.00    +0.000 C 
ATOM     10  C   UNL     1      15.958  39.758  45.425  0.00  0.00    +0.000 C 
ATOM     11  C   UNL     1      16.584  39.479  44.045  0.00  0.00    +0.000 C 
ATOM     12  C   UNL     1      16.527  40.673  43.101  0.00  0.00    +0.000 C 
ATOM     13  C   UNL     1      15.083  41.207  42.864  0.00  0.00    +0.000 C 
ATOM     14  C   UNL     1      14.327  40.196  41.980  0.00  0.00    +0.000 C 
ATOM     15  C   UNL     1      15.199  42.635  42.204  0.00  0.00    +0.000 C 
ATOM     16  C   UNL     1      15.190  43.631  43.396  0.00  0.00    +0.000 C 
ATOM     17  C   UNL     1      15.095  42.794  44.673  0.00  0.00    +0.000 C 
ATOM     18  C   UNL     1      14.407  41.490  44.232  0.00  0.00    +0.000 C 
ATOM     19  C   UNL     1      14.816  37.458  48.450  0.00  0.00    +0.000 C 
ENDROOT
BRANCH  15  20
ATOM     20  C   UNL     1      14.199  43.011  41.131  0.00  0.00    +0.000 C 
ATOM     21  C   UNL     1      14.441  43.005  39.819  0.00  0.00    +0.000 C 
ATOM     22  C   UNL     1      13.222  43.444  39.148  0.00  0.00    +0.000 C 
ATOM     23  O   UNL     1      13.089  43.543  37.942  0.00  0.00    +0.000 OA
ATOM     24  O   UNL     1      12.276  43.721  40.082  0.00  0.00    +0.000 OA
ATOM     25  C   UNL     1      12.811  43.469  41.383  0.00  0.00    +0.000 C 
ENDBRANCH  15  20
BRANCH  16  26
ATOM     26  O   UNL     1      16.381  44.411  43.402  0.00  0.00    +0.000 OA
ATOM     27  H   UNL     1      16.128  45.339  43.249  0.00  0.00    +0.000 HD
ENDBRANCH  16  26
BRANCH  18  28
ATOM     28  O   UNL     1      13.027  41.816  44.040  0.00  0.00    +0.000 OA
ATOM     29  H   UNL     1      12.961  42.782  43.911  0.00  0.00    +0.000 HD
ENDBRANCH  18  28
BRANCH   1  30
ATOM     30  O   UNL     1      16.085  38.822  50.065  0.00  0.00    +0.000 OA
BRANCH  30  34
ATOM     31  C   UNL     1      14.899  41.255  51.748  0.00  0.00    +0.000 C 
ATOM     32  C   UNL     1      15.319  40.263  52.830  0.00  0.00    +0.000 C 
ATOM     33  O   UNL     1      15.415  38.925  52.328  0.00  0.00    +0.000 OA
ATOM     34  C   UNL     1      16.491  38.668  51.422  0.00  0.00    +0.000 C 
ATOM     35  C   UNL     1      17.723  39.543  51.665  0.00  0.00    +0.000 C 
ATOM     36  C   UNL     1      17.832  39.877  53.139  0.00  0.00    +0.000 C 
ATOM     37  C   UNL     1      16.589  40.646  53.623  0.00  0.00    +0.000 C 
BRANCH  36  38
ATOM     38  O   UNL     1      19.005  40.665  53.362  0.00  0.00    +0.000 OA
ATOM     39  H   UNL     1      18.797  41.576  53.079  0.00  0.00    +0.000 HD
ENDBRANCH  36  38
BRANCH  37  40
ATOM     40  O   UNL     1      16.824  42.059  53.609  0.00  0.00    +0.000 OA
ATOM     41  H   UNL     1      17.527  42.214  52.945  0.00  0.00    +0.000 HD
ENDBRANCH  37  40
ENDBRANCH  30  34
ENDBRANCH   1  30
TORSDOF 7
ENDMDL
MODEL 2
REMARK VINA RESULT:    -6.380      1.670      2.436
REMARK INTER + INTRA:          -8.901
REMARK INTER:                  -8.202
REMARK INTRA:                  -0.699
REMARK UNBOUND:                -0.656
REMARK  Name = 
REMARK  10 active torsions:
REMARK  status: ('A' for Active; 'I' for Inactive)
REMARK    1  A    between atoms: C_1  and  C_2
REMARK    2  A    between atoms: C_4  and  O_5
REMARK    3  A    between atoms: O_5  and  C_6
REMARK    4  A    between atoms: C_9  and  C_10
REMARK    5  A    between atoms: C_18  and  C_19
REMARK    6  A    between atoms: C_20  and  C_21
REMARK    7  A    between atoms: C_27  and  O_28
REMARK    8  A    between atoms: C_30  and  O_31
REMARK    9  A    between atoms: C_34  and  O_35
REMARK   10  A    between atoms: C_36  and  O_37
REMARK                            x       y       z     vdW  Elec       q    Type
REMARK                         _______ _______ _______ _____ _____    ______ ____
ROOT
ATOM      1  C   UNL     1      14.425  39.915  50.695  0.00  0.00    +0.000 C 
ATOM      2  C   UNL     1      15.274  38.913  49.904  0.00  0.00    +0.000 C 
ATOM      3  C   UNL     1      15.625  39.414  48.499  0.00  0.00    +0.000 C 
ATOM      4  C   UNL     1      14.390  39.840  47.656  0.00  0.00    +0.000 C 
ATOM      5  C   UNL     1      13.541  38.571  47.364  0.00  0.00    +0.000 C 
ATOM      6  C   UNL     1      13.568  40.861  48.496  0.00  0.00    +0.000 C 
ATOM      7  C   UNL     1      12.334  41.368  47.730  0.00  0.00    +0.000 C 
ATOM      8  C   UNL     1      12.613  41.646  46.246  0.00  0.00    +0.000 C 
ATOM      9  C   UNL     1      14.115  41.850  45.979  0.00  0.00    +0.000 C 
ATOM     10  C   UNL     1      14.901  40.548  46.321  0.00  0.00    +0.000 C 
ATOM     11  C   UNL     1      14.994  39.585  45.122  0.00  0.00    +0.000 C 
ATOM     12  C   UNL     1      15.477  40.256  43.842  0.00  0.00    +0.000 C 
ATOM     13  C   UNL     1      14.599  41.467  43.408  0.00  0.00    +0.000 C 
ATOM     14  C   UNL     1      13.255  40.931  42.877  0.00  0.00    +0.000 C 
ATOM     15  C   UNL     1      15.405  42.284  42.326  0.00  0.00    +0.000 C 
ATOM     16  C   UNL     1      16.187  43.358  43.134  0.00  0.00    +0.000 C 
ATOM     17  C   UNL     1      15.849  43.136  44.610  0.00  0.00    +0.000 C 
ATOM     18  C   UNL     1      14.467  42.460  44.594  0.00  0.00    +0.000 C 
ATOM     19  C   UNL     1      13.187  40.342  49.894  0.00  0.00    +0.000 C 
ENDROOT
BRANCH  15  20
ATOM     20  C   UNL     1      14.642  42.882  41.164  0.00  0.00    +0.000 C 
ATOM     21  C   UNL     1      14.369  44.178  41.009  0.00  0.00    +0.000 C 
ATOM     22  C   UNL     1      13.610  44.320  39.771  0.00  0.00    +0.000 C 
ATOM     23  O   UNL     1      13.207  45.376  39.319  0.00  0.00    +0.000 OA
ATOM     24  O   UNL     1      13.429  43.094  39.217  0.00  0.00    +0.000 OA
ATOM     25  C   UNL     1      14.060  42.109  40.039  0.00  0.00    +0.000 C 
ENDBRANCH  15  20
BRANCH  16  26
ATOM     26  O   UNL     1      17.587  43.219  42.920  0.00  0.00    +0.000 OA
ATOM     27  H   UNL     1      17.773  42.273  42.781  0.00  0.00    +0.000 HD
ENDBRANCH  16  26
BRANCH  18  28
ATOM     28  O   UNL     1      13.525  43.489  44.270  0.00  0.00    +0.000 OA
ATOM     29  H   UNL     1      13.451  43.533  43.298  0.00  0.00    +0.000 HD
ENDBRANCH  18  28
BRANCH   1  30
ATOM     30  O   UNL     1      15.272  41.029  51.018  0.00  0.00    +0.000 OA
BRANCH  30  34
ATOM     31  C   UNL     1      17.980  39.823  52.187  0.00  0.00    +0.000 C 
ATOM     32  C   UNL     1      17.531  40.784  53.286  0.00  0.00    +0.000 C 
ATOM     33  O   UNL     1      16.634  41.786  52.793  0.00  0.00    +0.000 OA
ATOM     34  C   UNL     1      15.334  41.333  52.408  0.00  0.00    +0.000 C 
ATOM     35  C   UNL     1      14.848  40.114  53.195  0.00  0.00    +0.000 C 
ATOM     36  C   UNL     1      15.425  40.144  54.596  0.00  0.00    +0.000 C 
ATOM     37  C   UNL     1      16.964  40.115  54.558  0.00  0.00    +0.000 C 
BRANCH  36  38
ATOM     38  O   UNL     1      14.938  39.021  55.336  0.00  0.00    +0.000 OA
ATOM     39  H   UNL     1      14.188  38.650  54.832  0.00  0.00    +0.000 HD
ENDBRANCH  36  38
BRANCH  37  40
ATOM     40  O   UNL     1      17.455  38.780  54.727  0.00  0.00    +0.000 OA
ATOM     41  H   UNL     1      18.349  38.764  54.326  0.00  0.00    +0.000 HD
ENDBRANCH  37  40
ENDBRANCH  30  34
ENDBRANCH   1  30
TORSDOF 7
ENDMDL
MODEL 3
REMARK VINA RESULT:    -6.332      2.371     10.266
REMARK INTER + INTRA:          -8.838
REMARK INTER:                  -8.182
REMARK INTRA:                  -0.656
REMARK UNBOUND:                -0.656
REMARK  Name = 
REMARK  10 active torsions:
REMARK  status: ('A' for Active; 'I' for Inactive)
REMARK    1  A    between atoms: C_1  and  C_2
REMARK    2  A    between atoms: C_4  and  O_5
REMARK    3  A    between atoms: O_5  and  C_6
REMARK    4  A    between atoms: C_9  and  C_10
REMARK    5  A    between atoms: C_18  and  C_19
REMARK    6  A    between atoms: C_20  and  C_21
REMARK    7  A    between atoms: C_27  and  O_28
REMARK    8  A    between atoms: C_30  and  O_31
REMARK    9  A    between atoms: C_34  and  O_35
REMARK   10  A    between atoms: C_36  and  O_37
REMARK                            x       y       z     vdW  Elec       q    Type
REMARK                         _______ _______ _______ _____ _____    ______ ____
ROOT
ATOM      1  C   UNL     1      12.687  39.892  45.764  0.00  0.00    +0.000 C 
ATOM      2  C   UNL     1      11.784  40.909  46.471  0.00  0.00    +0.000 C 
ATOM      3  C   UNL     1      12.353  41.370  47.817  0.00  0.00    +0.000 C 
ATOM      4  C   UNL     1      12.697  40.205  48.787  0.00  0.00    +0.000 C 
ATOM      5  C   UNL     1      11.369  39.509  49.199  0.00  0.00    +0.000 C 
ATOM      6  C   UNL     1      13.621  39.209  48.028  0.00  0.00    +0.000 C 
ATOM      7  C   UNL     1      14.043  38.029  48.920  0.00  0.00    +0.000 C 
ATOM      8  C   UNL     1      14.386  38.448  50.357  0.00  0.00    +0.000 C 
ATOM      9  C   UNL     1      14.723  39.946  50.447  0.00  0.00    +0.000 C 
ATOM     10  C   UNL     1      13.483  40.799  50.041  0.00  0.00    +0.000 C 
ATOM     11  C   UNL     1      12.566  41.110  51.240  0.00  0.00    +0.000 C 
ATOM     12  C   UNL     1      13.313  41.673  52.443  0.00  0.00    +0.000 C 
ATOM     13  C   UNL     1      14.457  40.748  52.952  0.00  0.00    +0.000 C 
ATOM     14  C   UNL     1      13.825  39.524  53.644  0.00  0.00    +0.000 C 
ATOM     15  C   UNL     1      15.370  41.596  53.919  0.00  0.00    +0.000 C 
ATOM     16  C   UNL     1      16.482  42.186  53.007  0.00  0.00    +0.000 C 
ATOM     17  C   UNL     1      16.190  41.705  51.584  0.00  0.00    +0.000 C 
ATOM     18  C   UNL     1      15.400  40.397  51.771  0.00  0.00    +0.000 C 
ATOM     19  C   UNL     1      13.031  38.720  46.693  0.00  0.00    +0.000 C 
ENDROOT
BRANCH  15  20
ATOM     20  C   UNL     1      15.934  40.919  55.150  0.00  0.00    +0.000 C 
ATOM     21  C   UNL     1      15.495  41.103  56.396  0.00  0.00    +0.000 C 
ATOM     22  C   UNL     1      16.317  40.276  57.274  0.00  0.00    +0.000 C 
ATOM     23  O   UNL     1      16.181  40.195  58.481  0.00  0.00    +0.000 OA
ATOM     24  O   UNL     1      17.247  39.625  56.530  0.00  0.00    +0.000 OA
ATOM     25  C   UNL     1      17.076  39.972  55.154  0.00  0.00    +0.000 C 
ENDBRANCH  15  20
BRANCH  16  26
ATOM     26  O   UNL     1      16.468  43.608  53.061  0.00  0.00    +0.000 OA
ATOM     27  H   UNL     1      16.117  43.867  53.932  0.00  0.00    +0.000 HD
ENDBRANCH  16  26
BRANCH  18  28
ATOM     28  O   UNL     1      16.355  39.412  52.181  0.00  0.00    +0.000 OA
ATOM     29  H   UNL     1      17.234  39.698  51.867  0.00  0.00    +0.000 HD
ENDBRANCH  18  28
BRANCH   1  30
ATOM     30  O   UNL     1      13.859  40.597  45.325  0.00  0.00    +0.000 OA
BRANCH  30  34
ATOM     31  C   UNL     1      16.309  40.974  43.323  0.00  0.00    +0.000 C 
ATOM     32  C   UNL     1      15.219  41.843  42.698  0.00  0.00    +0.000 C 
ATOM     33  O   UNL     1      13.909  41.454  43.124  0.00  0.00    +0.000 OA
ATOM     34  C   UNL     1      13.587  41.720  44.492  0.00  0.00    +0.000 C 
ATOM     35  C   UNL     1      14.310  42.941  45.068  0.00  0.00    +0.000 C 
ATOM     36  C   UNL     1      14.549  43.960  43.973  0.00  0.00    +0.000 C 
ATOM     37  C   UNL     1      15.420  43.367  42.850  0.00  0.00    +0.000 C 
BRANCH  36  38
ATOM     38  O   UNL     1      15.192  45.111  44.527  0.00  0.00    +0.000 OA
ATOM     39  H   UNL     1      14.642  45.885  44.296  0.00  0.00    +0.000 HD
ENDBRANCH  36  38
BRANCH  37  40
ATOM     40  O   UNL     1      16.798  43.712  43.034  0.00  0.00    +0.000 OA
ATOM     41  H   UNL     1      17.314  42.913  42.799  0.00  0.00    +0.000 HD
ENDBRANCH  37  40
ENDBRANCH  30  34
ENDBRANCH   1  30
TORSDOF 7
ENDMDL
