MODEL 1
REMARK VINA RESULT:    -6.380      0.000      0.000
REMARK INTER + INTRA:         -13.113
REMARK INTER:                 -11.017
REMARK INTRA:                  -2.096
REMARK UNBOUND:                -2.443
REMARK  Name = 
REMARK  14 active torsions:
REMARK  status: ('A' for Active; 'I' for Inactive)
REMARK    1  A    between atoms: C_1  and  C_2
REMARK    2  A    between atoms: C_2  and  C_3
REMARK    3  A    between atoms: C_3  and  N_4
REMARK    4  A    between atoms: C_3  and  C_21
REMARK    5  A    between atoms: C_5  and  C_7
REMARK    6  A    between atoms: C_10  and  C_11
REMARK    7  A    between atoms: C_15  and  C_16
REMARK    8  A    between atoms: C_16  and  N_17
REMARK    9  A    between atoms: C_21  and  C_22
REMARK   10  A    between atoms: C_21  and  C_32
REMARK   11  A    between atoms: C_22  and  C_23
REMARK   12  A    between atoms: C_27  and  C_28
REMARK   13  A    between atoms: C_32  and  O_34
REMARK   14  A    between atoms: O_34  and  C_35
REMARK                            x       y       z     vdW  Elec       q    Type
REMARK                         _______ _______ _______ _____ _____    ______ ____
ROOT
ATOM      1  C   UNL     1      15.095  39.134  52.703  0.00  0.00    +0.000 C 
ENDROOT
BRANCH   1   2
ATOM      2  N   UNL     1      15.191  39.375  51.255  0.00  0.00    +0.000 N 
ATOM      3  C   UNL     1      15.567  38.373  50.381  0.00  0.00    +0.000 C 
ATOM      4  O   UNL     1      15.782  37.214  50.718  0.00  0.00    +0.000 OA
ATOM      5  H   UNL     1      15.194  40.326  50.911  0.00  0.00    +0.000 HD
BRANCH   3   6
ATOM      6  C   UNL     1      15.733  38.776  48.960  0.00  0.00    +0.000 A 
ATOM      7  C   UNL     1      16.932  38.462  48.314  0.00  0.00    +0.000 A 
ATOM      8  C   UNL     1      17.127  38.824  46.977  0.00  0.00    +0.000 A 
ATOM      9  C   UNL     1      16.126  39.497  46.256  0.00  0.00    +0.000 A 
ATOM     10  C   UNL     1      14.919  39.790  46.917  0.00  0.00    +0.000 A 
ATOM     11  C   UNL     1      14.719  39.432  48.254  0.00  0.00    +0.000 A 
BRANCH   9  12
ATOM     12  C   UNL     1      16.333  39.880  44.849  0.00  0.00    +0.000 A 
ATOM     13  C   UNL     1      16.843  38.960  43.919  0.00  0.00    +0.000 A 
ATOM     14  C   UNL     1      17.033  39.317  42.582  0.00  0.00    +0.000 A 
ATOM     15  C   UNL     1      16.716  40.603  42.152  0.00  0.00    +0.000 A 
ATOM     16  C   UNL     1      16.214  41.548  43.054  0.00  0.00    +0.000 A 
ATOM     17  C   UNL     1      16.020  41.173  44.395  0.00  0.00    +0.000 A 
BRANCH  16  18
ATOM     18  C   UNL     1      15.843  42.931  42.587  0.00  0.00    +0.000 C 
BRANCH  18  19
ATOM     19  N   UNL     1      16.325  43.949  43.512  0.00  0.00    +0.000 NA
ATOM     20  H   UNL     1      16.374  43.546  44.446  0.00  0.00    +0.000 HD
ATOM     21  H   UNL     1      17.287  44.183  43.267  0.00  0.00    +0.000 HD
ENDBRANCH  18  19
ENDBRANCH  16  18
ENDBRANCH   9  12
ENDBRANCH   3   6
ENDBRANCH   1   2
BRANCH   1  23
ATOM     22  C   UNL     1      13.189  38.924  54.439  0.00  0.00    +0.000 C 
ATOM     23  C   UNL     1      13.718  39.638  53.200  0.00  0.00    +0.000 C 
ENDBRANCH   1  23
BRANCH   1  24
ATOM     24  C   UNL     1      16.293  39.755  53.464  0.00  0.00    +0.000 C 
BRANCH  24  25
ATOM     25  C   UNL     1      17.149  40.614  52.547  0.00  0.00    +0.000 C 
ATOM     26  O   UNL     1      18.289  40.363  52.183  0.00  0.00    +0.000 OA
BRANCH  25  27
ATOM     27  O   UNL     1      16.457  41.737  52.192  0.00  0.00    +0.000 OA
ATOM     28  C   UNL     1      16.230  42.648  53.271  0.00  0.00    +0.000 C 
ENDBRANCH  25  27
ENDBRANCH  24  25
BRANCH  24  29
ATOM     29  C   UNL     1      17.201  38.751  54.211  0.00  0.00    +0.000 C 
BRANCH  29  30
ATOM     30  C   UNL     1      17.246  38.864  55.720  0.00  0.00    +0.000 A 
ATOM     31  C   UNL     1      17.529  37.742  56.512  0.00  0.00    +0.000 A 
ATOM     32  C   UNL     1      17.581  37.842  57.907  0.00  0.00    +0.000 A 
ATOM     33  C   UNL     1      17.349  39.066  58.530  0.00  0.00    +0.000 A 
ATOM     34  C   UNL     1      17.055  40.188  57.754  0.00  0.00    +0.000 A 
ATOM     35  C   UNL     1      16.985  40.084  56.360  0.00  0.00    +0.000 A 
BRANCH  34  36
ATOM     36  C   UNL     1      16.798  41.495  58.413  0.00  0.00    +0.000 C 
ATOM     37  N   UNL     1      15.628  42.051  58.425  0.00  0.00    +0.000 NA
ATOM     38  N   UNL     1      17.808  42.152  59.048  0.00  0.00    +0.000 N 
ATOM     39  H   UNL     1      14.957  41.508  57.867  0.00  0.00    +0.000 HD
ATOM     40  H   UNL     1      18.472  41.568  59.543  0.00  0.00    +0.000 HD
ATOM     41  H   UNL     1      17.440  42.903  59.625  0.00  0.00    +0.000 HD
ENDBRANCH  34  36
ENDBRANCH  29  30
ENDBRANCH  24  29
ENDBRANCH   1  24
TORSDOF 12
ENDMDL
MODEL 2
REMARK VINA RESULT:    -6.320      4.359      6.897
REMARK INTER + INTRA:         -13.011
REMARK INTER:                 -10.753
REMARK INTRA:                  -2.258
REMARK UNBOUND:                -2.443
REMARK  Name = 
REMARK  14 active torsions:
REMARK  status: ('A' for Active; 'I' for Inactive)
REMARK    1  A    between atoms: C_1  and  C_2
REMARK    2  A    between atoms: C_2  and  C_3
REMARK    3  A    between atoms: C_3  and  N_4
REMARK    4  A    between atoms: C_3  and  C_21
REMARK    5  A    between atoms: C_5  and  C_7
REMARK    6  A    between atoms: C_10  and  C_11
REMARK    7  A    between atoms: C_15  and  C_16
REMARK    8  A    between atoms: C_16  and  N_17
REMARK    9  A    between atoms: C_21  and  C_22
REMARK   10  A    between atoms: C_21  and  C_32
REMARK   11  A    between atoms: C_22  and  C_23
REMARK   12  A    between atoms: C_27  and  C_28
REMARK   13  A    between atoms: C_32  and  O_34
REMARK   14  A    between atoms: O_34  and  C_35
REMARK                            x       y       z     vdW  Elec       q    Type
REMARK                         _______ _______ _______ _____ _____    ______ ____
ROOT
ATOM      1  C   UNL     1      14.734  39.006  47.249  0.00  0.00    +0.000 C 
ENDROOT
BRANCH   1   2
ATOM      2  N   UNL     1      14.516  40.454  47.114  0.00  0.00    +0.000 N 
ATOM      3  C   UNL     1      13.742  40.974  46.094  0.00  0.00    +0.000 C 
ATOM      4  O   UNL     1      13.135  40.291  45.278  0.00  0.00    +0.000 OA
ATOM      5  H   UNL     1      15.104  41.094  47.633  0.00  0.00    +0.000 HD
BRANCH   3   6
ATOM      6  C   UNL     1      13.692  42.458  46.005  0.00  0.00    +0.000 A 
ATOM      7  C   UNL     1      12.643  43.129  46.640  0.00  0.00    +0.000 A 
ATOM      8  C   UNL     1      12.561  44.524  46.577  0.00  0.00    +0.000 A 
ATOM      9  C   UNL     1      13.528  45.276  45.890  0.00  0.00    +0.000 A 
ATOM     10  C   UNL     1      14.586  44.586  45.272  0.00  0.00    +0.000 A 
ATOM     11  C   UNL     1      14.673  43.191  45.328  0.00  0.00    +0.000 A 
BRANCH   9  12
ATOM     12  C   UNL     1      13.440  46.745  45.825  0.00  0.00    +0.000 A 
ATOM     13  C   UNL     1      12.302  47.420  46.295  0.00  0.00    +0.000 A 
ATOM     14  C   UNL     1      12.218  48.814  46.242  0.00  0.00    +0.000 A 
ATOM     15  C   UNL     1      13.273  49.557  45.716  0.00  0.00    +0.000 A 
ATOM     16  C   UNL     1      14.418  48.915  45.231  0.00  0.00    +0.000 A 
ATOM     17  C   UNL     1      14.492  47.513  45.298  0.00  0.00    +0.000 A 
BRANCH  16  18
ATOM     18  C   UNL     1      15.573  49.716  44.689  0.00  0.00    +0.000 C 
BRANCH  18  19
ATOM     19  N   UNL     1      15.766  50.945  45.448  0.00  0.00    +0.000 NA
ATOM     20  H   UNL     1      16.617  50.857  46.001  0.00  0.00    +0.000 HD
ATOM     21  H   UNL     1      15.946  51.707  44.795  0.00  0.00    +0.000 HD
ENDBRANCH  18  19
ENDBRANCH  16  18
ENDBRANCH   9  12
ENDBRANCH   3   6
ENDBRANCH   1   2
BRANCH   1  23
ATOM     22  C   UNL     1      13.417  39.509  49.417  0.00  0.00    +0.000 C 
ATOM     23  C   UNL     1      13.821  38.470  48.379  0.00  0.00    +0.000 C 
ENDBRANCH   1  23
BRANCH   1  24
ATOM     24  C   UNL     1      16.234  38.673  47.454  0.00  0.00    +0.000 C 
BRANCH  24  25
ATOM     25  C   UNL     1      16.930  38.411  46.128  0.00  0.00    +0.000 C 
ATOM     26  O   UNL     1      18.096  38.072  45.982  0.00  0.00    +0.000 OA
BRANCH  25  27
ATOM     27  O   UNL     1      16.057  38.627  45.099  0.00  0.00    +0.000 OA
ATOM     28  C   UNL     1      16.602  39.392  44.021  0.00  0.00    +0.000 C 
ENDBRANCH  25  27
ENDBRANCH  24  25
BRANCH  24  29
ATOM     29  C   UNL     1      16.531  37.505  48.421  0.00  0.00    +0.000 C 
BRANCH  29  30
ATOM     30  C   UNL     1      17.226  37.855  49.719  0.00  0.00    +0.000 A 
ATOM     31  C   UNL     1      18.141  36.966  50.303  0.00  0.00    +0.000 A 
ATOM     32  C   UNL     1      18.794  37.287  51.498  0.00  0.00    +0.000 A 
ATOM     33  C   UNL     1      18.539  38.503  52.129  0.00  0.00    +0.000 A 
ATOM     34  C   UNL     1      17.622  39.392  51.566  0.00  0.00    +0.000 A 
ATOM     35  C   UNL     1      16.956  39.062  50.380  0.00  0.00    +0.000 A 
BRANCH  34  36
ATOM     36  C   UNL     1      17.340  40.687  52.238  0.00  0.00    +0.000 C 
ATOM     37  N   UNL     1      17.874  41.014  53.372  0.00  0.00    +0.000 NA
ATOM     38  N   UNL     1      16.502  41.591  51.658  0.00  0.00    +0.000 N 
ATOM     39  H   UNL     1      18.434  40.241  53.751  0.00  0.00    +0.000 HD
ATOM     40  H   UNL     1      16.554  41.657  50.648  0.00  0.00    +0.000 HD
ATOM     41  H   UNL     1      16.579  42.496  52.115  0.00  0.00    +0.000 HD
ENDBRANCH  34  36
ENDBRANCH  29  30
ENDBRANCH  24  29
ENDBRANCH   1  24
TORSDOF 12
ENDMDL
MODEL 3
REMARK VINA RESULT:    -6.172      6.251     11.068
REMARK INTER + INTRA:         -12.763
REMARK INTER:                 -10.321
REMARK INTRA:                  -2.443
REMARK UNBOUND:                -2.443
REMARK  Name = 
REMARK  14 active torsions:
REMARK  status: ('A' for Active; 'I' for Inactive)
REMARK    1  A    between atoms: C_1  and  C_2
REMARK    2  A    between atoms: C_2  and  C_3
REMARK    3  A    between atoms: C_3  and  N_4
REMARK    4  A    between atoms: C_3  and  C_21
REMARK    5  A    between atoms: C_5  and  C_7
REMARK    6  A    between atoms: C_10  and  C_11
REMARK    7  A    between atoms: C_15  and  C_16
REMARK    8  A    between atoms: C_16  and  N_17
REMARK    9  A    between atoms: C_21  and  C_22
REMARK   10  A    between atoms: C_21  and  C_32
REMARK   11  A    between atoms: C_22  and  C_23
REMARK   12  A    between atoms: C_27  and  C_28
REMARK   13  A    between atoms: C_32  and  O_34
REMARK   14  A    between atoms: O_34  and  C_35
REMARK                            x       y       z     vdW  Elec       q    Type
REMARK                         _______ _______ _______ _____ _____    ______ ____
ROOT
ATOM      1  C   UNL     1      13.259  41.446  46.842  0.00  0.00    +0.000 C 
ENDROOT
BRANCH   1   2
ATOM      2  N   UNL     1      13.534  42.871  46.609  0.00  0.00    +0.000 N 
ATOM      3  C   UNL     1      12.522  43.812  46.619  0.00  0.00    +0.000 C 
ATOM      4  O   UNL     1      11.352  43.557  46.881  0.00  0.00    +0.000 OA
ATOM      5  H   UNL     1      14.429  43.146  46.226  0.00  0.00    +0.000 HD
BRANCH   3   6
ATOM      6  C   UNL     1      12.917  45.199  46.260  0.00  0.00    +0.000 A 
ATOM      7  C   UNL     1      14.093  45.389  45.529  0.00  0.00    +0.000 A 
ATOM      8  C   UNL     1      14.499  46.679  45.173  0.00  0.00    +0.000 A 
ATOM      9  C   UNL     1      13.736  47.803  45.529  0.00  0.00    +0.000 A 
ATOM     10  C   UNL     1      12.546  47.593  46.250  0.00  0.00    +0.000 A 
ATOM     11  C   UNL     1      12.136  46.305  46.611  0.00  0.00    +0.000 A 
BRANCH   9  12
ATOM     12  C   UNL     1      14.165  49.161  45.154  0.00  0.00    +0.000 A 
ATOM     13  C   UNL     1      13.245  50.219  45.098  0.00  0.00    +0.000 A 
ATOM     14  C   UNL     1      13.650  51.511  44.750  0.00  0.00    +0.000 A 
ATOM     15  C   UNL     1      14.987  51.765  44.452  0.00  0.00    +0.000 A 
ATOM     16  C   UNL     1      15.930  50.730  44.489  0.00  0.00    +0.000 A 
ATOM     17  C   UNL     1      15.509  49.439  44.848  0.00  0.00    +0.000 A 
BRANCH  16  18
ATOM     18  C   UNL     1      17.381  51.007  44.195  0.00  0.00    +0.000 C 
BRANCH  18  19
ATOM     19  N   UNL     1      18.253  50.115  44.949  0.00  0.00    +0.000 NA
ATOM     20  H   UNL     1      17.681  49.554  45.579  0.00  0.00    +0.000 HD
ATOM     21  H   UNL     1      18.674  49.448  44.302  0.00  0.00    +0.000 HD
ENDBRANCH  18  19
ENDBRANCH  16  18
ENDBRANCH   9  12
ENDBRANCH   3   6
ENDBRANCH   1   2
BRANCH   1  23
ATOM     22  C   UNL     1      14.175  40.678  49.136  0.00  0.00    +0.000 C 
ATOM     23  C   UNL     1      14.436  40.837  47.643  0.00  0.00    +0.000 C 
ENDBRANCH   1  23
BRANCH   1  24
ATOM     24  C   UNL     1      12.960  40.699  45.517  0.00  0.00    +0.000 C 
BRANCH  24  25
ATOM     25  C   UNL     1      12.181  39.417  45.766  0.00  0.00    +0.000 C 
ATOM     26  O   UNL     1      11.012  39.342  46.115  0.00  0.00    +0.000 OA
BRANCH  25  27
ATOM     27  O   UNL     1      12.992  38.338  45.555  0.00  0.00    +0.000 OA
ATOM     28  C   UNL     1      13.072  37.442  46.667  0.00  0.00    +0.000 C 
ENDBRANCH  25  27
ENDBRANCH  24  25
BRANCH  24  29
ATOM     29  C   UNL     1      14.191  40.381  44.639  0.00  0.00    +0.000 C 
BRANCH  29  30
ATOM     30  C   UNL     1      14.802  41.538  43.877  0.00  0.00    +0.000 A 
ATOM     31  C   UNL     1      15.978  42.153  44.332  0.00  0.00    +0.000 A 
ATOM     32  C   UNL     1      16.552  43.216  43.628  0.00  0.00    +0.000 A 
ATOM     33  C   UNL     1      15.957  43.683  42.458  0.00  0.00    +0.000 A 
ATOM     34  C   UNL     1      14.780  43.089  42.000  0.00  0.00    +0.000 A 
ATOM     35  C   UNL     1      14.196  42.037  42.715  0.00  0.00    +0.000 A 
BRANCH  34  36
ATOM     36  C   UNL     1      14.136  43.588  40.758  0.00  0.00    +0.000 C 
ATOM     37  N   UNL     1      12.897  43.966  40.718  0.00  0.00    +0.000 NA
ATOM     38  N   UNL     1      14.852  43.675  39.602  0.00  0.00    +0.000 N 
ATOM     39  H   UNL     1      12.434  43.801  41.621  0.00  0.00    +0.000 HD
ATOM     40  H   UNL     1      15.820  43.956  39.702  0.00  0.00    +0.000 HD
ATOM     41  H   UNL     1      14.352  44.226  38.910  0.00  0.00    +0.000 HD
ENDBRANCH  34  36
ENDBRANCH  29  30
ENDBRANCH  24  29
ENDBRANCH   1  24
TORSDOF 12
ENDMDL
