MODEL 1
REMARK VINA RESULT:    -6.403      0.000      0.000
REMARK INTER + INTRA:          -7.425
REMARK INTER:                  -7.331
REMARK INTRA:                  -0.094
REMARK UNBOUND:                -0.272
REMARK  Name = 
REMARK  2 active torsions:
REMARK  status: ('A' for Active; 'I' for Inactive)
REMARK    1  A    between atoms: C_4  and  N_5
REMARK    2  A    between atoms: N_8  and  C_9
REMARK                            x       y       z     vdW  Elec       q    Type
REMARK                         _______ _______ _______ _____ _____    ______ ____
ROOT
ATOM      1  C   UNL     1      14.547  44.146  45.249  0.00  0.00    +0.000 C 
ATOM      2  C   UNL     1      14.153  43.024  46.205  0.00  0.00    +0.000 A 
ATOM      3  C   UNL     1      15.048  42.024  46.613  0.00  0.00    +0.000 A 
ATOM      4  C   UNL     1      14.613  40.980  47.434  0.00  0.00    +0.000 A 
ATOM      5  C   UNL     1      13.285  40.927  47.859  0.00  0.00    +0.000 A 
ATOM      6  C   UNL     1      12.391  41.928  47.480  0.00  0.00    +0.000 A 
ATOM      7  C   UNL     1      12.832  42.978  46.674  0.00  0.00    +0.000 A 
ATOM      8  O   UNL     1      11.923  43.976  46.393  0.00  0.00    +0.000 OA
ATOM      9  C   UNL     1      12.466  45.223  46.169  0.00  0.00    +0.000 A 
ATOM     10  C   UNL     1      11.684  46.330  46.494  0.00  0.00    +0.000 A 
ATOM     11  C   UNL     1      12.213  47.613  46.365  0.00  0.00    +0.000 A 
ATOM     12  C   UNL     1      13.522  47.787  45.915  0.00  0.00    +0.000 A 
ATOM     13  C   UNL     1      14.299  46.678  45.571  0.00  0.00    +0.000 A 
ATOM     14  C   UNL     1      13.766  45.384  45.671  0.00  0.00    +0.000 A 
ENDROOT
BRANCH   1  18
ATOM     15  N   UNL     1      15.553  41.273  42.720  0.00  0.00    +0.000 N 
ATOM     16  C   UNL     1      14.099  41.481  42.612  0.00  0.00    +0.000 C 
ATOM     17  C   UNL     1      13.634  42.406  43.763  0.00  0.00    +0.000 C 
ATOM     18  N   UNL     1      14.303  43.734  43.837  0.00  0.00    +0.000 NA
ATOM     19  C   UNL     1      15.467  43.763  42.932  0.00  0.00    +0.000 C 
ATOM     20  C   UNL     1      16.350  42.494  42.936  0.00  0.00    +0.000 C 
BRANCH  15  24
ATOM     21  C   UNL     1      17.120  38.335  40.211  0.00  0.00    +0.000 A 
ATOM     22  C   UNL     1      17.976  39.036  41.045  0.00  0.00    +0.000 A 
ATOM     23  C   UNL     1      17.455  40.021  41.883  0.00  0.00    +0.000 A 
ATOM     24  C   UNL     1      16.086  40.302  41.872  0.00  0.00    +0.000 A 
ATOM     25  N   UNL     1      15.254  39.601  41.069  0.00  0.00    +0.000 NA
ATOM     26  C   UNL     1      15.777  38.651  40.262  0.00  0.00    +0.000 A 
ENDBRANCH  15  24
ENDBRANCH   1  18
TORSDOF 2
ENDMDL
MODEL 2
REMARK VINA RESULT:    -6.113     11.326     14.352
REMARK INTER + INTRA:          -7.100
REMARK INTER:                  -6.913
REMARK INTRA:                  -0.187
REMARK UNBOUND:                -0.272
REMARK  Name = 
REMARK  2 active torsions:
REMARK  status: ('A' for Active; 'I' for Inactive)
REMARK    1  A    between atoms: C_4  and  N_5
REMARK    2  A    between atoms: N_8  and  C_9
REMARK                            x       y       z     vdW  Elec       q    Type
REMARK                         _______ _______ _______ _____ _____    ______ ____
ROOT
ATOM      1  C   UNL     1      20.722  35.814  51.409  0.00  0.00    +0.000 C 
ATOM      2  C   UNL     1      19.507  36.602  50.928  0.00  0.00    +0.000 A 
ATOM      3  C   UNL     1      18.946  37.657  51.662  0.00  0.00    +0.000 A 
ATOM      4  C   UNL     1      17.790  38.297  51.206  0.00  0.00    +0.000 A 
ATOM      5  C   UNL     1      17.188  37.895  50.014  0.00  0.00    +0.000 A 
ATOM      6  C   UNL     1      17.751  36.863  49.262  0.00  0.00    +0.000 A 
ATOM      7  C   UNL     1      18.914  36.237  49.710  0.00  0.00    +0.000 A 
ATOM      8  O   UNL     1      19.464  35.275  48.890  0.00  0.00    +0.000 OA
ATOM      9  C   UNL     1      20.830  35.124  48.991  0.00  0.00    +0.000 A 
ATOM     10  C   UNL     1      21.512  34.691  47.855  0.00  0.00    +0.000 A 
ATOM     11  C   UNL     1      22.903  34.599  47.877  0.00  0.00    +0.000 A 
ATOM     12  C   UNL     1      23.609  34.944  49.030  0.00  0.00    +0.000 A 
ATOM     13  C   UNL     1      22.923  35.360  50.173  0.00  0.00    +0.000 A 
ATOM     14  C   UNL     1      21.521  35.428  50.171  0.00  0.00    +0.000 A 
ENDROOT
BRANCH   1  18
ATOM     15  N   UNL     1      21.492  34.134  54.909  0.00  0.00    +0.000 N 
ATOM     16  C   UNL     1      20.029  34.204  54.754  0.00  0.00    +0.000 C 
ATOM     17  C   UNL     1      19.693  35.085  53.525  0.00  0.00    +0.000 C 
ATOM     18  N   UNL     1      20.291  34.648  52.233  0.00  0.00    +0.000 NA
ATOM     19  C   UNL     1      21.302  33.602  52.474  0.00  0.00    +0.000 C 
ATOM     20  C   UNL     1      22.244  33.844  53.675  0.00  0.00    +0.000 C 
BRANCH  15  24
ATOM     21  C   UNL     1      22.811  32.396  58.462  0.00  0.00    +0.000 A 
ATOM     22  C   UNL     1      23.704  33.131  57.699  0.00  0.00    +0.000 A 
ATOM     23  C   UNL     1      23.266  33.710  56.509  0.00  0.00    +0.000 A 
ATOM     24  C   UNL     1      21.943  33.543  56.089  0.00  0.00    +0.000 A 
ATOM     25  N   UNL     1      21.073  32.841  56.848  0.00  0.00    +0.000 NA
ATOM     26  C   UNL     1      21.515  32.284  57.998  0.00  0.00    +0.000 A 
ENDBRANCH  15  24
ENDBRANCH   1  18
TORSDOF 2
ENDMDL
MODEL 3
REMARK VINA RESULT:    -6.039      2.580      4.823
REMARK INTER + INTRA:          -7.018
REMARK INTER:                  -6.745
REMARK INTRA:                  -0.272
REMARK UNBOUND:                -0.272
REMARK  Name = 
REMARK  2 active torsions:
REMARK  status: ('A' for Active; 'I' for Inactive)
REMARK    1  A    between atoms: C_4  and  N_5
REMARK    2  A    between atoms: N_8  and  C_9
REMARK                            x       y       z     vdW  Elec       q    Type
REMARK                         _______ _______ _______ _____ _____    ______ ____
ROOT
ATOM      1  C   UNL     1      14.442  44.404  43.847  0.00  0.00    +0.000 C 
ATOM      2  C   UNL     1      13.746  45.660  44.363  0.00  0.00    +0.000 A 
ATOM      3  C   UNL     1      14.271  46.449  45.397  0.00  0.00    +0.000 A 
ATOM      4  C   UNL     1      13.556  47.550  45.877  0.00  0.00    +0.000 A 
ATOM      5  C   UNL     1      12.316  47.876  45.328  0.00  0.00    +0.000 A 
ATOM      6  C   UNL     1      11.794  47.114  44.282  0.00  0.00    +0.000 A 
ATOM      7  C   UNL     1      12.518  46.026  43.793  0.00  0.00    +0.000 A 
ATOM      8  O   UNL     1      11.986  45.355  42.712  0.00  0.00    +0.000 OA
ATOM      9  C   UNL     1      12.907  44.751  41.883  0.00  0.00    +0.000 A 
ATOM     10  C   UNL     1      12.567  44.619  40.537  0.00  0.00    +0.000 A 
ATOM     11  C   UNL     1      13.492  44.090  39.639  0.00  0.00    +0.000 A 
ATOM     12  C   UNL     1      14.754  43.697  40.085  0.00  0.00    +0.000 A 
ATOM     13  C   UNL     1      15.087  43.812  41.436  0.00  0.00    +0.000 A 
ATOM     14  C   UNL     1      14.153  44.317  42.354  0.00  0.00    +0.000 A 
ENDROOT
BRANCH   1  18
ATOM     15  N   UNL     1      15.862  40.967  45.200  0.00  0.00    +0.000 N 
ATOM     16  C   UNL     1      15.103  41.603  46.291  0.00  0.00    +0.000 C 
ATOM     17  C   UNL     1      14.757  43.056  45.885  0.00  0.00    +0.000 C 
ATOM     18  N   UNL     1      13.992  43.209  44.617  0.00  0.00    +0.000 NA
ATOM     19  C   UNL     1      13.964  41.928  43.887  0.00  0.00    +0.000 C 
ATOM     20  C   UNL     1      15.299  41.149  43.851  0.00  0.00    +0.000 C 
BRANCH  15  24
ATOM     21  C   UNL     1      17.485  37.229  46.081  0.00  0.00    +0.000 A 
ATOM     22  C   UNL     1      17.157  38.084  47.121  0.00  0.00    +0.000 A 
ATOM     23  C   UNL     1      16.618  39.335  46.829  0.00  0.00    +0.000 A 
ATOM     24  C   UNL     1      16.418  39.723  45.501  0.00  0.00    +0.000 A 
ATOM     25  N   UNL     1      16.722  38.877  44.492  0.00  0.00    +0.000 NA
ATOM     26  C   UNL     1      17.246  37.667  44.794  0.00  0.00    +0.000 A 
ENDBRANCH  15  24
ENDBRANCH   1  18
TORSDOF 2
ENDMDL
