MODEL 1
REMARK VINA RESULT:    -7.210      0.000      0.000
REMARK INTER + INTRA:          -9.867
REMARK INTER:                  -8.727
REMARK INTRA:                  -1.140
REMARK UNBOUND:                -0.971
REMARK  Name = 
REMARK  5 active torsions:
REMARK  status: ('A' for Active; 'I' for Inactive)
REMARK    1  A    between atoms: C_1  and  C_2
REMARK    2  A    between atoms: C_4  and  C_5
REMARK    3  A    between atoms: N_7  and  C_8
REMARK    4  A    between atoms: C_11  and  N_12
REMARK    5  A    between atoms: N_22  and  C_23
REMARK                            x       y       z     vdW  Elec       q    Type
REMARK                         _______ _______ _______ _____ _____    ______ ____
ROOT
ATOM      1  C   UNL     1      16.449  38.088  48.365  0.00  0.00    +0.000 C 
ATOM      2  O   UNL     1      15.591  37.296  48.000  0.00  0.00    +0.000 OA
ATOM      3  N   UNL     1      16.819  39.254  47.721  0.00  0.00    +0.000 N 
ATOM      4  H   UNL     1      17.617  39.738  48.114  0.00  0.00    +0.000 HD
ENDROOT
BRANCH   3   5
ATOM      5  C   UNL     1      16.261  39.865  46.572  0.00  0.00    +0.000 A 
ATOM      6  C   UNL     1      16.680  39.342  45.342  0.00  0.00    +0.000 A 
ATOM      7  C   UNL     1      16.209  39.866  44.128  0.00  0.00    +0.000 A 
ATOM      8  C   UNL     1      15.297  40.928  44.095  0.00  0.00    +0.000 A 
ATOM      9  C   UNL     1      14.875  41.443  45.329  0.00  0.00    +0.000 A 
ATOM     10  C   UNL     1      15.354  40.928  46.540  0.00  0.00    +0.000 A 
ATOM     11  F   UNL     1      14.899  41.527  47.652  0.00  0.00    +0.000 F 
BRANCH   8  12
ATOM     12  N   UNL     1      14.789  41.446  42.853  0.00  0.00    +0.000 N 
ATOM     13  C   UNL     1      13.494  40.957  42.362  0.00  0.00    +0.000 C 
ATOM     14  C   UNL     1      13.352  41.097  40.850  0.00  0.00    +0.000 C 
ATOM     15  O   UNL     1      13.478  42.471  40.503  0.00  0.00    +0.000 OA
ATOM     16  C   UNL     1      14.769  42.944  40.850  0.00  0.00    +0.000 C 
ATOM     17  C   UNL     1      15.359  42.574  42.229  0.00  0.00    +0.000 C 
ATOM     18  O   UNL     1      16.292  43.242  42.677  0.00  0.00    +0.000 OA
ENDBRANCH   8  12
ENDBRANCH   3   5
BRANCH   1  22
ATOM     19  C   UNL     1      19.947  36.291  51.501  0.00  0.00    +0.000 C 
ATOM     20  C   UNL     1      18.818  37.037  50.897  0.00  0.00    +0.000 A 
ATOM     21  C   UNL     1      18.179  36.805  49.668  0.00  0.00    +0.000 A 
ATOM     22  C   UNL     1      17.242  37.816  49.540  0.00  0.00    +0.000 A 
ATOM     23  N   UNL     1      17.232  38.473  50.761  0.00  0.00    +0.000 N 
ATOM     24  N   UNL     1      18.299  38.097  51.521  0.00  0.00    +0.000 NA
BRANCH  23  25
ATOM     25  C   UNL     1      16.316  39.438  51.285  0.00  0.00    +0.000 A 
ATOM     26  C   UNL     1      14.945  39.133  51.299  0.00  0.00    +0.000 A 
ATOM     27  C   UNL     1      14.022  40.044  51.816  0.00  0.00    +0.000 A 
ATOM     28  C   UNL     1      14.445  41.274  52.335  0.00  0.00    +0.000 A 
ATOM     29  C   UNL     1      13.527  42.193  52.868  0.00  0.00    +0.000 A 
ATOM     30  C   UNL     1      13.966  43.422  53.362  0.00  0.00    +0.000 A 
ATOM     31 CL   UNL     1      12.828  44.537  54.012  0.00  0.00    +0.000 Cl
ATOM     32  C   UNL     1      15.317  43.752  53.332  0.00  0.00    +0.000 A 
ATOM     33  C   UNL     1      16.239  42.847  52.803  0.00  0.00    +0.000 A 
ATOM     34  C   UNL     1      15.821  41.601  52.304  0.00  0.00    +0.000 A 
ATOM     35  C   UNL     1      16.742  40.682  51.765  0.00  0.00    +0.000 A 
ENDBRANCH  23  25
ENDBRANCH   1  22
TORSDOF 4
ENDMDL
MODEL 2
REMARK VINA RESULT:    -6.620      3.294      5.571
REMARK INTER + INTRA:          -9.138
REMARK INTER:                  -8.254
REMARK INTRA:                  -0.884
REMARK UNBOUND:                -0.971
REMARK  Name = 
REMARK  5 active torsions:
REMARK  status: ('A' for Active; 'I' for Inactive)
REMARK    1  A    between atoms: C_1  and  C_2
REMARK    2  A    between atoms: C_4  and  C_5
REMARK    3  A    between atoms: N_7  and  C_8
REMARK    4  A    between atoms: C_11  and  N_12
REMARK    5  A    between atoms: N_22  and  C_23
REMARK                            x       y       z     vdW  Elec       q    Type
REMARK                         _______ _______ _______ _____ _____    ______ ____
ROOT
ATOM      1  C   UNL     1      15.113  38.796  49.453  0.00  0.00    +0.000 C 
ATOM      2  O   UNL     1      14.246  38.046  49.028  0.00  0.00    +0.000 OA
ATOM      3  N   UNL     1      15.816  39.737  48.724  0.00  0.00    +0.000 N 
ATOM      4  H   UNL     1      16.567  40.202  49.218  0.00  0.00    +0.000 HD
ENDROOT
BRANCH   3   5
ATOM      5  C   UNL     1      15.657  40.133  47.374  0.00  0.00    +0.000 A 
ATOM      6  C   UNL     1      14.659  41.088  47.136  0.00  0.00    +0.000 A 
ATOM      7  C   UNL     1      14.393  41.558  45.840  0.00  0.00    +0.000 A 
ATOM      8  C   UNL     1      15.117  41.097  44.733  0.00  0.00    +0.000 A 
ATOM      9  C   UNL     1      16.119  40.147  44.978  0.00  0.00    +0.000 A 
ATOM     10  C   UNL     1      16.376  39.670  46.269  0.00  0.00    +0.000 A 
ATOM     11  F   UNL     1      17.338  38.739  46.369  0.00  0.00    +0.000 F 
BRANCH   8  12
ATOM     12  N   UNL     1      14.867  41.599  43.409  0.00  0.00    +0.000 N 
ATOM     13  C   UNL     1      13.698  41.099  42.675  0.00  0.00    +0.000 C 
ATOM     14  C   UNL     1      13.862  41.221  41.163  0.00  0.00    +0.000 C 
ATOM     15  O   UNL     1      14.052  42.592  40.832  0.00  0.00    +0.000 OA
ATOM     16  C   UNL     1      15.246  43.074  41.424  0.00  0.00    +0.000 C 
ATOM     17  C   UNL     1      15.548  42.722  42.897  0.00  0.00    +0.000 C 
ATOM     18  O   UNL     1      16.372  43.400  43.516  0.00  0.00    +0.000 OA
ENDBRANCH   8  12
ENDBRANCH   3   5
BRANCH   1  22
ATOM     19  C   UNL     1      15.357  39.199  54.462  0.00  0.00    +0.000 C 
ATOM     20  C   UNL     1      15.616  38.864  53.041  0.00  0.00    +0.000 A 
ATOM     21  C   UNL     1      15.006  39.400  51.895  0.00  0.00    +0.000 A 
ATOM     22  C   UNL     1      15.547  38.706  50.827  0.00  0.00    +0.000 A 
ATOM     23  N   UNL     1      16.574  37.942  51.360  0.00  0.00    +0.000 N 
ATOM     24  N   UNL     1      16.506  37.922  52.721  0.00  0.00    +0.000 NA
BRANCH  23  25
ATOM     25  C   UNL     1      17.617  37.211  50.710  0.00  0.00    +0.000 A 
ATOM     26  C   UNL     1      17.356  36.627  49.460  0.00  0.00    +0.000 A 
ATOM     27  C   UNL     1      18.354  35.918  48.787  0.00  0.00    +0.000 A 
ATOM     28  C   UNL     1      19.632  35.782  49.341  0.00  0.00    +0.000 A 
ATOM     29  C   UNL     1      20.647  35.082  48.669  0.00  0.00    +0.000 A 
ATOM     30  C   UNL     1      21.908  34.940  49.247  0.00  0.00    +0.000 A 
ATOM     31 CL   UNL     1      23.140  34.080  48.410  0.00  0.00    +0.000 Cl
ATOM     32  C   UNL     1      22.177  35.490  50.497  0.00  0.00    +0.000 A 
ATOM     33  C   UNL     1      21.176  36.187  51.176  0.00  0.00    +0.000 A 
ATOM     34  C   UNL     1      19.898  36.346  50.611  0.00  0.00    +0.000 A 
ATOM     35  C   UNL     1      18.881  37.045  51.288  0.00  0.00    +0.000 A 
ENDBRANCH  23  25
ENDBRANCH   1  22
TORSDOF 4
ENDMDL
MODEL 3
REMARK VINA RESULT:    -6.154      2.087      2.634
REMARK INTER + INTRA:          -8.564
REMARK INTER:                  -7.593
REMARK INTRA:                  -0.971
REMARK UNBOUND:                -0.971
REMARK  Name = 
REMARK  5 active torsions:
REMARK  status: ('A' for Active; 'I' for Inactive)
REMARK    1  A    between atoms: C_1  and  C_2
REMARK    2  A    between atoms: C_4  and  C_5
REMARK    3  A    between atoms: N_7  and  C_8
REMARK    4  A    between atoms: C_11  and  N_12
REMARK    5  A    between atoms: N_22  and  C_23
REMARK                            x       y       z     vdW  Elec       q    Type
REMARK                         _______ _______ _______ _____ _____    ______ ____
ROOT
ATOM      1  C   UNL     1      16.637  37.567  48.170  0.00  0.00    +0.000 C 
ATOM      2  O   UNL     1      15.457  37.344  48.401  0.00  0.00    +0.000 OA
ATOM      3  N   UNL     1      17.139  38.471  47.252  0.00  0.00    +0.000 N 
ATOM      4  H   UNL     1      18.143  38.453  47.123  0.00  0.00    +0.000 HD
ENDROOT
BRANCH   3   5
ATOM      5  C   UNL     1      16.453  39.409  46.444  0.00  0.00    +0.000 A 
ATOM      6  C   UNL     1      16.710  39.328  45.069  0.00  0.00    +0.000 A 
ATOM      7  C   UNL     1      16.101  40.209  44.160  0.00  0.00    +0.000 A 
ATOM      8  C   UNL     1      15.208  41.199  44.588  0.00  0.00    +0.000 A 
ATOM      9  C   UNL     1      14.950  41.271  45.965  0.00  0.00    +0.000 A 
ATOM     10  C   UNL     1      15.566  40.401  46.873  0.00  0.00    +0.000 A 
ATOM     11  F   UNL     1      15.261  40.591  48.166  0.00  0.00    +0.000 F 
BRANCH   8  12
ATOM     12  N   UNL     1      14.559  42.082  43.657  0.00  0.00    +0.000 N 
ATOM     13  C   UNL     1      13.117  41.930  43.430  0.00  0.00    +0.000 C 
ATOM     14  C   UNL     1      12.681  42.464  42.069  0.00  0.00    +0.000 C 
ATOM     15  O   UNL     1      13.007  43.847  41.994  0.00  0.00    +0.000 OA
ATOM     16  C   UNL     1      14.411  44.021  42.083  0.00  0.00    +0.000 C 
ATOM     17  C   UNL     1      15.199  43.233  43.154  0.00  0.00    +0.000 C 
ATOM     18  O   UNL     1      16.324  43.621  43.473  0.00  0.00    +0.000 OA
ENDBRANCH   8  12
ENDBRANCH   3   5
BRANCH   1  22
ATOM     19  C   UNL     1      20.352  34.315  49.133  0.00  0.00    +0.000 C 
ATOM     20  C   UNL     1      19.331  35.385  49.225  0.00  0.00    +0.000 A 
ATOM     21  C   UNL     1      18.288  35.672  48.330  0.00  0.00    +0.000 A 
ATOM     22  C   UNL     1      17.667  36.803  48.832  0.00  0.00    +0.000 A 
ATOM     23  N   UNL     1      18.235  37.016  50.079  0.00  0.00    +0.000 N 
ATOM     24  N   UNL     1      19.350  36.250  50.241  0.00  0.00    +0.000 NA
BRANCH  23  25
ATOM     25  C   UNL     1      17.835  37.887  51.140  0.00  0.00    +0.000 A 
ATOM     26  C   UNL     1      17.473  39.209  50.832  0.00  0.00    +0.000 A 
ATOM     27  C   UNL     1      17.063  40.085  51.839  0.00  0.00    +0.000 A 
ATOM     28  C   UNL     1      16.998  39.662  53.172  0.00  0.00    +0.000 A 
ATOM     29  C   UNL     1      16.577  40.530  54.192  0.00  0.00    +0.000 A 
ATOM     30  C   UNL     1      16.538  40.096  55.517  0.00  0.00    +0.000 A 
ATOM     31 CL   UNL     1      16.018  41.172  56.754  0.00  0.00    +0.000 Cl
ATOM     32  C   UNL     1      16.919  38.798  55.845  0.00  0.00    +0.000 A 
ATOM     33  C   UNL     1      17.341  37.926  54.840  0.00  0.00    +0.000 A 
ATOM     34  C   UNL     1      17.384  38.340  53.497  0.00  0.00    +0.000 A 
ATOM     35  C   UNL     1      17.811  37.470  52.477  0.00  0.00    +0.000 A 
ENDBRANCH  23  25
ENDBRANCH   1  22
TORSDOF 4
ENDMDL
