MODEL 1
REMARK VINA RESULT:    -6.554      0.000      0.000
REMARK INTER + INTRA:          -8.806
REMARK INTER:                  -7.767
REMARK INTRA:                  -1.039
REMARK UNBOUND:                -1.102
REMARK  Name = 
REMARK  3 active torsions:
REMARK  status: ('A' for Active; 'I' for Inactive)
REMARK    1  A    between atoms: C_8  and  C_9
REMARK    2  A    between atoms: N_12  and  C_13
REMARK    3  A    between atoms: C_16  and  C_17
REMARK                            x       y       z     vdW  Elec       q    Type
REMARK                         _______ _______ _______ _____ _____    ______ ____
ROOT
ATOM      1  C   UNL     1      19.617  34.630  52.524  0.00  0.00    +0.000 C 
ATOM      2  C   UNL     1      18.476  34.100  51.630  0.00  0.00    +0.000 C 
ATOM      3  C   UNL     1      18.503  34.657  50.205  0.00  0.00    +0.000 C 
ATOM      4  N   UNL     1      18.518  36.118  50.240  0.00  0.00    +0.000 N 
ATOM      5  C   UNL     1      19.400  36.780  51.209  0.00  0.00    +0.000 C 
ATOM      6  C   UNL     1      20.370  35.788  51.848  0.00  0.00    +0.000 C 
ENDROOT
BRANCH   1  14
ATOM      7  F   UNL     1      19.439  34.310  55.742  0.00  0.00    +0.000 F 
ATOM      8  C   UNL     1      20.761  34.209  55.557  0.00  0.00    +0.000 A 
ATOM      9  C   UNL     1      21.637  34.478  56.607  0.00  0.00    +0.000 A 
ATOM     10  C   UNL     1      23.028  34.367  56.422  0.00  0.00    +0.000 A 
ATOM     11  C   UNL     1      23.557  33.983  55.185  0.00  0.00    +0.000 A 
ATOM     12  C   UNL     1      22.669  33.724  54.162  0.00  0.00    +0.000 A 
ATOM     13  C   UNL     1      21.271  33.840  54.332  0.00  0.00    +0.000 A 
ATOM     14  C   UNL     1      20.534  33.496  53.037  0.00  0.00    +0.000 C 
ATOM     15  N   UNL     1      21.672  33.171  52.184  0.00  0.00    +0.000 N 
ATOM     16  C   UNL     1      21.874  32.686  50.946  0.00  0.00    +0.000 A 
ATOM     17  N   UNL     1      23.170  32.557  50.716  0.00  0.00    +0.000 NA
ATOM     18  C   UNL     1      23.813  32.936  51.885  0.00  0.00    +0.000 A 
ATOM     19  C   UNL     1      22.884  33.299  52.817  0.00  0.00    +0.000 A 
ENDBRANCH   1  14
BRANCH   4  20
ATOM     20  C   UNL     1      18.051  36.861  49.158  0.00  0.00    +0.000 A 
ATOM     21  C   UNL     1      17.342  38.060  49.313  0.00  0.00    +0.000 A 
ATOM     22  C   UNL     1      16.887  38.803  48.213  0.00  0.00    +0.000 A 
ATOM     23  C   UNL     1      17.130  38.381  46.900  0.00  0.00    +0.000 A 
ATOM     24  C   UNL     1      17.844  37.189  46.732  0.00  0.00    +0.000 A 
ATOM     25  C   UNL     1      18.292  36.451  47.838  0.00  0.00    +0.000 A 
BRANCH  23  26
ATOM     26  C   UNL     1      16.657  39.157  45.746  0.00  0.00    +0.000 A 
ATOM     27  C   UNL     1      16.919  38.759  44.428  0.00  0.00    +0.000 A 
ATOM     28  C   UNL     1      16.459  39.521  43.356  0.00  0.00    +0.000 A 
ATOM     29  C   UNL     1      15.741  40.673  43.629  0.00  0.00    +0.000 A 
ATOM     30  N   UNL     1      15.461  41.101  44.877  0.00  0.00    +0.000 NA
ATOM     31  C   UNL     1      15.923  40.335  45.897  0.00  0.00    +0.000 A 
ENDBRANCH  23  26
ENDBRANCH   4  20
TORSDOF 3
ENDMDL
MODEL 2
REMARK VINA RESULT:    -6.269      9.875     16.125
REMARK INTER + INTRA:          -8.471
REMARK INTER:                  -7.554
REMARK INTRA:                  -0.916
REMARK UNBOUND:                -1.102
REMARK  Name = 
REMARK  3 active torsions:
REMARK  status: ('A' for Active; 'I' for Inactive)
REMARK    1  A    between atoms: C_8  and  C_9
REMARK    2  A    between atoms: N_12  and  C_13
REMARK    3  A    between atoms: C_16  and  C_17
REMARK                            x       y       z     vdW  Elec       q    Type
REMARK                         _______ _______ _______ _____ _____    ______ ____
ROOT
ATOM      1  C   UNL     1      12.006  49.018  45.151  0.00  0.00    +0.000 C 
ATOM      2  C   UNL     1      12.901  48.336  46.208  0.00  0.00    +0.000 C 
ATOM      3  C   UNL     1      13.967  47.416  45.608  0.00  0.00    +0.000 C 
ATOM      4  N   UNL     1      13.340  46.433  44.726  0.00  0.00    +0.000 N 
ATOM      5  C   UNL     1      12.294  46.895  43.805  0.00  0.00    +0.000 C 
ATOM      6  C   UNL     1      12.232  48.421  43.752  0.00  0.00    +0.000 C 
ENDROOT
BRANCH   1  14
ATOM      7  F   UNL     1      14.673  50.088  43.657  0.00  0.00    +0.000 F 
ATOM      8  C   UNL     1      14.684  50.850  44.757  0.00  0.00    +0.000 A 
ATOM      9  C   UNL     1      15.875  51.428  45.195  0.00  0.00    +0.000 A 
ATOM     10  C   UNL     1      15.893  52.236  46.347  0.00  0.00    +0.000 A 
ATOM     11  C   UNL     1      14.721  52.477  47.072  0.00  0.00    +0.000 A 
ATOM     12  C   UNL     1      13.558  51.891  46.619  0.00  0.00    +0.000 A 
ATOM     13  C   UNL     1      13.526  51.071  45.469  0.00  0.00    +0.000 A 
ATOM     14  C   UNL     1      12.110  50.560  45.203  0.00  0.00    +0.000 C 
ATOM     15  N   UNL     1      11.404  51.203  46.305  0.00  0.00    +0.000 N 
ATOM     16  C   UNL     1      10.132  51.340  46.720  0.00  0.00    +0.000 A 
ATOM     17  N   UNL     1      10.088  52.096  47.803  0.00  0.00    +0.000 NA
ATOM     18  C   UNL     1      11.392  52.492  48.055  0.00  0.00    +0.000 A 
ATOM     19  C   UNL     1      12.220  51.959  47.110  0.00  0.00    +0.000 A 
ENDBRANCH   1  14
BRANCH   4  20
ATOM     20  C   UNL     1      13.963  45.216  44.459  0.00  0.00    +0.000 A 
ATOM     21  C   UNL     1      14.306  44.810  43.162  0.00  0.00    +0.000 A 
ATOM     22  C   UNL     1      14.942  43.585  42.911  0.00  0.00    +0.000 A 
ATOM     23  C   UNL     1      15.272  42.709  43.952  0.00  0.00    +0.000 A 
ATOM     24  C   UNL     1      14.941  43.107  45.252  0.00  0.00    +0.000 A 
ATOM     25  C   UNL     1      14.302  44.332  45.495  0.00  0.00    +0.000 A 
BRANCH  23  26
ATOM     26  C   UNL     1      15.940  41.427  43.692  0.00  0.00    +0.000 A 
ATOM     27  C   UNL     1      16.541  41.140  42.460  0.00  0.00    +0.000 A 
ATOM     28  C   UNL     1      17.163  39.911  42.246  0.00  0.00    +0.000 A 
ATOM     29  C   UNL     1      17.170  38.991  43.280  0.00  0.00    +0.000 A 
ATOM     30  N   UNL     1      16.607  39.216  44.484  0.00  0.00    +0.000 NA
ATOM     31  C   UNL     1      16.012  40.421  44.659  0.00  0.00    +0.000 A 
ENDBRANCH  23  26
ENDBRANCH   4  20
TORSDOF 3
ENDMDL
MODEL 3
REMARK VINA RESULT:    -6.049      6.181     11.165
REMARK INTER + INTRA:          -8.212
REMARK INTER:                  -7.109
REMARK INTRA:                  -1.102
REMARK UNBOUND:                -1.102
REMARK  Name = 
REMARK  3 active torsions:
REMARK  status: ('A' for Active; 'I' for Inactive)
REMARK    1  A    between atoms: C_8  and  C_9
REMARK    2  A    between atoms: N_12  and  C_13
REMARK    3  A    between atoms: C_16  and  C_17
REMARK                            x       y       z     vdW  Elec       q    Type
REMARK                         _______ _______ _______ _____ _____    ______ ____
ROOT
ATOM      1  C   UNL     1      15.264  39.019  45.772  0.00  0.00    +0.000 C 
ATOM      2  C   UNL     1      14.038  39.226  46.686  0.00  0.00    +0.000 C 
ATOM      3  C   UNL     1      14.344  40.028  47.952  0.00  0.00    +0.000 C 
ATOM      4  N   UNL     1      15.451  39.411  48.679  0.00  0.00    +0.000 N 
ATOM      5  C   UNL     1      16.614  38.948  47.911  0.00  0.00    +0.000 C 
ATOM      6  C   UNL     1      16.565  39.452  46.469  0.00  0.00    +0.000 C 
ENDROOT
BRANCH   1  14
ATOM      7  F   UNL     1      15.548  36.804  43.427  0.00  0.00    +0.000 F 
ATOM      8  C   UNL     1      16.245  37.815  42.897  0.00  0.00    +0.000 A 
ATOM      9  C   UNL     1      17.197  37.566  41.909  0.00  0.00    +0.000 A 
ATOM     10  C   UNL     1      17.930  38.625  41.342  0.00  0.00    +0.000 A 
ATOM     11  C   UNL     1      17.717  39.945  41.753  0.00  0.00    +0.000 A 
ATOM     12  C   UNL     1      16.772  40.164  42.733  0.00  0.00    +0.000 A 
ATOM     13  C   UNL     1      16.035  39.109  43.318  0.00  0.00    +0.000 A 
ATOM     14  C   UNL     1      15.063  39.642  44.370  0.00  0.00    +0.000 C 
ATOM     15  N   UNL     1      15.345  41.069  44.268  0.00  0.00    +0.000 N 
ATOM     16  C   UNL     1      14.854  42.214  44.776  0.00  0.00    +0.000 A 
ATOM     17  N   UNL     1      15.506  43.248  44.273  0.00  0.00    +0.000 NA
ATOM     18  C   UNL     1      16.421  42.730  43.370  0.00  0.00    +0.000 A 
ATOM     19  C   UNL     1      16.312  41.370  43.342  0.00  0.00    +0.000 A 
ENDBRANCH   1  14
BRANCH   4  20
ATOM     20  C   UNL     1      15.604  39.611  50.049  0.00  0.00    +0.000 A 
ATOM     21  C   UNL     1      16.713  39.139  50.764  0.00  0.00    +0.000 A 
ATOM     22  C   UNL     1      16.858  39.358  52.143  0.00  0.00    +0.000 A 
ATOM     23  C   UNL     1      15.897  40.069  52.871  0.00  0.00    +0.000 A 
ATOM     24  C   UNL     1      14.788  40.552  52.166  0.00  0.00    +0.000 A 
ATOM     25  C   UNL     1      14.649  40.326  50.789  0.00  0.00    +0.000 A 
BRANCH  23  26
ATOM     26  C   UNL     1      16.046  40.302  54.313  0.00  0.00    +0.000 A 
ATOM     27  C   UNL     1      16.932  39.552  55.097  0.00  0.00    +0.000 A 
ATOM     28  C   UNL     1      17.046  39.796  56.465  0.00  0.00    +0.000 A 
ATOM     29  C   UNL     1      16.265  40.795  57.020  0.00  0.00    +0.000 A 
ATOM     30  N   UNL     1      15.397  41.546  56.312  0.00  0.00    +0.000 NA
ATOM     31  C   UNL     1      15.312  41.283  54.984  0.00  0.00    +0.000 A 
ENDBRANCH  23  26
ENDBRANCH   4  20
TORSDOF 3
ENDMDL
