MODEL 1
REMARK VINA RESULT:    -6.456      0.000      0.000
REMARK INTER + INTRA:          -9.631
REMARK INTER:                  -9.676
REMARK INTRA:                   0.046
REMARK UNBOUND:                -0.910
REMARK  Name = 
REMARK  6 active torsions:
REMARK  status: ('A' for Active; 'I' for Inactive)
REMARK    1  A    between atoms: C_1  and  C_9
REMARK    2  A    between atoms: C_2  and  C_3
REMARK    3  A    between atoms: C_9  and  N_10
REMARK    4  A    between atoms: N_13  and  C_14
REMARK    5  A    between atoms: C_14  and  C_15
REMARK    6  A    between atoms: C_14  and  C_21
REMARK                            x       y       z     vdW  Elec       q    Type
REMARK                         _______ _______ _______ _____ _____    ______ ____
ROOT
ATOM      1  N   UNL     1      16.154  39.716  47.426  0.00  0.00    +0.000 NA
ATOM      2  C   UNL     1      15.174  39.288  48.434  0.00  0.00    +0.000 C 
ATOM      3  C   UNL     1      15.849  38.778  49.740  0.00  0.00    +0.000 C 
ATOM      4  N   UNL     1      17.180  38.185  49.550  0.00  0.00    +0.000 NA
ATOM      5  C   UNL     1      17.303  37.567  48.232  0.00  0.00    +0.000 C 
ATOM      6  C   UNL     1      17.051  38.588  47.088  0.00  0.00    +0.000 C 
ENDROOT
BRANCH   1   7
ATOM      7  C   UNL     1      15.550  40.277  46.215  0.00  0.00    +0.000 C 
BRANCH   7   8
ATOM      8  C   UNL     1      15.046  41.679  46.418  0.00  0.00    +0.000 C 
ATOM      9  C   UNL     1      14.035  42.221  45.720  0.00  0.00    +0.000 C 
BRANCH   9  10
ATOM     10  C   UNL     1      13.527  43.582  45.935  0.00  0.00    +0.000 A 
ATOM     11  C   UNL     1      14.279  44.669  45.473  0.00  0.00    +0.000 A 
ATOM     12  C   UNL     1      13.839  45.979  45.683  0.00  0.00    +0.000 A 
ATOM     13  C   UNL     1      12.648  46.214  46.366  0.00  0.00    +0.000 A 
ATOM     14  C   UNL     1      11.901  45.142  46.846  0.00  0.00    +0.000 A 
ATOM     15  C   UNL     1      12.340  43.832  46.637  0.00  0.00    +0.000 A 
ENDBRANCH   9  10
ENDBRANCH   7   8
ENDBRANCH   1   7
BRANCH   4  16
ATOM     16  C   UNL     1      17.674  37.412  50.708  0.00  0.00    +0.000 C 
BRANCH  16  17
ATOM     17  C   UNL     1      18.988  36.662  50.432  0.00  0.00    +0.000 A 
ATOM     18  C   UNL     1      19.151  35.834  49.307  0.00  0.00    +0.000 A 
ATOM     19  C   UNL     1      20.354  35.163  49.079  0.00  0.00    +0.000 A 
ATOM     20  C   UNL     1      21.413  35.308  49.971  0.00  0.00    +0.000 A 
ATOM     21  C   UNL     1      21.273  36.127  51.089  0.00  0.00    +0.000 A 
ATOM     22  C   UNL     1      20.071  36.799  51.318  0.00  0.00    +0.000 A 
ENDBRANCH  16  17
BRANCH  16  23
ATOM     23  C   UNL     1      17.652  38.208  52.031  0.00  0.00    +0.000 A 
ATOM     24  C   UNL     1      17.025  37.685  53.179  0.00  0.00    +0.000 A 
ATOM     25  C   UNL     1      16.960  38.418  54.368  0.00  0.00    +0.000 A 
ATOM     26  C   UNL     1      17.501  39.700  54.428  0.00  0.00    +0.000 A 
ATOM     27  C   UNL     1      18.092  40.253  53.297  0.00  0.00    +0.000 A 
ATOM     28  C   UNL     1      18.155  39.520  52.108  0.00  0.00    +0.000 A 
ENDBRANCH  16  23
ENDBRANCH   4  16
TORSDOF 6
ENDMDL
MODEL 2
REMARK VINA RESULT:    -5.994      2.678      9.968
REMARK INTER + INTRA:          -9.007
REMARK INTER:                  -8.188
REMARK INTRA:                  -0.819
REMARK UNBOUND:                -0.910
REMARK  Name = 
REMARK  6 active torsions:
REMARK  status: ('A' for Active; 'I' for Inactive)
REMARK    1  A    between atoms: C_1  and  C_9
REMARK    2  A    between atoms: C_2  and  C_3
REMARK    3  A    between atoms: C_9  and  N_10
REMARK    4  A    between atoms: N_13  and  C_14
REMARK    5  A    between atoms: C_14  and  C_15
REMARK    6  A    between atoms: C_14  and  C_21
REMARK                            x       y       z     vdW  Elec       q    Type
REMARK                         _______ _______ _______ _____ _____    ______ ____
ROOT
ATOM      1  N   UNL     1      13.835  41.474  47.418  0.00  0.00    +0.000 NA
ATOM      2  C   UNL     1      15.067  41.502  46.616  0.00  0.00    +0.000 C 
ATOM      3  C   UNL     1      15.335  42.899  45.986  0.00  0.00    +0.000 C 
ATOM      4  N   UNL     1      14.126  43.687  45.707  0.00  0.00    +0.000 NA
ATOM      5  C   UNL     1      12.987  42.823  45.406  0.00  0.00    +0.000 C 
ATOM      6  C   UNL     1      12.678  41.845  46.573  0.00  0.00    +0.000 C 
ENDROOT
BRANCH   1   7
ATOM      7  C   UNL     1      13.597  40.196  48.090  0.00  0.00    +0.000 C 
BRANCH   7   8
ATOM      8  C   UNL     1      14.670  39.859  49.088  0.00  0.00    +0.000 C 
ATOM      9  C   UNL     1      14.946  40.600  50.173  0.00  0.00    +0.000 C 
BRANCH   9  10
ATOM     10  C   UNL     1      15.978  40.258  51.160  0.00  0.00    +0.000 A 
ATOM     11  C   UNL     1      16.219  41.135  52.224  0.00  0.00    +0.000 A 
ATOM     12  C   UNL     1      17.211  40.854  53.168  0.00  0.00    +0.000 A 
ATOM     13  C   UNL     1      17.979  39.698  53.049  0.00  0.00    +0.000 A 
ATOM     14  C   UNL     1      17.761  38.826  51.984  0.00  0.00    +0.000 A 
ATOM     15  C   UNL     1      16.770  39.107  51.041  0.00  0.00    +0.000 A 
ENDBRANCH   9  10
ENDBRANCH   7   8
ENDBRANCH   1   7
BRANCH   4  16
ATOM     16  C   UNL     1      14.346  44.848  44.820  0.00  0.00    +0.000 C 
BRANCH  16  17
ATOM     17  C   UNL     1      14.144  44.532  43.330  0.00  0.00    +0.000 A 
ATOM     18  C   UNL     1      15.119  43.855  42.573  0.00  0.00    +0.000 A 
ATOM     19  C   UNL     1      14.913  43.581  41.220  0.00  0.00    +0.000 A 
ATOM     20  C   UNL     1      13.731  43.977  40.600  0.00  0.00    +0.000 A 
ATOM     21  C   UNL     1      12.752  44.645  41.332  0.00  0.00    +0.000 A 
ATOM     22  C   UNL     1      12.957  44.920  42.685  0.00  0.00    +0.000 A 
ENDBRANCH  16  17
BRANCH  16  23
ATOM     23  C   UNL     1      13.641  46.133  45.307  0.00  0.00    +0.000 A 
ATOM     24  C   UNL     1      14.150  47.406  44.982  0.00  0.00    +0.000 A 
ATOM     25  C   UNL     1      13.545  48.573  45.456  0.00  0.00    +0.000 A 
ATOM     26  C   UNL     1      12.430  48.493  46.286  0.00  0.00    +0.000 A 
ATOM     27  C   UNL     1      11.931  47.248  46.653  0.00  0.00    +0.000 A 
ATOM     28  C   UNL     1      12.537  46.081  46.179  0.00  0.00    +0.000 A 
ENDBRANCH  16  23
ENDBRANCH   4  16
TORSDOF 6
ENDMDL
MODEL 3
REMARK VINA RESULT:    -5.993      1.974      4.430
REMARK INTER + INTRA:          -9.006
REMARK INTER:                  -8.096
REMARK INTRA:                  -0.910
REMARK UNBOUND:                -0.910
REMARK  Name = 
REMARK  6 active torsions:
REMARK  status: ('A' for Active; 'I' for Inactive)
REMARK    1  A    between atoms: C_1  and  C_9
REMARK    2  A    between atoms: C_2  and  C_3
REMARK    3  A    between atoms: C_9  and  N_10
REMARK    4  A    between atoms: N_13  and  C_14
REMARK    5  A    between atoms: C_14  and  C_15
REMARK    6  A    between atoms: C_14  and  C_21
REMARK                            x       y       z     vdW  Elec       q    Type
REMARK                         _______ _______ _______ _____ _____    ______ ____
ROOT
ATOM      1  N   UNL     1      15.142  39.836  49.778  0.00  0.00    +0.000 NA
ATOM      2  C   UNL     1      15.660  40.553  50.952  0.00  0.00    +0.000 C 
ATOM      3  C   UNL     1      16.989  39.943  51.482  0.00  0.00    +0.000 C 
ATOM      4  N   UNL     1      17.143  38.503  51.235  0.00  0.00    +0.000 NA
ATOM      5  C   UNL     1      15.848  37.827  51.210  0.00  0.00    +0.000 C 
ATOM      6  C   UNL     1      14.909  38.416  50.120  0.00  0.00    +0.000 C 
ENDROOT
BRANCH   1   7
ATOM      7  C   UNL     1      13.934  40.435  49.205  0.00  0.00    +0.000 C 
BRANCH   7   8
ATOM      8  C   UNL     1      14.194  41.112  47.888  0.00  0.00    +0.000 C 
ATOM      9  C   UNL     1      15.183  40.765  47.048  0.00  0.00    +0.000 C 
BRANCH   9  10
ATOM     10  C   UNL     1      15.422  41.410  45.750  0.00  0.00    +0.000 A 
ATOM     11  C   UNL     1      15.041  42.746  45.576  0.00  0.00    +0.000 A 
ATOM     12  C   UNL     1      15.229  43.384  44.347  0.00  0.00    +0.000 A 
ATOM     13  C   UNL     1      15.789  42.689  43.278  0.00  0.00    +0.000 A 
ATOM     14  C   UNL     1      16.155  41.354  43.434  0.00  0.00    +0.000 A 
ATOM     15  C   UNL     1      15.967  40.715  44.662  0.00  0.00    +0.000 A 
ENDBRANCH   9  10
ENDBRANCH   7   8
ENDBRANCH   1   7
BRANCH   4  16
ATOM     16  C   UNL     1      18.224  37.863  52.013  0.00  0.00    +0.000 C 
BRANCH  16  17
ATOM     17  C   UNL     1      17.746  37.238  53.333  0.00  0.00    +0.000 A 
ATOM     18  C   UNL     1      17.614  35.846  53.494  0.00  0.00    +0.000 A 
ATOM     19  C   UNL     1      17.177  35.303  54.703  0.00  0.00    +0.000 A 
ATOM     20  C   UNL     1      16.864  36.139  55.772  0.00  0.00    +0.000 A 
ATOM     21  C   UNL     1      16.991  37.519  55.634  0.00  0.00    +0.000 A 
ATOM     22  C   UNL     1      17.428  38.065  54.425  0.00  0.00    +0.000 A 
ENDBRANCH  16  17
BRANCH  16  23
ATOM     23  C   UNL     1      19.134  36.951  51.161  0.00  0.00    +0.000 A 
ATOM     24  C   UNL     1      20.468  36.700  51.542  0.00  0.00    +0.000 A 
ATOM     25  C   UNL     1      21.312  35.914  50.754  0.00  0.00    +0.000 A 
ATOM     26  C   UNL     1      20.849  35.379  49.554  0.00  0.00    +0.000 A 
ATOM     27  C   UNL     1      19.549  35.643  49.137  0.00  0.00    +0.000 A 
ATOM     28  C   UNL     1      18.705  36.431  49.926  0.00  0.00    +0.000 A 
ENDBRANCH  16  23
ENDBRANCH   4  16
TORSDOF 6
ENDMDL
