MODEL 1
REMARK VINA RESULT:    -6.784      0.000      0.000
REMARK INTER + INTRA:          -9.094
REMARK INTER:                  -8.327
REMARK INTRA:                  -0.767
REMARK UNBOUND:                -0.723
REMARK  Name = 
REMARK  5 active torsions:
REMARK  status: ('A' for Active; 'I' for Inactive)
REMARK    1  A    between atoms: C_1  and  O_2
REMARK    2  A    between atoms: O_2  and  C_3
REMARK    3  A    between atoms: C_4  and  C_5
REMARK    4  A    between atoms: N_7  and  C_8
REMARK    5  A    between atoms: N_11  and  C_12
REMARK                            x       y       z     vdW  Elec       q    Type
REMARK                         _______ _______ _______ _____ _____    ______ ____
ROOT
ATOM      1  C   UNL     1      14.102  44.623  45.756  0.00  0.00    +0.000 C 
ATOM      2  O   UNL     1      13.097  44.647  46.459  0.00  0.00    +0.000 OA
ATOM      3  N   UNL     1      14.760  45.756  45.331  0.00  0.00    +0.000 N 
ATOM      4  H   UNL     1      15.491  45.642  44.635  0.00  0.00    +0.000 HD
ENDROOT
BRANCH   1   6
ATOM      5  C   UNL     1      15.198  43.058  44.061  0.00  0.00    +0.000 A 
ATOM      6  C   UNL     1      14.687  43.317  45.343  0.00  0.00    +0.000 A 
ATOM      7  C   UNL     1      14.717  42.305  46.302  0.00  0.00    +0.000 A 
ATOM      8  C   UNL     1      15.290  41.065  46.005  0.00  0.00    +0.000 A 
ATOM      9 BR   UNL     1      15.266  39.773  47.408  0.00  0.00    +0.000 Br
ATOM     10  C   UNL     1      15.864  40.799  44.735  0.00  0.00    +0.000 A 
ATOM     11  C   UNL     1      16.481  39.570  44.390  0.00  0.00    +0.000 A 
ATOM     12  C   UNL     1      17.046  39.355  43.133  0.00  0.00    +0.000 A 
ATOM     13  C   UNL     1      17.016  40.363  42.183  0.00  0.00    +0.000 A 
ATOM     14  C   UNL     1      16.413  41.581  42.490  0.00  0.00    +0.000 A 
ATOM     15  C   UNL     1      15.823  41.823  43.752  0.00  0.00    +0.000 A 
BRANCH   5  17
ATOM     16  C   UNL     1      13.884  43.915  42.374  0.00  0.00    +0.000 C 
ATOM     17  O   UNL     1      15.126  44.031  43.084  0.00  0.00    +0.000 OA
ENDBRANCH   5  17
ENDBRANCH   1   6
BRANCH   3  18
ATOM     18  C   UNL     1      14.225  47.085  45.571  0.00  0.00    +0.000 C 
ATOM     19  C   UNL     1      13.147  47.478  44.554  0.00  0.00    +0.000 C 
ATOM     20  C   UNL     1      13.559  48.855  44.039  0.00  0.00    +0.000 C 
ATOM     21  N   UNL     1      14.491  49.348  45.049  0.00  0.00    +0.000 NA
ATOM     22  C   UNL     1      15.283  48.189  45.453  0.00  0.00    +0.000 C 
BRANCH  21  23
ATOM     23  C   UNL     1      15.214  50.581  44.698  0.00  0.00    +0.000 C 
ATOM     24  C   UNL     1      16.717  50.247  44.578  0.00  0.00    +0.000 C 
ATOM     25  C   UNL     1      17.621  51.474  44.699  0.00  0.00    +0.000 C 
ATOM     26  C   UNL     1      17.895  52.211  43.393  0.00  0.00    +0.000 C 
ATOM     27  C   UNL     1      16.721  52.387  42.438  0.00  0.00    +0.000 C 
ATOM     28  C   UNL     1      15.372  52.627  43.107  0.00  0.00    +0.000 C 
ATOM     29  C   UNL     1      14.651  51.325  43.470  0.00  0.00    +0.000 C 
ENDBRANCH  21  23
ENDBRANCH   3  18
TORSDOF 4
ENDMDL
MODEL 2
REMARK VINA RESULT:    -6.404      5.710     11.075
REMARK INTER + INTRA:          -8.625
REMARK INTER:                  -7.951
REMARK INTRA:                  -0.674
REMARK UNBOUND:                -0.723
REMARK  Name = 
REMARK  5 active torsions:
REMARK  status: ('A' for Active; 'I' for Inactive)
REMARK    1  A    between atoms: C_1  and  O_2
REMARK    2  A    between atoms: O_2  and  C_3
REMARK    3  A    between atoms: C_4  and  C_5
REMARK    4  A    between atoms: N_7  and  C_8
REMARK    5  A    between atoms: N_11  and  C_12
REMARK                            x       y       z     vdW  Elec       q    Type
REMARK                         _______ _______ _______ _____ _____    ______ ____
ROOT
ATOM      1  C   UNL     1      15.859  39.042  47.122  0.00  0.00    +0.000 C 
ATOM      2  O   UNL     1      15.439  37.926  46.831  0.00  0.00    +0.000 OA
ATOM      3  N   UNL     1      16.520  39.324  48.297  0.00  0.00    +0.000 N 
ATOM      4  H   UNL     1      16.697  40.301  48.513  0.00  0.00    +0.000 HD
ENDROOT
BRANCH   1   6
ATOM      5  C   UNL     1      15.028  41.370  46.479  0.00  0.00    +0.000 A 
ATOM      6  C   UNL     1      15.687  40.171  46.165  0.00  0.00    +0.000 A 
ATOM      7  C   UNL     1      16.217  40.003  44.885  0.00  0.00    +0.000 A 
ATOM      8  C   UNL     1      16.135  41.034  43.945  0.00  0.00    +0.000 A 
ATOM      9 BR   UNL     1      16.903  40.672  42.237  0.00  0.00    +0.000 Br
ATOM     10  C   UNL     1      15.525  42.276  44.258  0.00  0.00    +0.000 A 
ATOM     11  C   UNL     1      15.438  43.363  43.351  0.00  0.00    +0.000 A 
ATOM     12  C   UNL     1      14.842  44.573  43.704  0.00  0.00    +0.000 A 
ATOM     13  C   UNL     1      14.316  44.736  44.976  0.00  0.00    +0.000 A 
ATOM     14  C   UNL     1      14.383  43.685  45.889  0.00  0.00    +0.000 A 
ATOM     15  C   UNL     1      14.972  42.444  45.555  0.00  0.00    +0.000 A 
BRANCH   5  17
ATOM     16  C   UNL     1      13.114  41.006  47.707  0.00  0.00    +0.000 C 
ATOM     17  O   UNL     1      14.449  41.530  47.723  0.00  0.00    +0.000 OA
ENDBRANCH   5  17
ENDBRANCH   1   6
BRANCH   3  18
ATOM     18  C   UNL     1      16.648  38.339  49.356  0.00  0.00    +0.000 C 
ATOM     19  C   UNL     1      17.102  38.957  50.683  0.00  0.00    +0.000 C 
ATOM     20  C   UNL     1      18.279  38.102  51.148  0.00  0.00    +0.000 C 
ATOM     21  N   UNL     1      18.139  36.863  50.388  0.00  0.00    +0.000 NA
ATOM     22  C   UNL     1      17.702  37.267  49.054  0.00  0.00    +0.000 C 
BRANCH  21  23
ATOM     23  C   UNL     1      19.273  35.929  50.483  0.00  0.00    +0.000 C 
ATOM     24  C   UNL     1      19.662  35.489  49.054  0.00  0.00    +0.000 C 
ATOM     25  C   UNL     1      20.469  34.191  49.021  0.00  0.00    +0.000 C 
ATOM     26  C   UNL     1      21.978  34.359  49.155  0.00  0.00    +0.000 C 
ATOM     27  C   UNL     1      22.473  35.380  50.172  0.00  0.00    +0.000 C 
ATOM     28  C   UNL     1      21.641  35.480  51.447  0.00  0.00    +0.000 C 
ATOM     29  C   UNL     1      20.464  36.451  51.311  0.00  0.00    +0.000 C 
ENDBRANCH  21  23
ENDBRANCH   3  18
TORSDOF 4
ENDMDL
MODEL 3
REMARK VINA RESULT:    -6.192      5.528     10.736
REMARK INTER + INTRA:          -8.364
REMARK INTER:                  -7.641
REMARK INTRA:                  -0.723
REMARK UNBOUND:                -0.723
REMARK  Name = 
REMARK  5 active torsions:
REMARK  status: ('A' for Active; 'I' for Inactive)
REMARK    1  A    between atoms: C_1  and  O_2
REMARK    2  A    between atoms: O_2  and  C_3
REMARK    3  A    between atoms: C_4  and  C_5
REMARK    4  A    between atoms: N_7  and  C_8
REMARK    5  A    between atoms: N_11  and  C_12
REMARK                            x       y       z     vdW  Elec       q    Type
REMARK                         _______ _______ _______ _____ _____    ______ ____
ROOT
ATOM      1  C   UNL     1      14.800  39.794  47.834  0.00  0.00    +0.000 C 
ATOM      2  O   UNL     1      13.812  39.092  48.026  0.00  0.00    +0.000 OA
ATOM      3  N   UNL     1      16.003  39.605  48.478  0.00  0.00    +0.000 N 
ATOM      4  H   UNL     1      16.714  40.323  48.365  0.00  0.00    +0.000 HD
ENDROOT
BRANCH   1   6
ATOM      5  C   UNL     1      15.567  40.982  45.707  0.00  0.00    +0.000 A 
ATOM      6  C   UNL     1      14.741  40.902  46.840  0.00  0.00    +0.000 A 
ATOM      7  C   UNL     1      13.804  41.910  47.070  0.00  0.00    +0.000 A 
ATOM      8  C   UNL     1      13.658  42.960  46.160  0.00  0.00    +0.000 A 
ATOM      9 BR   UNL     1      12.339  44.268  46.596  0.00  0.00    +0.000 Br
ATOM     10  C   UNL     1      14.441  43.032  44.978  0.00  0.00    +0.000 A 
ATOM     11  C   UNL     1      14.315  44.060  44.010  0.00  0.00    +0.000 A 
ATOM     12  C   UNL     1      15.095  44.085  42.854  0.00  0.00    +0.000 A 
ATOM     13  C   UNL     1      16.024  43.082  42.629  0.00  0.00    +0.000 A 
ATOM     14  C   UNL     1      16.174  42.060  43.564  0.00  0.00    +0.000 A 
ATOM     15  C   UNL     1      15.404  42.015  44.749  0.00  0.00    +0.000 A 
BRANCH   5  17
ATOM     16  C   UNL     1      15.968  38.910  44.786  0.00  0.00    +0.000 C 
ATOM     17  O   UNL     1      16.536  40.021  45.494  0.00  0.00    +0.000 OA
ENDBRANCH   5  17
ENDBRANCH   1   6
BRANCH   3  18
ATOM     18  C   UNL     1      16.152  38.636  49.549  0.00  0.00    +0.000 C 
ATOM     19  C   UNL     1      16.649  39.270  50.853  0.00  0.00    +0.000 C 
ATOM     20  C   UNL     1      17.830  38.412  51.298  0.00  0.00    +0.000 C 
ATOM     21  N   UNL     1      17.658  37.162  50.562  0.00  0.00    +0.000 NA
ATOM     22  C   UNL     1      17.188  37.549  49.234  0.00  0.00    +0.000 C 
BRANCH  21  23
ATOM     23  C   UNL     1      18.786  36.219  50.640  0.00  0.00    +0.000 C 
ATOM     24  C   UNL     1      19.226  35.866  49.202  0.00  0.00    +0.000 C 
ATOM     25  C   UNL     1      20.031  34.570  49.118  0.00  0.00    +0.000 C 
ATOM     26  C   UNL     1      21.535  34.723  49.317  0.00  0.00    +0.000 C 
ATOM     27  C   UNL     1      21.994  35.677  50.413  0.00  0.00    +0.000 C 
ATOM     28  C   UNL     1      21.116  35.702  51.660  0.00  0.00    +0.000 C 
ATOM     29  C   UNL     1      19.947  36.684  51.542  0.00  0.00    +0.000 C 
ENDBRANCH  21  23
ENDBRANCH   3  18
TORSDOF 4
ENDMDL
