MODEL 1
REMARK VINA RESULT:    -7.884      0.000      0.000
REMARK INTER + INTRA:          -9.567
REMARK INTER:                  -8.840
REMARK INTRA:                  -0.727
REMARK UNBOUND:                 0.160
REMARK  Name = 
REMARK  6 active torsions:
REMARK  status: ('A' for Active; 'I' for Inactive)
REMARK    1  A    between atoms: C_1  and  O_2
REMARK    2  A    between atoms: O_2  and  C_3
REMARK    3  A    between atoms: C_8  and  C_9
REMARK    4  A    between atoms: N_16  and  C_17
REMARK    5  A    between atoms: C_20  and  C_21
REMARK    6  A    between atoms: C_22  and  C_23
REMARK                            x       y       z     vdW  Elec       q    Type
REMARK                         _______ _______ _______ _____ _____    ______ ____
ROOT
ATOM      1  C   UNL     1      26.489  34.684  48.602  0.00  0.00    +0.000 A 
ATOM      2  C   UNL     1      26.599  33.966  49.798  0.00  0.00    +0.000 A 
ATOM      3  C   UNL     1      25.469  33.810  50.589  0.00  0.00    +0.000 A 
ATOM      4  C   UNL     1      24.242  34.374  50.238  0.00  0.00    +0.000 A 
ATOM      5  C   UNL     1      24.110  35.059  49.043  0.00  0.00    +0.000 A 
ATOM      6  C   UNL     1      25.243  35.228  48.217  0.00  0.00    +0.000 A 
ATOM      7  N   UNL     1      23.282  34.058  51.217  0.00  0.00    +0.000 N 
ATOM      8  C   UNL     1      21.947  34.406  51.332  0.00  0.00    +0.000 C 
ATOM      9  O   UNL     1      21.181  33.732  52.019  0.00  0.00    +0.000 OA
ATOM     10  N   UNL     1      21.599  35.573  50.694  0.00  0.00    +0.000 N 
ATOM     11  C   UNL     1      23.857  33.041  52.105  0.00  0.00    +0.000 C 
ATOM     12  C   UNL     1      25.373  33.082  51.895  0.00  0.00    +0.000 C 
ATOM     13  H   UNL     1      22.368  36.212  50.558  0.00  0.00    +0.000 HD
ENDROOT
BRANCH  10  14
ATOM     14  C   UNL     1      20.306  36.101  50.511  0.00  0.00    +0.000 A 
ATOM     15  C   UNL     1      19.531  35.868  49.379  0.00  0.00    +0.000 A 
ATOM     16  C   UNL     1      18.263  36.444  49.260  0.00  0.00    +0.000 A 
ATOM     17  C   UNL     1      17.745  37.269  50.268  0.00  0.00    +0.000 A 
ATOM     18  C   UNL     1      16.374  37.866  50.096  0.00  0.00    +0.000 C 
ATOM     19  C   UNL     1      18.525  37.523  51.416  0.00  0.00    +0.000 A 
ATOM     20  C   UNL     1      19.801  36.935  51.517  0.00  0.00    +0.000 A 
BRANCH  19  21
ATOM     21  C   UNL     1      18.052  38.378  52.508  0.00  0.00    +0.000 A 
ATOM     22  C   UNL     1      17.408  37.844  53.629  0.00  0.00    +0.000 A 
ATOM     23  C   UNL     1      16.976  38.685  54.652  0.00  0.00    +0.000 A 
ATOM     24  C   UNL     1      17.202  40.045  54.523  0.00  0.00    +0.000 A 
ATOM     25  N   UNL     1      17.819  40.606  53.462  0.00  0.00    +0.000 NA
ATOM     26  C   UNL     1      18.228  39.762  52.483  0.00  0.00    +0.000 A 
ENDBRANCH  19  21
ENDBRANCH  10  14
BRANCH   6  27
ATOM     27  C   UNL     1      25.113  35.978  46.912  0.00  0.00    +0.000 C 
ATOM     28  F   UNL     1      23.811  36.195  46.557  0.00  0.00    +0.000 F 
ATOM     29  F   UNL     1      25.680  37.216  46.945  0.00  0.00    +0.000 F 
ATOM     30  F   UNL     1      25.669  35.323  45.856  0.00  0.00    +0.000 F 
ENDBRANCH   6  27
BRANCH   1  32
ATOM     31  C   UNL     1      28.300  33.783  47.329  0.00  0.00    +0.000 C 
ATOM     32  O   UNL     1      27.523  34.904  47.734  0.00  0.00    +0.000 OA
ENDBRANCH   1  32
TORSDOF 4
ENDMDL
MODEL 2
REMARK VINA RESULT:    -7.530      9.488     12.526
REMARK INTER + INTRA:          -9.131
REMARK INTER:                  -9.291
REMARK INTRA:                   0.160
REMARK UNBOUND:                 0.160
REMARK  Name = 
REMARK  6 active torsions:
REMARK  status: ('A' for Active; 'I' for Inactive)
REMARK    1  A    between atoms: C_1  and  O_2
REMARK    2  A    between atoms: O_2  and  C_3
REMARK    3  A    between atoms: C_8  and  C_9
REMARK    4  A    between atoms: N_16  and  C_17
REMARK    5  A    between atoms: C_20  and  C_21
REMARK    6  A    between atoms: C_22  and  C_23
REMARK                            x       y       z     vdW  Elec       q    Type
REMARK                         _______ _______ _______ _____ _____    ______ ____
ROOT
ATOM      1  C   UNL     1      15.935  38.615  46.729  0.00  0.00    +0.000 A 
ATOM      2  C   UNL     1      16.346  38.615  45.392  0.00  0.00    +0.000 A 
ATOM      3  C   UNL     1      16.222  39.786  44.657  0.00  0.00    +0.000 A 
ATOM      4  C   UNL     1      15.673  40.945  45.207  0.00  0.00    +0.000 A 
ATOM      5  C   UNL     1      15.292  40.969  46.537  0.00  0.00    +0.000 A 
ATOM      6  C   UNL     1      15.412  39.793  47.309  0.00  0.00    +0.000 A 
ATOM      7  N   UNL     1      15.670  41.968  44.241  0.00  0.00    +0.000 N 
ATOM      8  C   UNL     1      15.209  43.272  44.294  0.00  0.00    +0.000 C 
ATOM      9  O   UNL     1      15.638  44.121  43.513  0.00  0.00    +0.000 OA
ATOM     10  N   UNL     1      14.211  43.493  45.213  0.00  0.00    +0.000 N 
ATOM     11  C   UNL     1      16.479  41.519  43.101  0.00  0.00    +0.000 C 
ATOM     12  C   UNL     1      16.601  39.998  43.222  0.00  0.00    +0.000 C 
ATOM     13  H   UNL     1      13.682  42.667  45.451  0.00  0.00    +0.000 HD
ENDROOT
BRANCH  10  14
ATOM     14  C   UNL     1      13.651  44.728  45.595  0.00  0.00    +0.000 A 
ATOM     15  C   UNL     1      12.460  44.848  46.306  0.00  0.00    +0.000 A 
ATOM     16  C   UNL     1      11.956  46.110  46.633  0.00  0.00    +0.000 A 
ATOM     17  C   UNL     1      12.629  47.279  46.250  0.00  0.00    +0.000 A 
ATOM     18  C   UNL     1      12.048  48.616  46.626  0.00  0.00    +0.000 C 
ATOM     19  C   UNL     1      13.831  47.172  45.520  0.00  0.00    +0.000 A 
ATOM     20  C   UNL     1      14.322  45.891  45.200  0.00  0.00    +0.000 A 
BRANCH  19  21
ATOM     21  C   UNL     1      14.586  48.350  45.083  0.00  0.00    +0.000 A 
ATOM     22  C   UNL     1      13.991  49.356  44.315  0.00  0.00    +0.000 A 
ATOM     23  C   UNL     1      14.736  50.466  43.921  0.00  0.00    +0.000 A 
ATOM     24  C   UNL     1      16.063  50.537  44.311  0.00  0.00    +0.000 A 
ATOM     25  N   UNL     1      16.679  49.593  45.052  0.00  0.00    +0.000 NA
ATOM     26  C   UNL     1      15.928  48.526  45.419  0.00  0.00    +0.000 A 
ENDBRANCH  19  21
ENDBRANCH  10  14
BRANCH   6  27
ATOM     27  C   UNL     1      14.996  39.803  48.761  0.00  0.00    +0.000 C 
ATOM     28  F   UNL     1      15.991  39.379  49.597  0.00  0.00    +0.000 F 
ATOM     29  F   UNL     1      14.658  41.042  49.214  0.00  0.00    +0.000 F 
ATOM     30  F   UNL     1      13.936  38.990  49.024  0.00  0.00    +0.000 F 
ENDBRANCH   6  27
BRANCH   1  32
ATOM     31  C   UNL     1      17.264  36.872  47.684  0.00  0.00    +0.000 C 
ATOM     32  O   UNL     1      16.009  37.530  47.561  0.00  0.00    +0.000 OA
ENDBRANCH   1  32
TORSDOF 4
ENDMDL
MODEL 3
REMARK VINA RESULT:    -7.436      6.985      8.921
REMARK INTER + INTRA:          -9.015
REMARK INTER:                  -8.542
REMARK INTRA:                  -0.473
REMARK UNBOUND:                 0.160
REMARK  Name = 
REMARK  6 active torsions:
REMARK  status: ('A' for Active; 'I' for Inactive)
REMARK    1  A    between atoms: C_1  and  O_2
REMARK    2  A    between atoms: O_2  and  C_3
REMARK    3  A    between atoms: C_8  and  C_9
REMARK    4  A    between atoms: N_16  and  C_17
REMARK    5  A    between atoms: C_20  and  C_21
REMARK    6  A    between atoms: C_22  and  C_23
REMARK                            x       y       z     vdW  Elec       q    Type
REMARK                         _______ _______ _______ _____ _____    ______ ____
ROOT
ATOM      1  C   UNL     1      15.887  40.360  44.673  0.00  0.00    +0.000 A 
ATOM      2  C   UNL     1      16.640  39.202  44.454  0.00  0.00    +0.000 A 
ATOM      3  C   UNL     1      17.071  38.469  45.551  0.00  0.00    +0.000 A 
ATOM      4  C   UNL     1      16.799  38.873  46.858  0.00  0.00    +0.000 A 
ATOM      5  C   UNL     1      16.028  39.998  47.090  0.00  0.00    +0.000 A 
ATOM      6  C   UNL     1      15.573  40.760  45.992  0.00  0.00    +0.000 A 
ATOM      7  N   UNL     1      17.353  37.947  47.761  0.00  0.00    +0.000 N 
ATOM      8  C   UNL     1      17.377  37.924  49.145  0.00  0.00    +0.000 C 
ATOM      9  O   UNL     1      17.550  36.867  49.751  0.00  0.00    +0.000 OA
ATOM     10  N   UNL     1      17.272  39.157  49.744  0.00  0.00    +0.000 N 
ATOM     11  C   UNL     1      17.785  36.770  46.998  0.00  0.00    +0.000 C 
ATOM     12  C   UNL     1      17.881  37.208  45.534  0.00  0.00    +0.000 C 
ATOM     13  H   UNL     1      17.569  39.924  49.159  0.00  0.00    +0.000 HD
ENDROOT
BRANCH  10  14
ATOM     14  C   UNL     1      17.120  39.437  51.116  0.00  0.00    +0.000 A 
ATOM     15  C   UNL     1      17.624  38.626  52.129  0.00  0.00    +0.000 A 
ATOM     16  C   UNL     1      17.416  38.959  53.470  0.00  0.00    +0.000 A 
ATOM     17  C   UNL     1      16.694  40.108  53.827  0.00  0.00    +0.000 A 
ATOM     18  C   UNL     1      16.498  40.426  55.285  0.00  0.00    +0.000 C 
ATOM     19  C   UNL     1      16.169  40.933  52.810  0.00  0.00    +0.000 A 
ATOM     20  C   UNL     1      16.389  40.579  51.465  0.00  0.00    +0.000 A 
BRANCH  19  21
ATOM     21  C   UNL     1      15.402  42.146  53.108  0.00  0.00    +0.000 A 
ATOM     22  C   UNL     1      16.007  43.407  53.129  0.00  0.00    +0.000 A 
ATOM     23  C   UNL     1      15.247  44.540  53.410  0.00  0.00    +0.000 A 
ATOM     24  C   UNL     1      13.895  44.377  53.662  0.00  0.00    +0.000 A 
ATOM     25  N   UNL     1      13.268  43.183  53.651  0.00  0.00    +0.000 NA
ATOM     26  C   UNL     1      14.034  42.099  53.375  0.00  0.00    +0.000 A 
ENDBRANCH  19  21
ENDBRANCH  10  14
BRANCH   6  27
ATOM     27  C   UNL     1      14.734  41.993  46.232  0.00  0.00    +0.000 C 
ATOM     28  F   UNL     1      14.275  42.075  47.517  0.00  0.00    +0.000 F 
ATOM     29  F   UNL     1      15.415  43.154  46.026  0.00  0.00    +0.000 F 
ATOM     30  F   UNL     1      13.622  42.050  45.450  0.00  0.00    +0.000 F 
ENDBRANCH   6  27
BRANCH   1  32
ATOM     31  C   UNL     1      16.341  41.826  42.841  0.00  0.00    +0.000 C 
ATOM     32  O   UNL     1      15.400  41.167  43.680  0.00  0.00    +0.000 OA
ENDBRANCH   1  32
TORSDOF 4
ENDMDL
