MODEL 1
REMARK VINA RESULT:    -6.505      0.000      0.000
REMARK INTER + INTRA:          -7.718
REMARK INTER:                  -6.973
REMARK INTRA:                  -0.745
REMARK UNBOUND:                -0.833
REMARK  Name = 
REMARK  3 active torsions:
REMARK  status: ('A' for Active; 'I' for Inactive)
REMARK    1  A    between atoms: C_1  and  C_2
REMARK    2  A    between atoms: C_3  and  C_4
REMARK    3  A    between atoms: N_22  and  C_23
REMARK                            x       y       z     vdW  Elec       q    Type
REMARK                         _______ _______ _______ _____ _____    ______ ____
ROOT
ATOM      1  C   UNL     1      17.800  38.048  52.497  0.00  0.00    +0.000 C 
ATOM      2  C   UNL     1      17.675  39.383  52.380  0.00  0.00    +0.000 C 
ATOM      3  C   UNL     1      17.445  40.279  53.524  0.00  0.00    +0.000 C 
ATOM      4  O   UNL     1      17.368  41.489  53.364  0.00  0.00    +0.000 OA
ATOM      5  C   UNL     1      17.307  39.652  54.896  0.00  0.00    +0.000 C 
ATOM      6  O   UNL     1      17.078  40.345  55.877  0.00  0.00    +0.000 OA
ATOM      7  C   UNL     1      17.460  38.191  55.002  0.00  0.00    +0.000 A 
ATOM      8  C   UNL     1      17.363  37.592  56.267  0.00  0.00    +0.000 A 
ATOM      9  C   UNL     1      17.508  36.213  56.401  0.00  0.00    +0.000 A 
ATOM     10  C   UNL     1      17.752  35.437  55.273  0.00  0.00    +0.000 A 
ATOM     11  C   UNL     1      17.847  36.037  54.013  0.00  0.00    +0.000 A 
ATOM     12  C   UNL     1      17.700  37.427  53.850  0.00  0.00    +0.000 A 
ENDROOT
BRANCH   1  15
ATOM     13  C   UNL     1      15.642  37.488  50.231  0.00  0.00    +0.000 C 
ATOM     14  C   UNL     1      17.064  37.048  50.319  0.00  0.00    +0.000 A 
ATOM     15  C   UNL     1      18.018  37.289  51.293  0.00  0.00    +0.000 A 
ATOM     16  C   UNL     1      19.241  36.676  50.893  0.00  0.00    +0.000 A 
ATOM     17  C   UNL     1      20.532  36.595  51.457  0.00  0.00    +0.000 A 
ATOM     18  C   UNL     1      21.542  35.905  50.779  0.00  0.00    +0.000 A 
ATOM     19  C   UNL     1      21.283  35.300  49.555  0.00  0.00    +0.000 A 
ATOM     20  C   UNL     1      20.012  35.362  48.976  0.00  0.00    +0.000 A 
ATOM     21  C   UNL     1      19.001  36.054  49.665  0.00  0.00    +0.000 A 
ATOM     22  N   UNL     1      17.670  36.270  49.351  0.00  0.00    +0.000 N 
ATOM     23  C   UNL     1      17.024  35.757  48.161  0.00  0.00    +0.000 C 
ENDBRANCH   1  15
TORSDOF 1
ENDMDL
MODEL 2
REMARK VINA RESULT:    -5.988      9.871     12.752
REMARK INTER + INTRA:          -7.170
REMARK INTER:                  -6.817
REMARK INTRA:                  -0.353
REMARK UNBOUND:                -0.833
REMARK  Name = 
REMARK  3 active torsions:
REMARK  status: ('A' for Active; 'I' for Inactive)
REMARK    1  A    between atoms: C_1  and  C_2
REMARK    2  A    between atoms: C_3  and  C_4
REMARK    3  A    between atoms: N_22  and  C_23
REMARK                            x       y       z     vdW  Elec       q    Type
REMARK                         _______ _______ _______ _____ _____    ______ ____
ROOT
ATOM      1  C   UNL     1      13.954  44.034  45.343  0.00  0.00    +0.000 C 
ATOM      2  C   UNL     1      14.407  43.168  46.268  0.00  0.00    +0.000 C 
ATOM      3  C   UNL     1      15.204  41.975  45.940  0.00  0.00    +0.000 C 
ATOM      4  O   UNL     1      15.615  41.237  46.823  0.00  0.00    +0.000 OA
ATOM      5  C   UNL     1      15.493  41.699  44.479  0.00  0.00    +0.000 C 
ATOM      6  O   UNL     1      16.120  40.703  44.146  0.00  0.00    +0.000 OA
ATOM      7  C   UNL     1      14.998  42.668  43.485  0.00  0.00    +0.000 A 
ATOM      8  C   UNL     1      15.279  42.446  42.128  0.00  0.00    +0.000 A 
ATOM      9  C   UNL     1      14.830  43.346  41.166  0.00  0.00    +0.000 A 
ATOM     10  C   UNL     1      14.104  44.466  41.559  0.00  0.00    +0.000 A 
ATOM     11  C   UNL     1      13.826  44.684  42.913  0.00  0.00    +0.000 A 
ATOM     12  C   UNL     1      14.265  43.788  43.905  0.00  0.00    +0.000 A 
ENDROOT
BRANCH   1  15
ATOM     13  C   UNL     1      11.216  43.879  46.951  0.00  0.00    +0.000 C 
ATOM     14  C   UNL     1      11.985  45.073  46.496  0.00  0.00    +0.000 A 
ATOM     15  C   UNL     1      13.180  45.158  45.803  0.00  0.00    +0.000 A 
ATOM     16  C   UNL     1      13.513  46.534  45.640  0.00  0.00    +0.000 A 
ATOM     17  C   UNL     1      14.592  47.222  45.043  0.00  0.00    +0.000 A 
ATOM     18  C   UNL     1      14.621  48.620  45.069  0.00  0.00    +0.000 A 
ATOM     19  C   UNL     1      13.597  49.335  45.677  0.00  0.00    +0.000 A 
ATOM     20  C   UNL     1      12.515  48.678  46.273  0.00  0.00    +0.000 A 
ATOM     21  C   UNL     1      12.490  47.274  46.240  0.00  0.00    +0.000 A 
ATOM     22  N   UNL     1      11.564  46.368  46.727  0.00  0.00    +0.000 N 
ATOM     23  C   UNL     1      10.337  46.745  47.397  0.00  0.00    +0.000 C 
ENDBRANCH   1  15
TORSDOF 1
ENDMDL
MODEL 3
REMARK VINA RESULT:    -5.638      4.691      6.409
REMARK INTER + INTRA:          -6.800
REMARK INTER:                  -5.968
REMARK INTRA:                  -0.833
REMARK UNBOUND:                -0.833
REMARK  Name = 
REMARK  3 active torsions:
REMARK  status: ('A' for Active; 'I' for Inactive)
REMARK    1  A    between atoms: C_1  and  C_2
REMARK    2  A    between atoms: C_3  and  C_4
REMARK    3  A    between atoms: N_22  and  C_23
REMARK                            x       y       z     vdW  Elec       q    Type
REMARK                         _______ _______ _______ _____ _____    ______ ____
ROOT
ATOM      1  C   UNL     1      21.117  33.863  52.879  0.00  0.00    +0.000 C 
ATOM      2  C   UNL     1      21.697  33.426  51.746  0.00  0.00    +0.000 C 
ATOM      3  C   UNL     1      23.108  33.014  51.664  0.00  0.00    +0.000 C 
ATOM      4  O   UNL     1      23.577  32.597  50.616  0.00  0.00    +0.000 OA
ATOM      5  C   UNL     1      23.950  33.126  52.919  0.00  0.00    +0.000 C 
ATOM      6  O   UNL     1      25.137  32.832  52.900  0.00  0.00    +0.000 OA
ATOM      7  C   UNL     1      23.289  33.594  54.150  0.00  0.00    +0.000 A 
ATOM      8  C   UNL     1      24.044  33.679  55.330  0.00  0.00    +0.000 A 
ATOM      9  C   UNL     1      23.447  34.113  56.511  0.00  0.00    +0.000 A 
ATOM     10  C   UNL     1      22.100  34.459  56.513  0.00  0.00    +0.000 A 
ATOM     11  C   UNL     1      21.351  34.374  55.334  0.00  0.00    +0.000 A 
ATOM     12  C   UNL     1      21.931  33.942  54.127  0.00  0.00    +0.000 A 
ENDROOT
BRANCH   1  15
ATOM     13  C   UNL     1      18.663  32.106  53.877  0.00  0.00    +0.000 C 
ATOM     14  C   UNL     1      18.670  33.457  53.247  0.00  0.00    +0.000 A 
ATOM     15  C   UNL     1      19.728  34.239  52.815  0.00  0.00    +0.000 A 
ATOM     16  C   UNL     1      19.210  35.469  52.316  0.00  0.00    +0.000 A 
ATOM     17  C   UNL     1      19.792  36.632  51.768  0.00  0.00    +0.000 A 
ATOM     18  C   UNL     1      18.975  37.698  51.377  0.00  0.00    +0.000 A 
ATOM     19  C   UNL     1      17.595  37.618  51.525  0.00  0.00    +0.000 A 
ATOM     20  C   UNL     1      16.993  36.476  52.062  0.00  0.00    +0.000 A 
ATOM     21  C   UNL     1      17.820  35.408  52.448  0.00  0.00    +0.000 A 
ATOM     22  N   UNL     1      17.516  34.171  52.989  0.00  0.00    +0.000 N 
ATOM     23  C   UNL     1      16.169  33.711  53.256  0.00  0.00    +0.000 C 
ENDBRANCH   1  15
TORSDOF 1
ENDMDL
