MODEL 1
REMARK VINA RESULT:    -6.970      0.000      0.000
REMARK INTER + INTRA:          -9.217
REMARK INTER:                  -8.527
REMARK INTRA:                  -0.691
REMARK UNBOUND:                -0.617
REMARK  Name = 
REMARK  5 active torsions:
REMARK  status: ('A' for Active; 'I' for Inactive)
REMARK    1  A    between atoms: C_1  and  O_2
REMARK    2  A    between atoms: O_2  and  C_3
REMARK    3  A    between atoms: C_8  and  C_9
REMARK    4  A    between atoms: N_16  and  C_17
REMARK    5  A    between atoms: C_21  and  C_22
REMARK                            x       y       z     vdW  Elec       q    Type
REMARK                         _______ _______ _______ _____ _____    ______ ____
ROOT
ATOM      1  C   UNL     1      16.138  41.146  54.103  0.00  0.00    +0.000 A 
ATOM      2  C   UNL     1      15.693  41.515  55.376  0.00  0.00    +0.000 A 
ATOM      3  C   UNL     1      16.055  40.732  56.464  0.00  0.00    +0.000 A 
ATOM      4  C   UNL     1      16.822  39.576  56.313  0.00  0.00    +0.000 A 
ATOM      5  C   UNL     1      17.296  39.215  55.065  0.00  0.00    +0.000 A 
ATOM      6  C   UNL     1      16.946  39.999  53.943  0.00  0.00    +0.000 A 
ATOM      7  N   UNL     1      17.034  38.986  57.572  0.00  0.00    +0.000 N 
ATOM      8  C   UNL     1      17.695  37.827  57.939  0.00  0.00    +0.000 C 
ATOM      9  O   UNL     1      18.116  37.680  59.086  0.00  0.00    +0.000 OA
ATOM     10  N   UNL     1      17.761  36.866  56.959  0.00  0.00    +0.000 N 
ATOM     11  C   UNL     1      16.597  39.940  58.601  0.00  0.00    +0.000 C 
ATOM     12  C   UNL     1      15.688  40.953  57.899  0.00  0.00    +0.000 C 
ATOM     13  H   UNL     1      17.040  36.943  56.257  0.00  0.00    +0.000 HD
ENDROOT
BRANCH  10  14
ATOM     14  C   UNL     1      18.474  35.650  56.998  0.00  0.00    +0.000 A 
ATOM     15  C   UNL     1      17.874  34.542  57.595  0.00  0.00    +0.000 A 
ATOM     16  N   UNL     1      18.439  33.317  57.685  0.00  0.00    +0.000 NA
ATOM     17  C   UNL     1      19.672  33.187  57.140  0.00  0.00    +0.000 A 
ATOM     18  C   UNL     1      20.378  34.212  56.509  0.00  0.00    +0.000 A 
ATOM     19  C   UNL     1      19.742  35.464  56.445  0.00  0.00    +0.000 A 
BRANCH  18  20
ATOM     20  C   UNL     1      21.716  33.992  55.936  0.00  0.00    +0.000 A 
ATOM     21  C   UNL     1      22.844  33.852  56.762  0.00  0.00    +0.000 A 
ATOM     22  C   UNL     1      24.116  33.648  56.219  0.00  0.00    +0.000 A 
ATOM     23  C   UNL     1      24.283  33.578  54.839  0.00  0.00    +0.000 A 
ATOM     24  C   UNL     1      23.180  33.712  54.002  0.00  0.00    +0.000 A 
ATOM     25  C   UNL     1      21.908  33.917  54.545  0.00  0.00    +0.000 A 
ENDBRANCH  18  20
ENDBRANCH  10  14
BRANCH   6  26
ATOM     26  C   UNL     1      17.453  39.613  52.572  0.00  0.00    +0.000 C 
ATOM     27  F   UNL     1      18.160  38.443  52.584  0.00  0.00    +0.000 F 
ATOM     28  F   UNL     1      18.294  40.534  52.028  0.00  0.00    +0.000 F 
ATOM     29  F   UNL     1      16.455  39.413  51.666  0.00  0.00    +0.000 F 
ENDBRANCH   6  26
BRANCH   1  31
ATOM     30  C   UNL     1      16.015  43.248  52.970  0.00  0.00    +0.000 C 
ATOM     31  O   UNL     1      15.854  41.834  52.953  0.00  0.00    +0.000 OA
ENDBRANCH   1  31
TORSDOF 4
ENDMDL
MODEL 2
REMARK VINA RESULT:    -6.730      6.001     10.103
REMARK INTER + INTRA:          -8.920
REMARK INTER:                  -8.581
REMARK INTRA:                  -0.339
REMARK UNBOUND:                -0.617
REMARK  Name = 
REMARK  5 active torsions:
REMARK  status: ('A' for Active; 'I' for Inactive)
REMARK    1  A    between atoms: C_1  and  O_2
REMARK    2  A    between atoms: O_2  and  C_3
REMARK    3  A    between atoms: C_8  and  C_9
REMARK    4  A    between atoms: N_16  and  C_17
REMARK    5  A    between atoms: C_21  and  C_22
REMARK                            x       y       z     vdW  Elec       q    Type
REMARK                         _______ _______ _______ _____ _____    ______ ____
ROOT
ATOM      1  C   UNL     1      16.344  39.534  44.601  0.00  0.00    +0.000 A 
ATOM      2  C   UNL     1      17.000  38.302  44.675  0.00  0.00    +0.000 A 
ATOM      3  C   UNL     1      17.292  37.774  45.926  0.00  0.00    +0.000 A 
ATOM      4  C   UNL     1      16.976  38.455  47.102  0.00  0.00    +0.000 A 
ATOM      5  C   UNL     1      16.299  39.659  47.046  0.00  0.00    +0.000 A 
ATOM      6  C   UNL     1      15.985  40.215  45.786  0.00  0.00    +0.000 A 
ATOM      7  N   UNL     1      17.386  37.692  48.210  0.00  0.00    +0.000 N 
ATOM      8  C   UNL     1      17.324  37.948  49.569  0.00  0.00    +0.000 C 
ATOM      9  O   UNL     1      17.358  37.026  50.383  0.00  0.00    +0.000 OA
ATOM     10  N   UNL     1      17.302  39.279  49.905  0.00  0.00    +0.000 N 
ATOM     11  C   UNL     1      17.753  36.353  47.730  0.00  0.00    +0.000 C 
ATOM     12  C   UNL     1      17.982  36.478  46.221  0.00  0.00    +0.000 C 
ATOM     13  H   UNL     1      17.694  39.888  49.202  0.00  0.00    +0.000 HD
ENDROOT
BRANCH  10  14
ATOM     14  C   UNL     1      17.112  39.837  51.187  0.00  0.00    +0.000 A 
ATOM     15  C   UNL     1      17.813  39.293  52.262  0.00  0.00    +0.000 A 
ATOM     16  N   UNL     1      17.737  39.742  53.535  0.00  0.00    +0.000 NA
ATOM     17  C   UNL     1      16.919  40.800  53.748  0.00  0.00    +0.000 A 
ATOM     18  C   UNL     1      16.168  41.439  52.759  0.00  0.00    +0.000 A 
ATOM     19  C   UNL     1      16.287  40.930  51.455  0.00  0.00    +0.000 A 
BRANCH  18  20
ATOM     20  C   UNL     1      15.303  42.589  53.068  0.00  0.00    +0.000 A 
ATOM     21  C   UNL     1      15.824  43.892  53.137  0.00  0.00    +0.000 A 
ATOM     22  C   UNL     1      15.005  44.984  53.435  0.00  0.00    +0.000 A 
ATOM     23  C   UNL     1      13.646  44.793  53.669  0.00  0.00    +0.000 A 
ATOM     24  C   UNL     1      13.107  43.512  53.604  0.00  0.00    +0.000 A 
ATOM     25  C   UNL     1      13.927  42.420  53.306  0.00  0.00    +0.000 A 
ENDBRANCH  18  20
ENDBRANCH  10  14
BRANCH   6  26
ATOM     26  C   UNL     1      15.249  41.533  45.711  0.00  0.00    +0.000 C 
ATOM     27  F   UNL     1      15.079  42.110  46.938  0.00  0.00    +0.000 F 
ATOM     28  F   UNL     1      13.996  41.424  45.189  0.00  0.00    +0.000 F 
ATOM     29  F   UNL     1      15.901  42.470  44.967  0.00  0.00    +0.000 F 
ENDBRANCH   6  26
BRANCH   1  31
ATOM     30  C   UNL     1      17.021  40.382  42.471  0.00  0.00    +0.000 C 
ATOM     31  O   UNL     1      15.996  40.158  43.433  0.00  0.00    +0.000 OA
ENDBRANCH   1  31
TORSDOF 4
ENDMDL
MODEL 3
REMARK VINA RESULT:    -6.414      7.900     10.700
REMARK INTER + INTRA:          -8.531
REMARK INTER:                  -7.914
REMARK INTRA:                  -0.617
REMARK UNBOUND:                -0.617
REMARK  Name = 
REMARK  5 active torsions:
REMARK  status: ('A' for Active; 'I' for Inactive)
REMARK    1  A    between atoms: C_1  and  O_2
REMARK    2  A    between atoms: O_2  and  C_3
REMARK    3  A    between atoms: C_8  and  C_9
REMARK    4  A    between atoms: N_16  and  C_17
REMARK    5  A    between atoms: C_21  and  C_22
REMARK                            x       y       z     vdW  Elec       q    Type
REMARK                         _______ _______ _______ _____ _____    ______ ____
ROOT
ATOM      1  C   UNL     1      13.687  44.837  44.355  0.00  0.00    +0.000 A 
ATOM      2  C   UNL     1      14.663  44.528  43.402  0.00  0.00    +0.000 A 
ATOM      3  C   UNL     1      15.365  43.337  43.526  0.00  0.00    +0.000 A 
ATOM      4  C   UNL     1      15.143  42.461  44.590  0.00  0.00    +0.000 A 
ATOM      5  C   UNL     1      14.160  42.737  45.522  0.00  0.00    +0.000 A 
ATOM      6  C   UNL     1      13.428  43.941  45.415  0.00  0.00    +0.000 A 
ATOM      7  N   UNL     1      15.990  41.345  44.462  0.00  0.00    +0.000 N 
ATOM      8  C   UNL     1      16.166  40.235  45.270  0.00  0.00    +0.000 C 
ATOM      9  O   UNL     1      16.640  39.196  44.814  0.00  0.00    +0.000 OA
ATOM     10  N   UNL     1      15.846  40.427  46.592  0.00  0.00    +0.000 N 
ATOM     11  C   UNL     1      16.601  41.388  43.127  0.00  0.00    +0.000 C 
ATOM     12  C   UNL     1      16.440  42.824  42.619  0.00  0.00    +0.000 C 
ATOM     13  H   UNL     1      15.883  41.391  46.889  0.00  0.00    +0.000 HD
ENDROOT
BRANCH  10  14
ATOM     14  C   UNL     1      15.801  39.455  47.613  0.00  0.00    +0.000 A 
ATOM     15  C   UNL     1      14.557  39.036  48.082  0.00  0.00    +0.000 A 
ATOM     16  N   UNL     1      14.373  38.101  49.042  0.00  0.00    +0.000 NA
ATOM     17  C   UNL     1      15.494  37.546  49.559  0.00  0.00    +0.000 A 
ATOM     18  C   UNL     1      16.796  37.871  49.173  0.00  0.00    +0.000 A 
ATOM     19  C   UNL     1      16.927  38.849  48.172  0.00  0.00    +0.000 A 
BRANCH  18  20
ATOM     20  C   UNL     1      17.968  37.220  49.780  0.00  0.00    +0.000 A 
ATOM     21  C   UNL     1      18.388  37.550  51.080  0.00  0.00    +0.000 A 
ATOM     22  C   UNL     1      19.505  36.937  51.656  0.00  0.00    +0.000 A 
ATOM     23  C   UNL     1      20.221  35.980  50.943  0.00  0.00    +0.000 A 
ATOM     24  C   UNL     1      19.821  35.636  49.655  0.00  0.00    +0.000 A 
ATOM     25  C   UNL     1      18.706  36.250  49.079  0.00  0.00    +0.000 A 
ENDBRANCH  18  20
ENDBRANCH  10  14
BRANCH   6  26
ATOM     26  C   UNL     1      12.354  44.256  46.431  0.00  0.00    +0.000 C 
ATOM     27  F   UNL     1      12.272  43.315  47.419  0.00  0.00    +0.000 F 
ATOM     28  F   UNL     1      11.105  44.321  45.894  0.00  0.00    +0.000 F 
ATOM     29  F   UNL     1      12.560  45.435  47.082  0.00  0.00    +0.000 F 
ENDBRANCH   6  26
BRANCH   1  31
ATOM     30  C   UNL     1      12.094  46.204  43.212  0.00  0.00    +0.000 C 
ATOM     31  O   UNL     1      12.925  45.975  44.343  0.00  0.00    +0.000 OA
ENDBRANCH   1  31
TORSDOF 4
ENDMDL
