MODEL 1
REMARK VINA RESULT:    -6.912      0.000      0.000
REMARK INTER + INTRA:         -10.381
REMARK INTER:                  -9.190
REMARK INTRA:                  -1.191
REMARK UNBOUND:                -1.448
REMARK  Name = 
REMARK  5 active torsions:
REMARK  status: ('A' for Active; 'I' for Inactive)
REMARK    1  A    between atoms: N_3  and  C_4
REMARK    2  A    between atoms: C_4  and  C_5
REMARK    3  A    between atoms: C_5  and  N_6
REMARK    4  A    between atoms: C_10  and  C_11
REMARK    5  A    between atoms: C_10  and  C_18
REMARK                            x       y       z     vdW  Elec       q    Type
REMARK                         _______ _______ _______ _____ _____    ______ ____
ROOT
ATOM      1  N   UNL     1      15.408  37.550  47.981  0.00  0.00    +0.000 NA
ATOM      2  C   UNL     1      15.301  38.362  49.196  0.00  0.00    +0.000 C 
ATOM      3  C   UNL     1      16.627  38.875  49.783  0.00  0.00    +0.000 C 
ATOM      4  C   UNL     1      17.632  37.746  49.939  0.00  0.00    +0.000 C 
ATOM      5  C   UNL     1      18.252  37.409  51.100  0.00  0.00    +0.000 C 
ATOM      6  C   UNL     1      17.826  37.033  48.610  0.00  0.00    +0.000 C 
ATOM      7  C   UNL     1      16.483  36.552  48.036  0.00  0.00    +0.000 C 
ENDROOT
BRANCH   5   8
ATOM      8  C   UNL     1      19.217  36.286  51.126  0.00  0.00    +0.000 A 
ATOM      9  C   UNL     1      18.757  34.964  51.208  0.00  0.00    +0.000 A 
ATOM     10  C   UNL     1      19.667  33.906  51.234  0.00  0.00    +0.000 A 
ATOM     11  C   UNL     1      21.030  34.173  51.179  0.00  0.00    +0.000 A 
ATOM     12  F   UNL     1      21.903  33.156  51.203  0.00  0.00    +0.000 F 
ATOM     13  C   UNL     1      21.503  35.477  51.098  0.00  0.00    +0.000 A 
ATOM     14  C   UNL     1      20.596  36.538  51.072  0.00  0.00    +0.000 A 
ENDBRANCH   5   8
BRANCH   5  15
ATOM     15  C   UNL     1      17.960  38.164  52.340  0.00  0.00    +0.000 A 
ATOM     16  C   UNL     1      17.354  37.523  53.431  0.00  0.00    +0.000 A 
ATOM     17  C   UNL     1      17.080  38.235  54.600  0.00  0.00    +0.000 A 
ATOM     18  C   UNL     1      17.415  39.582  54.675  0.00  0.00    +0.000 A 
ATOM     19  F   UNL     1      17.152  40.265  55.796  0.00  0.00    +0.000 F 
ATOM     20  C   UNL     1      18.017  40.233  53.604  0.00  0.00    +0.000 A 
ATOM     21  C   UNL     1      18.292  39.524  52.434  0.00  0.00    +0.000 A 
ENDBRANCH   5  15
BRANCH   1  22
ATOM     22  C   UNL     1      15.287  38.279  46.715  0.00  0.00    +0.000 C 
BRANCH  22  23
ATOM     23  C   UNL     1      16.406  39.246  46.306  0.00  0.00    +0.000 C 
BRANCH  23  26
ATOM     24  O   UNL     1      14.782  41.418  47.583  0.00  0.00    +0.000 OA
ATOM     25  C   UNL     1      15.157  41.453  46.422  0.00  0.00    +0.000 A 
ATOM     26  N   UNL     1      15.874  40.462  45.730  0.00  0.00    +0.000 N 
ATOM     27  N   UNL     1      16.187  40.885  44.453  0.00  0.00    +0.000 NA
ATOM     28  C   UNL     1      15.635  42.057  44.378  0.00  0.00    +0.000 A 
ATOM     29  C   UNL     1      15.634  42.982  43.225  0.00  0.00    +0.000 A 
ATOM     30  C   UNL     1      15.006  44.162  43.371  0.00  0.00    +0.000 A 
ATOM     31  C   UNL     1      14.352  44.524  44.617  0.00  0.00    +0.000 A 
ATOM     32  C   UNL     1      14.365  43.668  45.652  0.00  0.00    +0.000 A 
ATOM     33  N   UNL     1      14.996  42.465  45.505  0.00  0.00    +0.000 N 
ENDBRANCH  23  26
ENDBRANCH  22  23
ENDBRANCH   1  22
TORSDOF 5
ENDMDL
MODEL 2
REMARK VINA RESULT:    -6.889      0.997      1.370
REMARK INTER + INTRA:         -10.351
REMARK INTER:                  -9.041
REMARK INTRA:                  -1.310
REMARK UNBOUND:                -1.448
REMARK  Name = 
REMARK  5 active torsions:
REMARK  status: ('A' for Active; 'I' for Inactive)
REMARK    1  A    between atoms: N_3  and  C_4
REMARK    2  A    between atoms: C_4  and  C_5
REMARK    3  A    between atoms: C_5  and  N_6
REMARK    4  A    between atoms: C_10  and  C_11
REMARK    5  A    between atoms: C_10  and  C_18
REMARK                            x       y       z     vdW  Elec       q    Type
REMARK                         _______ _______ _______ _____ _____    ______ ____
ROOT
ATOM      1  N   UNL     1      15.429  37.307  47.908  0.00  0.00    +0.000 NA
ATOM      2  C   UNL     1      15.297  38.163  49.090  0.00  0.00    +0.000 C 
ATOM      3  C   UNL     1      16.606  38.741  49.653  0.00  0.00    +0.000 C 
ATOM      4  C   UNL     1      17.647  37.651  49.852  0.00  0.00    +0.000 C 
ATOM      5  C   UNL     1      18.278  37.381  51.024  0.00  0.00    +0.000 C 
ATOM      6  C   UNL     1      17.862  36.893  48.551  0.00  0.00    +0.000 C 
ATOM      7  C   UNL     1      16.535  36.347  48.000  0.00  0.00    +0.000 C 
ENDROOT
BRANCH   5   8
ATOM      8  C   UNL     1      19.278  36.291  51.092  0.00  0.00    +0.000 A 
ATOM      9  C   UNL     1      18.861  34.959  51.226  0.00  0.00    +0.000 A 
ATOM     10  C   UNL     1      19.803  33.932  51.292  0.00  0.00    +0.000 A 
ATOM     11  C   UNL     1      21.157  34.240  51.225  0.00  0.00    +0.000 A 
ATOM     12  F   UNL     1      22.062  33.253  51.288  0.00  0.00    +0.000 F 
ATOM     13  C   UNL     1      21.589  35.554  51.093  0.00  0.00    +0.000 A 
ATOM     14  C   UNL     1      20.649  36.584  51.027  0.00  0.00    +0.000 A 
ENDBRANCH   5   8
BRANCH   5  15
ATOM     15  C   UNL     1      17.963  38.175  52.233  0.00  0.00    +0.000 A 
ATOM     16  C   UNL     1      17.330  37.571  53.330  0.00  0.00    +0.000 A 
ATOM     17  C   UNL     1      17.035  38.320  54.470  0.00  0.00    +0.000 A 
ATOM     18  C   UNL     1      17.376  39.667  54.511  0.00  0.00    +0.000 A 
ATOM     19  F   UNL     1      17.092  40.385  55.605  0.00  0.00    +0.000 F 
ATOM     20  C   UNL     1      18.006  40.281  53.434  0.00  0.00    +0.000 A 
ATOM     21  C   UNL     1      18.301  39.535  52.292  0.00  0.00    +0.000 A 
ENDBRANCH   5  15
BRANCH   1  22
ATOM     22  C   UNL     1      15.283  37.981  46.613  0.00  0.00    +0.000 C 
BRANCH  22  23
ATOM     23  C   UNL     1      16.506  38.675  45.998  0.00  0.00    +0.000 C 
BRANCH  23  26
ATOM     24  O   UNL     1      16.783  39.941  43.295  0.00  0.00    +0.000 OA
ATOM     25  C   UNL     1      16.314  40.519  44.263  0.00  0.00    +0.000 A 
ATOM     26  N   UNL     1      16.194  40.022  45.572  0.00  0.00    +0.000 N 
ATOM     27  N   UNL     1      15.543  40.932  46.384  0.00  0.00    +0.000 NA
ATOM     28  C   UNL     1      15.333  41.942  45.597  0.00  0.00    +0.000 A 
ATOM     29  C   UNL     1      14.676  43.224  45.930  0.00  0.00    +0.000 A 
ATOM     30  C   UNL     1      14.551  44.136  44.950  0.00  0.00    +0.000 A 
ATOM     31  C   UNL     1      15.039  43.877  43.607  0.00  0.00    +0.000 A 
ATOM     32  C   UNL     1      15.633  42.706  43.325  0.00  0.00    +0.000 A 
ATOM     33  N   UNL     1      15.768  41.779  44.321  0.00  0.00    +0.000 N 
ENDBRANCH  23  26
ENDBRANCH  22  23
ENDBRANCH   1  22
TORSDOF 5
ENDMDL
MODEL 3
REMARK VINA RESULT:    -6.608      8.459     11.247
REMARK INTER + INTRA:          -9.987
REMARK INTER:                  -8.539
REMARK INTRA:                  -1.448
REMARK UNBOUND:                -1.448
REMARK  Name = 
REMARK  5 active torsions:
REMARK  status: ('A' for Active; 'I' for Inactive)
REMARK    1  A    between atoms: N_3  and  C_4
REMARK    2  A    between atoms: C_4  and  C_5
REMARK    3  A    between atoms: C_5  and  N_6
REMARK    4  A    between atoms: C_10  and  C_11
REMARK    5  A    between atoms: C_10  and  C_18
REMARK                            x       y       z     vdW  Elec       q    Type
REMARK                         _______ _______ _______ _____ _____    ______ ____
ROOT
ATOM      1  N   UNL     1      12.843  49.095  45.277  0.00  0.00    +0.000 NA
ATOM      2  C   UNL     1      11.723  48.299  45.786  0.00  0.00    +0.000 C 
ATOM      3  C   UNL     1      12.100  47.066  46.624  0.00  0.00    +0.000 C 
ATOM      4  C   UNL     1      13.130  46.208  45.907  0.00  0.00    +0.000 C 
ATOM      5  C   UNL     1      12.981  44.889  45.620  0.00  0.00    +0.000 C 
ATOM      6  C   UNL     1      14.342  47.048  45.539  0.00  0.00    +0.000 C 
ATOM      7  C   UNL     1      13.933  48.286  44.722  0.00  0.00    +0.000 C 
ENDROOT
BRANCH   5   8
ATOM      8  C   UNL     1      14.060  44.158  44.916  0.00  0.00    +0.000 A 
ATOM      9  C   UNL     1      14.315  44.412  43.561  0.00  0.00    +0.000 A 
ATOM     10  C   UNL     1      15.331  43.722  42.898  0.00  0.00    +0.000 A 
ATOM     11  C   UNL     1      16.085  42.781  43.590  0.00  0.00    +0.000 A 
ATOM     12  F   UNL     1      17.060  42.119  42.952  0.00  0.00    +0.000 F 
ATOM     13  C   UNL     1      15.845  42.516  44.933  0.00  0.00    +0.000 A 
ATOM     14  C   UNL     1      14.829  43.204  45.600  0.00  0.00    +0.000 A 
ENDBRANCH   5   8
BRANCH   5  15
ATOM     15  C   UNL     1      11.738  44.183  46.009  0.00  0.00    +0.000 A 
ATOM     16  C   UNL     1      11.633  43.583  47.273  0.00  0.00    +0.000 A 
ATOM     17  C   UNL     1      10.462  42.919  47.638  0.00  0.00    +0.000 A 
ATOM     18  C   UNL     1       9.400  42.860  46.742  0.00  0.00    +0.000 A 
ATOM     19  F   UNL     1       8.277  42.222  47.094  0.00  0.00    +0.000 F 
ATOM     20  C   UNL     1       9.486  43.450  45.487  0.00  0.00    +0.000 A 
ATOM     21  C   UNL     1      10.657  44.115  45.118  0.00  0.00    +0.000 A 
ENDBRANCH   5  15
BRANCH   1  22
ATOM     22  C   UNL     1      13.257  50.223  46.117  0.00  0.00    +0.000 C 
BRANCH  22  23
ATOM     23  C   UNL     1      13.343  51.622  45.491  0.00  0.00    +0.000 C 
BRANCH  23  26
ATOM     24  O   UNL     1      15.631  52.632  47.142  0.00  0.00    +0.000 OA
ATOM     25  C   UNL     1      15.724  52.372  45.952  0.00  0.00    +0.000 A 
ATOM     26  N   UNL     1      14.696  51.944  45.095  0.00  0.00    +0.000 N 
ATOM     27  N   UNL     1      15.191  51.674  43.833  0.00  0.00    +0.000 NA
ATOM     28  C   UNL     1      16.449  51.977  43.931  0.00  0.00    +0.000 A 
ATOM     29  C   UNL     1      17.482  51.897  42.876  0.00  0.00    +0.000 A 
ATOM     30  C   UNL     1      18.737  52.250  43.201  0.00  0.00    +0.000 A 
ATOM     31  C   UNL     1      19.077  52.693  44.542  0.00  0.00    +0.000 A 
ATOM     32  C   UNL     1      18.124  52.758  45.486  0.00  0.00    +0.000 A 
ATOM     33  N   UNL     1      16.844  52.407  45.157  0.00  0.00    +0.000 N 
ENDBRANCH  23  26
ENDBRANCH  22  23
ENDBRANCH   1  22
TORSDOF 5
ENDMDL
