MODEL 1
REMARK VINA RESULT:    -7.128      0.000      0.000
REMARK INTER + INTRA:         -10.698
REMARK INTER:                  -9.341
REMARK INTRA:                  -1.357
REMARK UNBOUND:                -1.278
REMARK  Name = 
REMARK  6 active torsions:
REMARK  status: ('A' for Active; 'I' for Inactive)
REMARK    1  A    between atoms: N_1  and  C_2
REMARK    2  A    between atoms: C_8  and  C_9
REMARK    3  A    between atoms: C_12  and  O_13
REMARK    4  A    between atoms: O_13  and  C_14
REMARK    5  A    between atoms: N_23  and  C_24
REMARK    6  A    between atoms: C_27  and  N_28
REMARK                            x       y       z     vdW  Elec       q    Type
REMARK                         _______ _______ _______ _____ _____    ______ ____
ROOT
ATOM      1  C   UNL     1      19.338  34.130  53.304  0.00  0.00    +0.000 A 
ATOM      2  N   UNL     1      18.687  33.843  54.449  0.00  0.00    +0.000 NA
ATOM      3  C   UNL     1      17.865  34.777  54.966  0.00  0.00    +0.000 A 
ATOM      4  N   UNL     1      17.580  35.994  54.479  0.00  0.00    +0.000 NA
ATOM      5  C   UNL     1      18.239  36.237  53.332  0.00  0.00    +0.000 A 
ATOM      6  C   UNL     1      19.121  35.375  52.692  0.00  0.00    +0.000 A 
ATOM      7  C   UNL     1      19.574  36.049  51.519  0.00  0.00    +0.000 A 
ATOM      8  C   UNL     1      18.972  37.292  51.491  0.00  0.00    +0.000 A 
ATOM      9  N   UNL     1      18.160  37.395  52.595  0.00  0.00    +0.000 N 
ENDROOT
BRANCH   7  10
ATOM     10  C   UNL     1      20.497  35.611  50.494  0.00  0.00    +0.000 A 
ATOM     11  C   UNL     1      20.021  35.260  49.227  0.00  0.00    +0.000 A 
ATOM     12  C   UNL     1      20.909  34.822  48.243  0.00  0.00    +0.000 A 
ATOM     13  C   UNL     1      22.274  34.735  48.525  0.00  0.00    +0.000 A 
ATOM     14  C   UNL     1      22.757  35.109  49.781  0.00  0.00    +0.000 A 
ATOM     15  C   UNL     1      21.867  35.538  50.768  0.00  0.00    +0.000 A 
BRANCH  13  16
ATOM     16  O   UNL     1      23.093  34.334  47.495  0.00  0.00    +0.000 OA
BRANCH  16  17
ATOM     17  C   UNL     1      23.667  35.304  46.703  0.00  0.00    +0.000 A 
ATOM     18  C   UNL     1      23.035  35.851  45.583  0.00  0.00    +0.000 A 
ATOM     19  C   UNL     1      23.666  36.861  44.853  0.00  0.00    +0.000 A 
ATOM     20  C   UNL     1      24.916  37.334  45.254  0.00  0.00    +0.000 A 
ATOM     21  C   UNL     1      25.534  36.805  46.387  0.00  0.00    +0.000 A 
ATOM     22  C   UNL     1      24.905  35.793  47.115  0.00  0.00    +0.000 A 
ENDBRANCH  16  17
ENDBRANCH  13  16
ENDBRANCH   7  10
BRANCH   9  23
ATOM     23  C   UNL     1      17.367  38.568  52.961  0.00  0.00    +0.000 C 
ATOM     24  C   UNL     1      18.094  39.872  52.619  0.00  0.00    +0.000 C 
ATOM     25  C   UNL     1      17.354  41.098  53.166  0.00  0.00    +0.000 C 
ATOM     26  C   UNL     1      15.821  40.911  53.247  0.00  0.00    +0.000 C 
ATOM     27  C   UNL     1      15.330  39.922  52.177  0.00  0.00    +0.000 C 
ATOM     28  C   UNL     1      15.948  38.530  52.362  0.00  0.00    +0.000 C 
BRANCH  26  29
ATOM     29  N   UNL     1      15.060  42.171  53.252  0.00  0.00    +0.000 NA
ATOM     30  C   UNL     1      14.088  42.266  54.338  0.00  0.00    +0.000 C 
ATOM     31  C   UNL     1      13.076  43.382  54.057  0.00  0.00    +0.000 C 
ATOM     32  C   UNL     1      13.714  44.649  53.485  0.00  0.00    +0.000 C 
ATOM     33  C   UNL     1      15.222  44.649  53.687  0.00  0.00    +0.000 C 
ATOM     34  C   UNL     1      15.864  43.390  53.087  0.00  0.00    +0.000 C 
ENDBRANCH  26  29
ENDBRANCH   9  23
BRANCH   1  35
ATOM     35  N   UNL     1      20.179  33.152  52.799  0.00  0.00    +0.000 N 
ATOM     36  H   UNL     1      19.839  32.665  51.980  0.00  0.00    +0.000 HD
ATOM     37  H   UNL     1      20.577  32.588  53.541  0.00  0.00    +0.000 HD
ENDBRANCH   1  35
TORSDOF 6
ENDMDL
MODEL 2
REMARK VINA RESULT:    -6.696      9.310     13.901
REMARK INTER + INTRA:         -10.128
REMARK INTER:                  -9.399
REMARK INTRA:                  -0.729
REMARK UNBOUND:                -1.278
REMARK  Name = 
REMARK  6 active torsions:
REMARK  status: ('A' for Active; 'I' for Inactive)
REMARK    1  A    between atoms: N_1  and  C_2
REMARK    2  A    between atoms: C_8  and  C_9
REMARK    3  A    between atoms: C_12  and  O_13
REMARK    4  A    between atoms: O_13  and  C_14
REMARK    5  A    between atoms: N_23  and  C_24
REMARK    6  A    between atoms: C_27  and  N_28
REMARK                            x       y       z     vdW  Elec       q    Type
REMARK                         _______ _______ _______ _____ _____    ______ ____
ROOT
ATOM      1  C   UNL     1      11.607  46.488  46.864  0.00  0.00    +0.000 A 
ATOM      2  N   UNL     1      10.730  45.693  47.510  0.00  0.00    +0.000 NA
ATOM      3  C   UNL     1      10.933  44.362  47.478  0.00  0.00    +0.000 A 
ATOM      4  N   UNL     1      11.926  43.688  46.880  0.00  0.00    +0.000 NA
ATOM      5  C   UNL     1      12.784  44.515  46.257  0.00  0.00    +0.000 A 
ATOM      6  C   UNL     1      12.696  45.900  46.201  0.00  0.00    +0.000 A 
ATOM      7  C   UNL     1      13.815  46.352  45.440  0.00  0.00    +0.000 A 
ATOM      8  C   UNL     1      14.533  45.238  45.049  0.00  0.00    +0.000 A 
ATOM      9  N   UNL     1      13.900  44.127  45.554  0.00  0.00    +0.000 N 
ENDROOT
BRANCH   7  10
ATOM     10  C   UNL     1      14.211  47.696  45.077  0.00  0.00    +0.000 A 
ATOM     11  C   UNL     1      15.464  48.184  45.460  0.00  0.00    +0.000 A 
ATOM     12  C   UNL     1      15.839  49.486  45.123  0.00  0.00    +0.000 A 
ATOM     13  C   UNL     1      14.962  50.301  44.404  0.00  0.00    +0.000 A 
ATOM     14  C   UNL     1      13.720  49.808  43.998  0.00  0.00    +0.000 A 
ATOM     15  C   UNL     1      13.340  48.509  44.342  0.00  0.00    +0.000 A 
BRANCH  13  16
ATOM     16  O   UNL     1      15.416  51.557  44.075  0.00  0.00    +0.000 OA
BRANCH  16  17
ATOM     17  C   UNL     1      16.773  51.787  44.102  0.00  0.00    +0.000 A 
ATOM     18  C   UNL     1      17.667  51.206  43.198  0.00  0.00    +0.000 A 
ATOM     19  C   UNL     1      19.026  51.521  43.266  0.00  0.00    +0.000 A 
ATOM     20  C   UNL     1      19.486  52.428  44.221  0.00  0.00    +0.000 A 
ATOM     21  C   UNL     1      18.589  53.026  45.105  0.00  0.00    +0.000 A 
ATOM     22  C   UNL     1      17.231  52.710  45.041  0.00  0.00    +0.000 A 
ENDBRANCH  16  17
ENDBRANCH  13  16
ENDBRANCH   7  10
BRANCH   9  23
ATOM     23  C   UNL     1      14.316  42.742  45.341  0.00  0.00    +0.000 C 
ATOM     24  C   UNL     1      15.548  42.652  44.435  0.00  0.00    +0.000 C 
ATOM     25  C   UNL     1      15.877  41.203  44.059  0.00  0.00    +0.000 C 
ATOM     26  C   UNL     1      15.475  40.176  45.143  0.00  0.00    +0.000 C 
ATOM     27  C   UNL     1      15.511  40.811  46.543  0.00  0.00    +0.000 C 
ATOM     28  C   UNL     1      14.523  41.979  46.663  0.00  0.00    +0.000 C 
BRANCH  26  29
ATOM     29  N   UNL     1      16.216  38.906  45.073  0.00  0.00    +0.000 NA
ATOM     30  C   UNL     1      17.024  38.764  43.865  0.00  0.00    +0.000 C 
ATOM     31  C   UNL     1      17.434  37.301  43.662  0.00  0.00    +0.000 C 
ATOM     32  C   UNL     1      17.857  36.604  44.956  0.00  0.00    +0.000 C 
ATOM     33  C   UNL     1      18.142  37.612  46.059  0.00  0.00    +0.000 C 
ATOM     34  C   UNL     1      16.936  38.531  46.299  0.00  0.00    +0.000 C 
ENDBRANCH  26  29
ENDBRANCH   9  23
BRANCH   1  35
ATOM     35  N   UNL     1      11.371  47.852  46.912  0.00  0.00    +0.000 N 
ATOM     36  H   UNL     1      11.326  48.318  46.015  0.00  0.00    +0.000 HD
ATOM     37  H   UNL     1      11.922  48.296  47.638  0.00  0.00    +0.000 HD
ENDBRANCH   1  35
TORSDOF 6
ENDMDL
MODEL 3
REMARK VINA RESULT:    -6.642      9.595     15.490
REMARK INTER + INTRA:         -10.056
REMARK INTER:                  -8.778
REMARK INTRA:                  -1.278
REMARK UNBOUND:                -1.278
REMARK  Name = 
REMARK  6 active torsions:
REMARK  status: ('A' for Active; 'I' for Inactive)
REMARK    1  A    between atoms: N_1  and  C_2
REMARK    2  A    between atoms: C_8  and  C_9
REMARK    3  A    between atoms: C_12  and  O_13
REMARK    4  A    between atoms: O_13  and  C_14
REMARK    5  A    between atoms: N_23  and  C_24
REMARK    6  A    between atoms: C_27  and  N_28
REMARK                            x       y       z     vdW  Elec       q    Type
REMARK                         _______ _______ _______ _____ _____    ______ ____
ROOT
ATOM      1  C   UNL     1      11.447  47.418  42.583  0.00  0.00    +0.000 A 
ATOM      2  N   UNL     1      10.936  46.638  41.609  0.00  0.00    +0.000 NA
ATOM      3  C   UNL     1      11.316  45.347  41.562  0.00  0.00    +0.000 A 
ATOM      4  N   UNL     1      12.152  44.697  42.385  0.00  0.00    +0.000 NA
ATOM      5  C   UNL     1      12.630  45.505  43.347  0.00  0.00    +0.000 A 
ATOM      6  C   UNL     1      12.334  46.852  43.512  0.00  0.00    +0.000 A 
ATOM      7  C   UNL     1      13.063  47.296  44.656  0.00  0.00    +0.000 A 
ATOM      8  C   UNL     1      13.782  46.219  45.137  0.00  0.00    +0.000 A 
ATOM      9  N   UNL     1      13.510  45.135  44.338  0.00  0.00    +0.000 N 
ENDROOT
BRANCH   7  10
ATOM     10  C   UNL     1      13.118  48.604  45.272  0.00  0.00    +0.000 A 
ATOM     11  C   UNL     1      12.109  49.006  46.153  0.00  0.00    +0.000 A 
ATOM     12  C   UNL     1      12.154  50.274  46.735  0.00  0.00    +0.000 A 
ATOM     13  C   UNL     1      13.208  51.141  46.438  0.00  0.00    +0.000 A 
ATOM     14  C   UNL     1      14.231  50.733  45.579  0.00  0.00    +0.000 A 
ATOM     15  C   UNL     1      14.181  49.468  44.989  0.00  0.00    +0.000 A 
BRANCH  13  16
ATOM     16  O   UNL     1      13.207  52.358  47.079  0.00  0.00    +0.000 OA
BRANCH  16  17
ATOM     17  C   UNL     1      13.171  52.368  48.456  0.00  0.00    +0.000 A 
ATOM     18  C   UNL     1      11.984  52.342  49.193  0.00  0.00    +0.000 A 
ATOM     19  C   UNL     1      12.032  52.315  50.588  0.00  0.00    +0.000 A 
ATOM     20  C   UNL     1      13.264  52.294  51.243  0.00  0.00    +0.000 A 
ATOM     21  C   UNL     1      14.448  52.294  50.506  0.00  0.00    +0.000 A 
ATOM     22  C   UNL     1      14.401  52.325  49.112  0.00  0.00    +0.000 A 
ENDBRANCH  16  17
ENDBRANCH  13  16
ENDBRANCH   7  10
BRANCH   9  23
ATOM     23  C   UNL     1      14.096  43.803  44.482  0.00  0.00    +0.000 C 
ATOM     24  C   UNL     1      15.525  43.750  43.933  0.00  0.00    +0.000 C 
ATOM     25  C   UNL     1      16.076  42.320  43.912  0.00  0.00    +0.000 C 
ATOM     26  C   UNL     1      15.503  41.419  45.031  0.00  0.00    +0.000 C 
ATOM     27  C   UNL     1      15.111  42.253  46.262  0.00  0.00    +0.000 C 
ATOM     28  C   UNL     1      14.020  43.280  45.929  0.00  0.00    +0.000 C 
BRANCH  26  29
ATOM     29  N   UNL     1      16.353  40.266  45.370  0.00  0.00    +0.000 NA
ATOM     30  C   UNL     1      15.999  39.628  46.636  0.00  0.00    +0.000 C 
ATOM     31  C   UNL     1      17.138  38.723  47.118  0.00  0.00    +0.000 C 
ATOM     32  C   UNL     1      17.775  37.902  45.995  0.00  0.00    +0.000 C 
ATOM     33  C   UNL     1      16.895  37.883  44.755  0.00  0.00    +0.000 C 
ATOM     34  C   UNL     1      16.571  39.305  44.279  0.00  0.00    +0.000 C 
ENDBRANCH  26  29
ENDBRANCH   9  23
BRANCH   1  35
ATOM     35  N   UNL     1      11.041  48.743  42.603  0.00  0.00    +0.000 N 
ATOM     36  H   UNL     1      11.501  49.349  41.938  0.00  0.00    +0.000 HD
ATOM     37  H   UNL     1      10.946  49.085  43.553  0.00  0.00    +0.000 HD
ENDBRANCH   1  35
TORSDOF 6
ENDMDL
