MODEL 1
REMARK VINA RESULT:    -7.412      0.000      0.000
REMARK INTER + INTRA:         -12.190
REMARK INTER:                 -10.837
REMARK INTRA:                  -1.352
REMARK UNBOUND:                -1.312
REMARK  Name = 
REMARK  9 active torsions:
REMARK  status: ('A' for Active; 'I' for Inactive)
REMARK    1  A    between atoms: C_2  and  O_3
REMARK    2  A    between atoms: C_2  and  C_4
REMARK    3  A    between atoms: C_8  and  C_9
REMARK    4  A    between atoms: C_9  and  C_11
REMARK    5  A    between atoms: C_12  and  C_13
REMARK    6  A    between atoms: C_17  and  O_18
REMARK    7  A    between atoms: O_18  and  C_19
REMARK    8  A    between atoms: C_19  and  C_20
REMARK    9  A    between atoms: C_31  and  O_32
REMARK                            x       y       z     vdW  Elec       q    Type
REMARK                         _______ _______ _______ _____ _____    ______ ____
ROOT
ATOM      1  C   UNL     1      18.949  37.036  50.854  0.00  0.00    +0.000 A 
ATOM      2  C   UNL     1      18.070  36.808  49.789  0.00  0.00    +0.000 A 
ATOM      3  C   UNL     1      18.430  35.956  48.745  0.00  0.00    +0.000 A 
ATOM      4  C   UNL     1      19.670  35.314  48.754  0.00  0.00    +0.000 A 
ATOM      5  C   UNL     1      20.554  35.519  49.812  0.00  0.00    +0.000 A 
ATOM      6  C   UNL     1      20.183  36.371  50.860  0.00  0.00    +0.000 A 
ENDROOT
BRANCH   1   8
ATOM      7  C   UNL     1      18.056  39.163  51.765  0.00  0.00    +0.000 C 
ATOM      8  C   UNL     1      18.521  37.918  51.950  0.00  0.00    +0.000 C 
BRANCH   7   9
ATOM      9  C   UNL     1      17.660  40.063  52.877  0.00  0.00    +0.000 C 
ATOM     10  O   UNL     1      18.516  40.465  53.664  0.00  0.00    +0.000 OA
BRANCH   9  15
ATOM     11  C   UNL     1      14.631  42.244  53.472  0.00  0.00    +0.000 A 
ATOM     12  C   UNL     1      13.600  41.295  53.471  0.00  0.00    +0.000 A 
ATOM     13  C   UNL     1      13.885  39.950  53.233  0.00  0.00    +0.000 A 
ATOM     14  C   UNL     1      15.204  39.545  53.024  0.00  0.00    +0.000 A 
ATOM     15  C   UNL     1      16.249  40.481  53.075  0.00  0.00    +0.000 A 
ATOM     16  C   UNL     1      15.958  41.843  53.280  0.00  0.00    +0.000 A 
BRANCH  11  18
ATOM     17  O   UNL     1      14.987  44.525  54.109  0.00  0.00    +0.000 OA
ATOM     18  C   UNL     1      14.244  43.649  53.702  0.00  0.00    +0.000 C 
BRANCH  18  19
ATOM     19  O   UNL     1      12.928  43.852  53.531  0.00  0.00    +0.000 OA
ATOM     20  H   UNL     1      12.735  44.662  54.045  0.00  0.00    +0.000 HD
ENDBRANCH  18  19
ENDBRANCH  11  18
BRANCH  16  21
ATOM     21  O   UNL     1      16.958  42.782  53.333  0.00  0.00    +0.000 OA
ATOM     22  H   UNL     1      17.688  42.430  53.890  0.00  0.00    +0.000 HD
ENDBRANCH  16  21
ENDBRANCH   9  15
ENDBRANCH   7   9
ENDBRANCH   1   8
BRANCH   5  23
ATOM     23  O   UNL     1      21.786  34.944  49.961  0.00  0.00    +0.000 OA
BRANCH  23  24
ATOM     24  C   UNL     1      21.861  33.638  50.542  0.00  0.00    +0.000 C 
BRANCH  24  25
ATOM     25  C   UNL     1      22.516  33.630  51.907  0.00  0.00    +0.000 A 
ATOM     26  C   UNL     1      23.832  33.207  52.055  0.00  0.00    +0.000 A 
ATOM     27  C   UNL     1      24.393  33.207  53.327  0.00  0.00    +0.000 A 
ATOM     28  C   UNL     1      23.629  33.621  54.424  0.00  0.00    +0.000 A 
ATOM     29  C   UNL     1      24.155  33.636  55.728  0.00  0.00    +0.000 A 
ATOM     30  C   UNL     1      23.368  34.053  56.799  0.00  0.00    +0.000 A 
ATOM     31  C   UNL     1      22.057  34.453  56.573  0.00  0.00    +0.000 A 
ATOM     32  C   UNL     1      21.537  34.435  55.275  0.00  0.00    +0.000 A 
ATOM     33  C   UNL     1      22.299  34.026  54.189  0.00  0.00    +0.000 A 
ATOM     34  N   UNL     1      21.753  34.028  52.958  0.00  0.00    +0.000 NA
ENDBRANCH  24  25
ENDBRANCH  23  24
ENDBRANCH   5  23
TORSDOF 9
ENDMDL
MODEL 2
REMARK VINA RESULT:    -7.160      3.197      6.211
REMARK INTER + INTRA:         -11.820
REMARK INTER:                  -9.962
REMARK INTRA:                  -1.858
REMARK UNBOUND:                -1.312
REMARK  Name = 
REMARK  9 active torsions:
REMARK  status: ('A' for Active; 'I' for Inactive)
REMARK    1  A    between atoms: C_2  and  O_3
REMARK    2  A    between atoms: C_2  and  C_4
REMARK    3  A    between atoms: C_8  and  C_9
REMARK    4  A    between atoms: C_9  and  C_11
REMARK    5  A    between atoms: C_12  and  C_13
REMARK    6  A    between atoms: C_17  and  O_18
REMARK    7  A    between atoms: O_18  and  C_19
REMARK    8  A    between atoms: C_19  and  C_20
REMARK    9  A    between atoms: C_31  and  O_32
REMARK                            x       y       z     vdW  Elec       q    Type
REMARK                         _______ _______ _______ _____ _____    ______ ____
ROOT
ATOM      1  C   UNL     1      21.876  34.296  55.541  0.00  0.00    +0.000 A 
ATOM      2  C   UNL     1      23.159  34.090  56.061  0.00  0.00    +0.000 A 
ATOM      3  C   UNL     1      24.190  33.634  55.239  0.00  0.00    +0.000 A 
ATOM      4  C   UNL     1      23.956  33.386  53.885  0.00  0.00    +0.000 A 
ATOM      5  C   UNL     1      22.688  33.597  53.346  0.00  0.00    +0.000 A 
ATOM      6  C   UNL     1      21.659  34.060  54.176  0.00  0.00    +0.000 A 
ENDROOT
BRANCH   1   8
ATOM      7  C   UNL     1      19.572  35.071  56.031  0.00  0.00    +0.000 C 
ATOM      8  C   UNL     1      20.824  34.804  56.433  0.00  0.00    +0.000 C 
BRANCH   7   9
ATOM      9  C   UNL     1      18.523  35.620  56.927  0.00  0.00    +0.000 C 
ATOM     10  O   UNL     1      18.159  34.965  57.903  0.00  0.00    +0.000 OA
BRANCH   9  15
ATOM     11  C   UNL     1      17.206  39.120  57.477  0.00  0.00    +0.000 A 
ATOM     12  C   UNL     1      16.682  39.421  56.212  0.00  0.00    +0.000 A 
ATOM     13  C   UNL     1      16.795  38.502  55.169  0.00  0.00    +0.000 A 
ATOM     14  C   UNL     1      17.408  37.269  55.392  0.00  0.00    +0.000 A 
ATOM     15  C   UNL     1      17.889  36.937  56.668  0.00  0.00    +0.000 A 
ATOM     16  C   UNL     1      17.807  37.878  57.712  0.00  0.00    +0.000 A 
BRANCH  11  18
ATOM     17  O   UNL     1      16.031  40.467  59.069  0.00  0.00    +0.000 OA
ATOM     18  C   UNL     1      17.072  40.155  58.519  0.00  0.00    +0.000 C 
BRANCH  18  19
ATOM     19  O   UNL     1      18.217  40.825  58.726  0.00  0.00    +0.000 OA
ATOM     20  H   UNL     1      18.038  41.382  59.510  0.00  0.00    +0.000 HD
ENDBRANCH  18  19
ENDBRANCH  11  18
BRANCH  16  21
ATOM     21  O   UNL     1      18.271  37.584  58.970  0.00  0.00    +0.000 OA
ATOM     22  H   UNL     1      18.418  36.613  59.030  0.00  0.00    +0.000 HD
ENDBRANCH  16  21
ENDBRANCH   9  15
ENDBRANCH   7   9
ENDBRANCH   1   8
BRANCH   5  23
ATOM     23  O   UNL     1      22.322  33.414  52.041  0.00  0.00    +0.000 OA
BRANCH  23  24
ATOM     24  C   UNL     1      22.566  34.476  51.112  0.00  0.00    +0.000 C 
BRANCH  24  25
ATOM     25  C   UNL     1      21.298  35.135  50.613  0.00  0.00    +0.000 A 
ATOM     26  C   UNL     1      20.796  34.833  49.352  0.00  0.00    +0.000 A 
ATOM     27  C   UNL     1      19.633  35.467  48.929  0.00  0.00    +0.000 A 
ATOM     28  C   UNL     1      19.000  36.391  49.767  0.00  0.00    +0.000 A 
ATOM     29  C   UNL     1      17.822  37.055  49.380  0.00  0.00    +0.000 A 
ATOM     30  C   UNL     1      17.216  37.970  50.237  0.00  0.00    +0.000 A 
ATOM     31  C   UNL     1      17.783  38.226  51.480  0.00  0.00    +0.000 A 
ATOM     32  C   UNL     1      18.955  37.564  51.861  0.00  0.00    +0.000 A 
ATOM     33  C   UNL     1      19.579  36.646  51.027  0.00  0.00    +0.000 A 
ATOM     34  N   UNL     1      20.704  36.034  51.441  0.00  0.00    +0.000 NA
ENDBRANCH  24  25
ENDBRANCH  23  24
ENDBRANCH   5  23
TORSDOF 9
ENDMDL
MODEL 3
REMARK VINA RESULT:    -7.033      9.757     13.100
REMARK INTER + INTRA:         -11.634
REMARK INTER:                 -10.322
REMARK INTRA:                  -1.312
REMARK UNBOUND:                -1.312
REMARK  Name = 
REMARK  9 active torsions:
REMARK  status: ('A' for Active; 'I' for Inactive)
REMARK    1  A    between atoms: C_2  and  O_3
REMARK    2  A    between atoms: C_2  and  C_4
REMARK    3  A    between atoms: C_8  and  C_9
REMARK    4  A    between atoms: C_9  and  C_11
REMARK    5  A    between atoms: C_12  and  C_13
REMARK    6  A    between atoms: C_17  and  O_18
REMARK    7  A    between atoms: O_18  and  C_19
REMARK    8  A    between atoms: C_19  and  C_20
REMARK    9  A    between atoms: C_31  and  O_32
REMARK                            x       y       z     vdW  Elec       q    Type
REMARK                         _______ _______ _______ _____ _____    ______ ____
ROOT
ATOM      1  C   UNL     1      13.707  47.070  45.480  0.00  0.00    +0.000 A 
ATOM      2  C   UNL     1      12.496  47.020  46.180  0.00  0.00    +0.000 A 
ATOM      3  C   UNL     1      12.014  45.807  46.673  0.00  0.00    +0.000 A 
ATOM      4  C   UNL     1      12.739  44.629  46.481  0.00  0.00    +0.000 A 
ATOM      5  C   UNL     1      13.953  44.661  45.798  0.00  0.00    +0.000 A 
ATOM      6  C   UNL     1      14.434  45.883  45.310  0.00  0.00    +0.000 A 
ENDROOT
BRANCH   1   8
ATOM      7  C   UNL     1      13.424  49.272  44.375  0.00  0.00    +0.000 C 
ATOM      8  C   UNL     1      14.196  48.371  45.002  0.00  0.00    +0.000 C 
BRANCH   7   9
ATOM      9  C   UNL     1      13.931  50.569  43.861  0.00  0.00    +0.000 C 
ATOM     10  O   UNL     1      13.614  50.936  42.730  0.00  0.00    +0.000 OA
BRANCH   9  15
ATOM     11  C   UNL     1      17.014  52.413  45.035  0.00  0.00    +0.000 A 
ATOM     12  C   UNL     1      16.538  53.039  46.196  0.00  0.00    +0.000 A 
ATOM     13  C   UNL     1      15.203  52.897  46.573  0.00  0.00    +0.000 A 
ATOM     14  C   UNL     1      14.345  52.106  45.807  0.00  0.00    +0.000 A 
ATOM     15  C   UNL     1      14.825  51.433  44.673  0.00  0.00    +0.000 A 
ATOM     16  C   UNL     1      16.164  51.605  44.272  0.00  0.00    +0.000 A 
BRANCH  11  18
ATOM     17  O   UNL     1      18.873  52.717  43.558  0.00  0.00    +0.000 OA
ATOM     18  C   UNL     1      18.430  52.636  44.689  0.00  0.00    +0.000 C 
BRANCH  18  19
ATOM     19  O   UNL     1      19.230  52.621  45.768  0.00  0.00    +0.000 OA
ATOM     20  H   UNL     1      19.205  51.695  46.081  0.00  0.00    +0.000 HD
ENDBRANCH  18  19
ENDBRANCH  11  18
BRANCH  16  21
ATOM     21  O   UNL     1      16.661  50.962  43.167  0.00  0.00    +0.000 OA
ATOM     22  H   UNL     1      15.970  50.963  42.467  0.00  0.00    +0.000 HD
ENDBRANCH  16  21
ENDBRANCH   9  15
ENDBRANCH   7   9
ENDBRANCH   1   8
BRANCH   5  23
ATOM     23  O   UNL     1      14.773  43.594  45.554  0.00  0.00    +0.000 OA
BRANCH  23  24
ATOM     24  C   UNL     1      14.341  42.606  44.611  0.00  0.00    +0.000 C 
BRANCH  24  25
ATOM     25  C   UNL     1      15.193  41.356  44.627  0.00  0.00    +0.000 A 
ATOM     26  C   UNL     1      15.568  40.743  43.436  0.00  0.00    +0.000 A 
ATOM     27  C   UNL     1      16.344  39.591  43.494  0.00  0.00    +0.000 A 
ATOM     28  C   UNL     1      16.723  39.070  44.736  0.00  0.00    +0.000 A 
ATOM     29  C   UNL     1      17.507  37.908  44.842  0.00  0.00    +0.000 A 
ATOM     30  C   UNL     1      17.867  37.414  46.094  0.00  0.00    +0.000 A 
ATOM     31  C   UNL     1      17.446  38.077  47.241  0.00  0.00    +0.000 A 
ATOM     32  C   UNL     1      16.666  39.232  47.131  0.00  0.00    +0.000 A 
ATOM     33  C   UNL     1      16.294  39.747  45.896  0.00  0.00    +0.000 A 
ATOM     34  N   UNL     1      15.543  40.863  45.844  0.00  0.00    +0.000 NA
ENDBRANCH  24  25
ENDBRANCH  23  24
ENDBRANCH   5  23
TORSDOF 9
ENDMDL
