MODEL 1
REMARK VINA RESULT:    -5.064      0.000      0.000
REMARK INTER + INTRA:          -9.420
REMARK INTER:                  -6.675
REMARK INTRA:                  -2.745
REMARK UNBOUND:                -2.727
REMARK  Name = 
REMARK  10 active torsions:
REMARK  status: ('A' for Active; 'I' for Inactive)
REMARK    1  A    between atoms: C_1  and  C_2
REMARK    2  A    between atoms: C_3  and  C_4
REMARK    3  A    between atoms: C_7  and  C_8
REMARK    4  A    between atoms: C_9  and  O_10
REMARK    5  A    between atoms: C_13  and  C_14
REMARK    6  A    between atoms: C_13  and  C_15
REMARK    7  A    between atoms: C_15  and  O_16
REMARK    8  A    between atoms: O_16  and  C_17
REMARK    9  A    between atoms: C_17  and  C_18
REMARK   10  A    between atoms: C_20  and  C_21
REMARK                            x       y       z     vdW  Elec       q    Type
REMARK                         _______ _______ _______ _____ _____    ______ ____
ROOT
ATOM      1  C   UNL     1      14.495  47.172  45.158  0.00  0.00    +0.000 C 
ATOM      2  C   UNL     1      13.540  46.195  45.797  0.00  0.00    +0.000 A 
ATOM      3  C   UNL     1      12.351  46.642  46.410  0.00  0.00    +0.000 A 
ATOM      4  C   UNL     1      11.992  48.107  46.431  0.00  0.00    +0.000 C 
ATOM      5  C   UNL     1      11.460  45.693  46.947  0.00  0.00    +0.000 A 
ATOM      6  C   UNL     1      11.773  44.321  46.972  0.00  0.00    +0.000 A 
ATOM      7  C   UNL     1      13.004  43.875  46.443  0.00  0.00    +0.000 A 
ATOM      8  C   UNL     1      13.400  42.423  46.525  0.00  0.00    +0.000 C 
ATOM      9  C   UNL     1      13.844  44.822  45.828  0.00  0.00    +0.000 A 
ATOM     10  C   UNL     1      10.802  43.403  47.576  0.00  0.00    +0.000 C 
ATOM     11  C   UNL     1       9.584  43.863  47.877  0.00  0.00    +0.000 C 
ATOM     12  C   UNL     1       9.176  45.297  47.642  0.00  0.00    +0.000 C 
ATOM     13  C   UNL     1       8.425  45.807  48.881  0.00  0.00    +0.000 C 
ATOM     14  O   UNL     1      10.296  46.190  47.480  0.00  0.00    +0.000 OA
ENDROOT
BRANCH   9  15
ATOM     15  O   UNL     1      15.013  44.434  45.222  0.00  0.00    +0.000 OA
ATOM     16  H   UNL     1      15.105  44.925  44.391  0.00  0.00    +0.000 HD
ENDBRANCH   9  15
BRANCH  12  17
ATOM     17  C   UNL     1       8.280  45.391  46.381  0.00  0.00    +0.000 C 
BRANCH  17  18
ATOM     18  O   UNL     1       8.634  46.526  45.574  0.00  0.00    +0.000 OA
BRANCH  18  19
ATOM     19  C   UNL     1       8.484  46.273  44.176  0.00  0.00    +0.000 C 
BRANCH  19  20
ATOM     20  C   UNL     1       9.801  45.876  43.637  0.00  0.00    +0.000 A 
ATOM     21  C   UNL     1      10.451  44.676  43.483  0.00  0.00    +0.000 A 
ATOM     22  C   UNL     1      11.706  45.008  42.902  0.00  0.00    +0.000 A 
ATOM     23  N   UNL     1      11.785  46.338  42.723  0.00  0.00    +0.000 NA
ATOM     24  O   UNL     1      10.599  46.872  43.180  0.00  0.00    +0.000 OA
BRANCH  22  25
ATOM     25  C   UNL     1      12.807  44.112  42.526  0.00  0.00    +0.000 A 
ATOM     26  C   UNL     1      13.937  44.595  41.845  0.00  0.00    +0.000 A 
ATOM     27  C   UNL     1      14.980  43.732  41.493  0.00  0.00    +0.000 A 
ATOM     28  C   UNL     1      14.899  42.385  41.819  0.00  0.00    +0.000 A 
ATOM     29  F   UNL     1      15.900  41.562  41.480  0.00  0.00    +0.000 F 
ATOM     30  C   UNL     1      13.794  41.881  42.491  0.00  0.00    +0.000 A 
ATOM     31  C   UNL     1      12.751  42.742  42.844  0.00  0.00    +0.000 A 
ENDBRANCH  22  25
ENDBRANCH  19  20
ENDBRANCH  18  19
ENDBRANCH  17  18
ENDBRANCH  12  17
TORSDOF 6
ENDMDL
MODEL 2
REMARK VINA RESULT:    -5.016     13.033     16.368
REMARK INTER + INTRA:          -9.356
REMARK INTER:                  -7.931
REMARK INTRA:                  -1.425
REMARK UNBOUND:                -2.727
REMARK  Name = 
REMARK  10 active torsions:
REMARK  status: ('A' for Active; 'I' for Inactive)
REMARK    1  A    between atoms: C_1  and  C_2
REMARK    2  A    between atoms: C_3  and  C_4
REMARK    3  A    between atoms: C_7  and  C_8
REMARK    4  A    between atoms: C_9  and  O_10
REMARK    5  A    between atoms: C_13  and  C_14
REMARK    6  A    between atoms: C_13  and  C_15
REMARK    7  A    between atoms: C_15  and  O_16
REMARK    8  A    between atoms: O_16  and  C_17
REMARK    9  A    between atoms: C_17  and  C_18
REMARK   10  A    between atoms: C_20  and  C_21
REMARK                            x       y       z     vdW  Elec       q    Type
REMARK                         _______ _______ _______ _____ _____    ______ ____
ROOT
ATOM      1  C   UNL     1      18.415  34.159  55.407  0.00  0.00    +0.000 C 
ATOM      2  C   UNL     1      19.878  33.978  55.088  0.00  0.00    +0.000 A 
ATOM      3  C   UNL     1      20.283  33.298  53.921  0.00  0.00    +0.000 A 
ATOM      4  C   UNL     1      19.268  32.746  52.951  0.00  0.00    +0.000 C 
ATOM      5  C   UNL     1      21.658  33.199  53.631  0.00  0.00    +0.000 A 
ATOM      6  C   UNL     1      22.635  33.675  54.525  0.00  0.00    +0.000 A 
ATOM      7  C   UNL     1      22.238  34.275  55.740  0.00  0.00    +0.000 A 
ATOM      8  C   UNL     1      23.262  34.726  56.750  0.00  0.00    +0.000 C 
ATOM      9  C   UNL     1      20.861  34.450  55.975  0.00  0.00    +0.000 A 
ATOM     10  C   UNL     1      24.045  33.506  54.159  0.00  0.00    +0.000 C 
ATOM     11  C   UNL     1      24.344  33.112  52.918  0.00  0.00    +0.000 C 
ATOM     12  C   UNL     1      23.287  32.810  51.884  0.00  0.00    +0.000 C 
ATOM     13  C   UNL     1      23.659  31.507  51.161  0.00  0.00    +0.000 C 
ATOM     14  O   UNL     1      21.983  32.572  52.453  0.00  0.00    +0.000 OA
ENDROOT
BRANCH   9  15
ATOM     15  O   UNL     1      20.419  35.102  57.099  0.00  0.00    +0.000 OA
ATOM     16  H   UNL     1      19.468  34.938  57.194  0.00  0.00    +0.000 HD
ENDBRANCH   9  15
BRANCH  12  17
ATOM     17  C   UNL     1      23.183  33.984  50.877  0.00  0.00    +0.000 C 
BRANCH  17  18
ATOM     18  O   UNL     1      21.971  33.907  50.110  0.00  0.00    +0.000 OA
BRANCH  18  19
ATOM     19  C   UNL     1      21.714  35.100  49.369  0.00  0.00    +0.000 C 
BRANCH  19  20
ATOM     20  C   UNL     1      20.615  35.829  50.037  0.00  0.00    +0.000 A 
ATOM     21  C   UNL     1      20.511  36.546  51.203  0.00  0.00    +0.000 A 
ATOM     22  C   UNL     1      19.156  36.975  51.252  0.00  0.00    +0.000 A 
ATOM     23  N   UNL     1      18.500  36.533  50.165  0.00  0.00    +0.000 NA
ATOM     24  O   UNL     1      19.411  35.822  49.413  0.00  0.00    +0.000 OA
BRANCH  22  25
ATOM     25  C   UNL     1      18.485  37.775  52.286  0.00  0.00    +0.000 A 
ATOM     26  C   UNL     1      17.774  37.162  53.331  0.00  0.00    +0.000 A 
ATOM     27  C   UNL     1      17.139  37.934  54.310  0.00  0.00    +0.000 A 
ATOM     28  C   UNL     1      17.213  39.319  54.249  0.00  0.00    +0.000 A 
ATOM     29  F   UNL     1      16.604  40.055  55.189  0.00  0.00    +0.000 F 
ATOM     30  C   UNL     1      17.909  39.950  53.228  0.00  0.00    +0.000 A 
ATOM     31  C   UNL     1      18.544  39.180  52.249  0.00  0.00    +0.000 A 
ENDBRANCH  22  25
ENDBRANCH  19  20
ENDBRANCH  18  19
ENDBRANCH  17  18
ENDBRANCH  12  17
TORSDOF 6
ENDMDL
MODEL 3
REMARK VINA RESULT:    -4.883      3.714      7.371
REMARK INTER + INTRA:          -9.181
REMARK INTER:                  -6.454
REMARK INTRA:                  -2.727
REMARK UNBOUND:                -2.727
REMARK  Name = 
REMARK  10 active torsions:
REMARK  status: ('A' for Active; 'I' for Inactive)
REMARK    1  A    between atoms: C_1  and  C_2
REMARK    2  A    between atoms: C_3  and  C_4
REMARK    3  A    between atoms: C_7  and  C_8
REMARK    4  A    between atoms: C_9  and  O_10
REMARK    5  A    between atoms: C_13  and  C_14
REMARK    6  A    between atoms: C_13  and  C_15
REMARK    7  A    between atoms: C_15  and  O_16
REMARK    8  A    between atoms: O_16  and  C_17
REMARK    9  A    between atoms: C_17  and  C_18
REMARK   10  A    between atoms: C_20  and  C_21
REMARK                            x       y       z     vdW  Elec       q    Type
REMARK                         _______ _______ _______ _____ _____    ______ ____
ROOT
ATOM      1  C   UNL     1      14.434  41.488  47.331  0.00  0.00    +0.000 C 
ATOM      2  C   UNL     1      15.140  41.282  46.014  0.00  0.00    +0.000 A 
ATOM      3  C   UNL     1      15.497  39.988  45.581  0.00  0.00    +0.000 A 
ATOM      4  C   UNL     1      15.170  38.772  46.413  0.00  0.00    +0.000 C 
ATOM      5  C   UNL     1      16.105  39.833  44.321  0.00  0.00    +0.000 A 
ATOM      6  C   UNL     1      16.452  40.944  43.529  0.00  0.00    +0.000 A 
ATOM      7  C   UNL     1      16.181  42.248  43.998  0.00  0.00    +0.000 A 
ATOM      8  C   UNL     1      16.609  43.458  43.207  0.00  0.00    +0.000 C 
ATOM      9  C   UNL     1      15.490  42.386  45.217  0.00  0.00    +0.000 A 
ATOM     10  C   UNL     1      17.108  40.696  42.242  0.00  0.00    +0.000 C 
ATOM     11  C   UNL     1      17.156  39.444  41.776  0.00  0.00    +0.000 C 
ATOM     12  C   UNL     1      16.582  38.272  42.534  0.00  0.00    +0.000 C 
ATOM     13  C   UNL     1      17.587  37.112  42.487  0.00  0.00    +0.000 C 
ATOM     14  O   UNL     1      16.378  38.544  43.935  0.00  0.00    +0.000 OA
ENDROOT
BRANCH   9  15
ATOM     15  O   UNL     1      15.126  43.625  45.680  0.00  0.00    +0.000 OA
ATOM     16  H   UNL     1      15.694  43.850  46.433  0.00  0.00    +0.000 HD
ENDBRANCH   9  15
BRANCH  12  17
ATOM     17  C   UNL     1      15.229  37.850  41.907  0.00  0.00    +0.000 C 
BRANCH  17  18
ATOM     18  O   UNL     1      15.056  38.429  40.604  0.00  0.00    +0.000 OA
BRANCH  18  19
ATOM     19  C   UNL     1      13.723  38.892  40.382  0.00  0.00    +0.000 C 
BRANCH  19  20
ATOM     20  C   UNL     1      13.630  40.280  40.881  0.00  0.00    +0.000 A 
ATOM     21  C   UNL     1      13.035  40.869  41.969  0.00  0.00    +0.000 A 
ATOM     22  C   UNL     1      13.324  42.256  41.842  0.00  0.00    +0.000 A 
ATOM     23  N   UNL     1      14.056  42.467  40.734  0.00  0.00    +0.000 NA
ATOM     24  O   UNL     1      14.243  41.236  40.141  0.00  0.00    +0.000 OA
BRANCH  22  25
ATOM     25  C   UNL     1      12.928  43.359  42.727  0.00  0.00    +0.000 A 
ATOM     26  C   UNL     1      13.335  44.679  42.470  0.00  0.00    +0.000 A 
ATOM     27  C   UNL     1      12.952  45.722  43.319  0.00  0.00    +0.000 A 
ATOM     28  C   UNL     1      12.161  45.451  44.428  0.00  0.00    +0.000 A 
ATOM     29  F   UNL     1      11.795  46.452  45.239  0.00  0.00    +0.000 F 
ATOM     30  C   UNL     1      11.744  44.157  44.706  0.00  0.00    +0.000 A 
ATOM     31  C   UNL     1      12.127  43.113  43.858  0.00  0.00    +0.000 A 
ENDBRANCH  22  25
ENDBRANCH  19  20
ENDBRANCH  18  19
ENDBRANCH  17  18
ENDBRANCH  12  17
TORSDOF 6
ENDMDL
