MODEL 1
REMARK VINA RESULT:    -7.645      0.000      0.000
REMARK INTER + INTRA:         -11.016
REMARK INTER:                  -9.564
REMARK INTRA:                  -1.452
REMARK UNBOUND:                -0.689
REMARK  Name = 
REMARK  7 active torsions:
REMARK  status: ('A' for Active; 'I' for Inactive)
REMARK    1  A    between atoms: C_1  and  O_2
REMARK    2  A    between atoms: O_2  and  C_3
REMARK    3  A    between atoms: C_6  and  C_7
REMARK    4  A    between atoms: C_12  and  N_13
REMARK    5  A    between atoms: C_17  and  C_19
REMARK    6  A    between atoms: C_21  and  C_22
REMARK    7  A    between atoms: C_29  and  C_30
REMARK                            x       y       z     vdW  Elec       q    Type
REMARK                         _______ _______ _______ _____ _____    ______ ____
ROOT
ATOM      1  N   UNL     1      16.803  38.214  51.184  0.00  0.00    +0.000 NA
ATOM      2  C   UNL     1      16.606  37.328  50.035  0.00  0.00    +0.000 C 
ATOM      3  C   UNL     1      17.022  35.888  50.387  0.00  0.00    +0.000 C 
ATOM      4  N   UNL     1      18.390  35.784  50.896  0.00  0.00    +0.000 N 
ATOM      5  C   UNL     1      18.867  34.511  51.185  0.00  0.00    +0.000 C 
ATOM      6  O   UNL     1      18.177  33.496  51.117  0.00  0.00    +0.000 OA
ATOM      7  C   UNL     1      19.081  37.047  51.171  0.00  0.00    +0.000 C 
ATOM      8  C   UNL     1      18.156  38.139  51.757  0.00  0.00    +0.000 C 
ENDROOT
BRANCH   1  14
ATOM      9  C   UNL     1      14.516  42.487  53.868  0.00  0.00    +0.000 C 
ATOM     10  O   UNL     1      15.194  42.813  54.850  0.00  0.00    +0.000 OA
ATOM     11  N   UNL     1      15.024  41.599  52.927  0.00  0.00    +0.000 N 
ATOM     12  C   UNL     1      14.352  41.109  51.725  0.00  0.00    +0.000 C 
ATOM     13  C   UNL     1      14.739  39.663  51.432  0.00  0.00    +0.000 C 
ATOM     14  C   UNL     1      16.242  39.570  51.105  0.00  0.00    +0.000 C 
ATOM     15  C   UNL     1      17.071  40.597  51.905  0.00  0.00    +0.000 C 
ATOM     16  C   UNL     1      16.373  41.077  53.172  0.00  0.00    +0.000 C 
BRANCH   9  20
ATOM     17  C   UNL     1      10.538  44.342  54.112  0.00  0.00    +0.000 C 
ATOM     18  C   UNL     1      11.023  43.391  55.209  0.00  0.00    +0.000 C 
ATOM     19  C   UNL     1      12.065  42.398  54.690  0.00  0.00    +0.000 C 
ATOM     20  C   UNL     1      13.095  43.050  53.761  0.00  0.00    +0.000 C 
ATOM     21  C   UNL     1      13.084  44.581  53.791  0.00  0.00    +0.000 C 
ATOM     22  C   UNL     1      11.693  45.156  53.507  0.00  0.00    +0.000 C 
BRANCH  17  24
ATOM     23  C   UNL     1       9.737  44.227  51.870  0.00  0.00    +0.000 C 
ATOM     24  O   UNL     1       9.918  43.538  53.100  0.00  0.00    +0.000 OA
ENDBRANCH  17  24
ENDBRANCH   9  20
ENDBRANCH   1  14
BRANCH   5  25
ATOM     25  C   UNL     1      20.273  34.347  51.595  0.00  0.00    +0.000 A 
ATOM     26  C   UNL     1      21.264  34.465  50.626  0.00  0.00    +0.000 A 
ATOM     27  C   UNL     1      22.586  34.341  51.021  0.00  0.00    +0.000 A 
ATOM     28  N   UNL     1      22.914  34.107  52.320  0.00  0.00    +0.000 NA
ATOM     29  C   UNL     1      21.941  34.024  53.264  0.00  0.00    +0.000 A 
ATOM     30  C   UNL     1      20.601  34.149  52.932  0.00  0.00    +0.000 A 
BRANCH  27  31
ATOM     31  C   UNL     1      23.722  34.436  50.082  0.00  0.00    +0.000 A 
ATOM     32  C   UNL     1      25.009  33.974  50.414  0.00  0.00    +0.000 A 
ATOM     33  C   UNL     1      26.074  34.075  49.511  0.00  0.00    +0.000 A 
ATOM     34  C   UNL     1      25.876  34.638  48.256  0.00  0.00    +0.000 A 
ATOM     35  C   UNL     1      24.612  35.098  47.898  0.00  0.00    +0.000 A 
ATOM     36  C   UNL     1      23.550  34.993  48.800  0.00  0.00    +0.000 A 
ENDBRANCH  27  31
BRANCH  29  37
ATOM     37  C   UNL     1      22.412  33.812  54.647  0.00  0.00    +0.000 A 
ATOM     38  C   UNL     1      21.489  33.638  55.696  0.00  0.00    +0.000 A 
ATOM     39  C   UNL     1      21.911  33.428  57.012  0.00  0.00    +0.000 A 
ATOM     40  C   UNL     1      23.269  33.394  57.311  0.00  0.00    +0.000 A 
ATOM     41  C   UNL     1      24.204  33.571  56.295  0.00  0.00    +0.000 A 
ATOM     42  C   UNL     1      23.780  33.778  54.978  0.00  0.00    +0.000 A 
ENDBRANCH  29  37
ENDBRANCH   5  25
TORSDOF 6
ENDMDL
MODEL 2
REMARK VINA RESULT:    -7.581      0.166      4.067
REMARK INTER + INTRA:         -10.929
REMARK INTER:                  -9.424
REMARK INTRA:                  -1.505
REMARK UNBOUND:                -0.689
REMARK  Name = 
REMARK  7 active torsions:
REMARK  status: ('A' for Active; 'I' for Inactive)
REMARK    1  A    between atoms: C_1  and  O_2
REMARK    2  A    between atoms: O_2  and  C_3
REMARK    3  A    between atoms: C_6  and  C_7
REMARK    4  A    between atoms: C_12  and  N_13
REMARK    5  A    between atoms: C_17  and  C_19
REMARK    6  A    between atoms: C_21  and  C_22
REMARK    7  A    between atoms: C_29  and  C_30
REMARK                            x       y       z     vdW  Elec       q    Type
REMARK                         _______ _______ _______ _____ _____    ______ ____
ROOT
ATOM      1  N   UNL     1      16.791  38.290  51.145  0.00  0.00    +0.000 NA
ATOM      2  C   UNL     1      16.625  37.423  49.977  0.00  0.00    +0.000 C 
ATOM      3  C   UNL     1      17.081  35.989  50.301  0.00  0.00    +0.000 C 
ATOM      4  N   UNL     1      18.449  35.914  50.815  0.00  0.00    +0.000 N 
ATOM      5  C   UNL     1      18.962  34.650  51.080  0.00  0.00    +0.000 C 
ATOM      6  O   UNL     1      18.302  33.617  50.988  0.00  0.00    +0.000 OA
ATOM      7  C   UNL     1      19.102  37.190  51.120  0.00  0.00    +0.000 C 
ATOM      8  C   UNL     1      18.143  38.243  51.723  0.00  0.00    +0.000 C 
ENDROOT
BRANCH   1  14
ATOM      9  C   UNL     1      14.481  42.490  53.923  0.00  0.00    +0.000 C 
ATOM     10  O   UNL     1      15.182  42.831  54.884  0.00  0.00    +0.000 OA
ATOM     11  N   UNL     1      14.981  41.619  52.962  0.00  0.00    +0.000 N 
ATOM     12  C   UNL     1      14.282  41.117  51.781  0.00  0.00    +0.000 C 
ATOM     13  C   UNL     1      14.698  39.682  51.468  0.00  0.00    +0.000 C 
ATOM     14  C   UNL     1      16.192  39.631  51.091  0.00  0.00    +0.000 C 
ATOM     15  C   UNL     1      17.018  40.678  51.867  0.00  0.00    +0.000 C 
ATOM     16  C   UNL     1      16.351  41.133  53.160  0.00  0.00    +0.000 C 
BRANCH   9  20
ATOM     17  C   UNL     1      10.482  44.280  54.284  0.00  0.00    +0.000 C 
ATOM     18  C   UNL     1      11.059  43.428  55.417  0.00  0.00    +0.000 C 
ATOM     19  C   UNL     1      12.091  42.418  54.909  0.00  0.00    +0.000 C 
ATOM     20  C   UNL     1      13.043  43.015  53.867  0.00  0.00    +0.000 C 
ATOM     21  C   UNL     1      12.995  44.543  53.779  0.00  0.00    +0.000 C 
ATOM     22  C   UNL     1      11.575  45.066  53.543  0.00  0.00    +0.000 C 
BRANCH  17  24
ATOM     23  C   UNL     1       9.773  43.872  52.045  0.00  0.00    +0.000 C 
ATOM     24  O   UNL     1       9.819  43.386  53.380  0.00  0.00    +0.000 OA
ENDBRANCH  17  24
ENDBRANCH   9  20
ENDBRANCH   1  14
BRANCH   5  25
ATOM     25  C   UNL     1      20.370  34.518  51.495  0.00  0.00    +0.000 A 
ATOM     26  C   UNL     1      20.646  34.280  52.837  0.00  0.00    +0.000 A 
ATOM     27  C   UNL     1      21.970  34.126  53.217  0.00  0.00    +0.000 A 
ATOM     28  N   UNL     1      22.978  34.205  52.307  0.00  0.00    +0.000 NA
ATOM     29  C   UNL     1      22.696  34.407  50.994  0.00  0.00    +0.000 A 
ATOM     30  C   UNL     1      21.391  34.560  50.551  0.00  0.00    +0.000 A 
BRANCH  27  31
ATOM     31  C   UNL     1      22.386  33.882  54.613  0.00  0.00    +0.000 A 
ATOM     32  C   UNL     1      21.456  33.745  55.659  0.00  0.00    +0.000 A 
ATOM     33  C   UNL     1      21.871  33.516  56.977  0.00  0.00    +0.000 A 
ATOM     34  C   UNL     1      23.225  33.416  57.276  0.00  0.00    +0.000 A 
ATOM     35  C   UNL     1      24.167  33.541  56.260  0.00  0.00    +0.000 A 
ATOM     36  C   UNL     1      23.750  33.767  54.945  0.00  0.00    +0.000 A 
ENDBRANCH  27  31
BRANCH  29  37
ATOM     37  C   UNL     1      23.862  34.433  50.089  0.00  0.00    +0.000 A 
ATOM     38  C   UNL     1      23.777  35.066  48.834  0.00  0.00    +0.000 A 
ATOM     39  C   UNL     1      24.870  35.111  47.963  0.00  0.00    +0.000 A 
ATOM     40  C   UNL     1      26.073  34.514  48.326  0.00  0.00    +0.000 A 
ATOM     41  C   UNL     1      26.184  33.874  49.557  0.00  0.00    +0.000 A 
ATOM     42  C   UNL     1      25.090  33.833  50.428  0.00  0.00    +0.000 A 
ENDBRANCH  29  37
ENDBRANCH   5  25
TORSDOF 6
ENDMDL
MODEL 3
REMARK VINA RESULT:    -7.544      6.020     14.050
REMARK INTER + INTRA:         -10.879
REMARK INTER:                 -10.190
REMARK INTRA:                  -0.689
REMARK UNBOUND:                -0.689
REMARK  Name = 
REMARK  7 active torsions:
REMARK  status: ('A' for Active; 'I' for Inactive)
REMARK    1  A    between atoms: C_1  and  O_2
REMARK    2  A    between atoms: O_2  and  C_3
REMARK    3  A    between atoms: C_6  and  C_7
REMARK    4  A    between atoms: C_12  and  N_13
REMARK    5  A    between atoms: C_17  and  C_19
REMARK    6  A    between atoms: C_21  and  C_22
REMARK    7  A    between atoms: C_29  and  C_30
REMARK                            x       y       z     vdW  Elec       q    Type
REMARK                         _______ _______ _______ _____ _____    ______ ____
ROOT
ATOM      1  N   UNL     1      15.813  40.146  46.362  0.00  0.00    +0.000 NA
ATOM      2  C   UNL     1      15.371  40.126  44.965  0.00  0.00    +0.000 C 
ATOM      3  C   UNL     1      15.499  41.527  44.340  0.00  0.00    +0.000 C 
ATOM      4  N   UNL     1      14.798  42.567  45.092  0.00  0.00    +0.000 N 
ATOM      5  C   UNL     1      14.814  43.853  44.565  0.00  0.00    +0.000 C 
ATOM      6  O   UNL     1      15.451  44.168  43.562  0.00  0.00    +0.000 OA
ATOM      7  C   UNL     1      14.253  42.176  46.395  0.00  0.00    +0.000 C 
ATOM      8  C   UNL     1      15.159  41.188  47.168  0.00  0.00    +0.000 C 
ENDROOT
BRANCH   1  14
ATOM      9  C   UNL     1      18.120  37.337  50.542  0.00  0.00    +0.000 C 
ATOM     10  O   UNL     1      17.910  37.895  51.626  0.00  0.00    +0.000 OA
ATOM     11  N   UNL     1      17.439  37.741  49.400  0.00  0.00    +0.000 N 
ATOM     12  C   UNL     1      17.579  37.195  48.051  0.00  0.00    +0.000 C 
ATOM     13  C   UNL     1      17.412  38.286  46.999  0.00  0.00    +0.000 C 
ATOM     14  C   UNL     1      15.980  38.855  47.044  0.00  0.00    +0.000 C 
ATOM     15  C   UNL     1      15.410  38.869  48.478  0.00  0.00    +0.000 C 
ATOM     16  C   UNL     1      16.490  38.849  49.554  0.00  0.00    +0.000 C 
BRANCH   9  20
ATOM     17  C   UNL     1      21.066  34.108  51.012  0.00  0.00    +0.000 C 
ATOM     18  C   UNL     1      21.130  35.355  51.896  0.00  0.00    +0.000 C 
ATOM     19  C   UNL     1      20.497  36.573  51.219  0.00  0.00    +0.000 C 
ATOM     20  C   UNL     1      19.187  36.237  50.499  0.00  0.00    +0.000 C 
ATOM     21  C   UNL     1      18.608  34.866  50.860  0.00  0.00    +0.000 C 
ATOM     22  C   UNL     1      19.620  33.736  50.648  0.00  0.00    +0.000 C 
BRANCH  17  24
ATOM     23  C   UNL     1      23.222  34.312  50.015  0.00  0.00    +0.000 C 
ATOM     24  O   UNL     1      21.816  34.394  49.824  0.00  0.00    +0.000 OA
ENDBRANCH  17  24
ENDBRANCH   9  20
ENDBRANCH   1  14
BRANCH   5  25
ATOM     25  C   UNL     1      14.031  44.911  45.229  0.00  0.00    +0.000 A 
ATOM     26  C   UNL     1      14.395  46.237  45.018  0.00  0.00    +0.000 A 
ATOM     27  C   UNL     1      13.638  47.229  45.619  0.00  0.00    +0.000 A 
ATOM     28  N   UNL     1      12.565  46.922  46.397  0.00  0.00    +0.000 NA
ATOM     29  C   UNL     1      12.199  45.627  46.572  0.00  0.00    +0.000 A 
ATOM     30  C   UNL     1      12.912  44.590  45.990  0.00  0.00    +0.000 A 
BRANCH  27  31
ATOM     31  C   UNL     1      13.934  48.669  45.477  0.00  0.00    +0.000 A 
ATOM     32  C   UNL     1      13.028  49.664  45.889  0.00  0.00    +0.000 A 
ATOM     33  C   UNL     1      13.326  51.024  45.744  0.00  0.00    +0.000 A 
ATOM     34  C   UNL     1      14.537  51.420  45.187  0.00  0.00    +0.000 A 
ATOM     35  C   UNL     1      15.454  50.457  44.777  0.00  0.00    +0.000 A 
ATOM     36  C   UNL     1      15.156  49.099  44.925  0.00  0.00    +0.000 A 
ENDBRANCH  27  31
BRANCH  29  37
ATOM     37  C   UNL     1      10.996  45.411  47.401  0.00  0.00    +0.000 A 
ATOM     38  C   UNL     1      10.608  44.109  47.771  0.00  0.00    +0.000 A 
ATOM     39  C   UNL     1       9.478  43.880  48.561  0.00  0.00    +0.000 A 
ATOM     40  C   UNL     1       8.703  44.952  48.993  0.00  0.00    +0.000 A 
ATOM     41  C   UNL     1       9.057  46.250  48.635  0.00  0.00    +0.000 A 
ATOM     42  C   UNL     1      10.190  46.476  47.847  0.00  0.00    +0.000 A 
ENDBRANCH  29  37
ENDBRANCH   5  25
TORSDOF 6
ENDMDL
