MODEL 1
REMARK VINA RESULT:    -5.672      0.000      0.000
REMARK INTER + INTRA:          -7.814
REMARK INTER:                  -7.320
REMARK INTRA:                  -0.494
REMARK UNBOUND:                -0.650
REMARK  Name = 
REMARK  7 active torsions:
REMARK  status: ('A' for Active; 'I' for Inactive)
REMARK    1  A    between atoms: C_1  and  C_2
REMARK    2  A    between atoms: C_2  and  C_3
REMARK    3  A    between atoms: C_2  and  N_4
REMARK    4  A    between atoms: N_4  and  C_5
REMARK    5  A    between atoms: C_10  and  N_11
REMARK    6  A    between atoms: C_15  and  C_17
REMARK    7  A    between atoms: C_22  and  O_23
REMARK                            x       y       z     vdW  Elec       q    Type
REMARK                         _______ _______ _______ _____ _____    ______ ____
ROOT
ATOM      1  N   UNL     1      13.375  44.981  44.859  0.00  0.00    +0.000 N 
ATOM      2  C   UNL     1      13.834  45.970  45.863  0.00  0.00    +0.000 C 
ATOM      3  C   UNL     1      14.361  47.273  45.234  0.00  0.00    +0.000 C 
ATOM      4  N   UNL     1      13.370  47.907  44.350  0.00  0.00    +0.000 N 
ATOM      5  C   UNL     1      13.173  49.277  44.223  0.00  0.00    +0.000 C 
ATOM      6  O   UNL     1      12.103  49.720  43.802  0.00  0.00    +0.000 OA
ATOM      7  C   UNL     1      12.349  47.010  43.802  0.00  0.00    +0.000 C 
ATOM      8  C   UNL     1      12.881  45.583  43.589  0.00  0.00    +0.000 C 
ENDROOT
BRANCH   5   9
ATOM      9  C   UNL     1      14.233  50.193  44.596  0.00  0.00    +0.000 A 
ATOM     10  C   UNL     1      14.312  51.230  45.510  0.00  0.00    +0.000 A 
ATOM     11  C   UNL     1      15.626  51.774  45.468  0.00  0.00    +0.000 A 
ATOM     12  C   UNL     1      16.271  52.829  46.142  0.00  0.00    +0.000 A 
ATOM     13  C   UNL     1      17.615  53.100  45.860  0.00  0.00    +0.000 A 
ATOM     14  C   UNL     1      18.304  52.331  44.930  0.00  0.00    +0.000 A 
ATOM     15  C   UNL     1      17.696  51.274  44.249  0.00  0.00    +0.000 A 
ATOM     16  C   UNL     1      16.350  51.024  44.544  0.00  0.00    +0.000 A 
ATOM     17  N   UNL     1      15.496  50.062  44.059  0.00  0.00    +0.000 N 
ATOM     18  H   UNL     1      15.743  49.342  43.393  0.00  0.00    +0.000 HD
BRANCH  14  19
ATOM     19  O   UNL     1      19.614  52.647  44.703  0.00  0.00    +0.000 OA
ATOM     20  H   UNL     1      19.840  53.422  45.242  0.00  0.00    +0.000 HD
ENDBRANCH  14  19
ENDBRANCH   5   9
BRANCH   1  26
ATOM     21  C   UNL     1      14.544  42.892  45.365  0.00  0.00    +0.000 A 
ATOM     22  C   UNL     1      15.483  41.935  44.982  0.00  0.00    +0.000 A 
ATOM     23  C   UNL     1      16.287  42.155  43.866  0.00  0.00    +0.000 A 
ATOM     24  C   UNL     1      16.111  43.325  43.151  0.00  0.00    +0.000 A 
ATOM     25  N   UNL     1      15.191  44.265  43.454  0.00  0.00    +0.000 NA
ATOM     26  C   UNL     1      14.402  44.040  44.532  0.00  0.00    +0.000 A 
BRANCH  21  27
ATOM     27  N   UNL     1      13.683  42.723  46.472  0.00  0.00    +0.000 N 
ATOM     28  H   UNL     1      14.060  43.318  47.219  0.00  0.00    +0.000 HD
BRANCH  27  30
ATOM     29  C   UNL     1      14.194  41.018  48.178  0.00  0.00    +0.000 C 
ATOM     30  C   UNL     1      13.366  41.373  46.943  0.00  0.00    +0.000 C 
ATOM     31  C   UNL     1      11.875  41.334  47.283  0.00  0.00    +0.000 C 
ENDBRANCH  27  30
ENDBRANCH  21  27
ENDBRANCH   1  26
TORSDOF 5
ENDMDL
MODEL 2
REMARK VINA RESULT:    -5.517      5.095      9.433
REMARK INTER + INTRA:          -7.618
REMARK INTER:                  -6.974
REMARK INTRA:                  -0.644
REMARK UNBOUND:                -0.650
REMARK  Name = 
REMARK  7 active torsions:
REMARK  status: ('A' for Active; 'I' for Inactive)
REMARK    1  A    between atoms: C_1  and  C_2
REMARK    2  A    between atoms: C_2  and  C_3
REMARK    3  A    between atoms: C_2  and  N_4
REMARK    4  A    between atoms: N_4  and  C_5
REMARK    5  A    between atoms: C_10  and  N_11
REMARK    6  A    between atoms: C_15  and  C_17
REMARK    7  A    between atoms: C_22  and  O_23
REMARK                            x       y       z     vdW  Elec       q    Type
REMARK                         _______ _______ _______ _____ _____    ______ ____
ROOT
ATOM      1  N   UNL     1      12.653  42.690  45.454  0.00  0.00    +0.000 N 
ATOM      2  C   UNL     1      13.863  41.859  45.661  0.00  0.00    +0.000 C 
ATOM      3  C   UNL     1      14.125  41.528  47.141  0.00  0.00    +0.000 C 
ATOM      4  N   UNL     1      12.974  40.871  47.779  0.00  0.00    +0.000 N 
ATOM      5  C   UNL     1      13.056  39.858  48.728  0.00  0.00    +0.000 C 
ATOM      6  O   UNL     1      12.107  39.095  48.914  0.00  0.00    +0.000 OA
ATOM      7  C   UNL     1      11.676  41.117  47.145  0.00  0.00    +0.000 C 
ATOM      8  C   UNL     1      11.601  42.508  46.493  0.00  0.00    +0.000 C 
ENDROOT
BRANCH   5   9
ATOM      9  C   UNL     1      14.273  39.694  49.500  0.00  0.00    +0.000 A 
ATOM     10  C   UNL     1      15.307  38.774  49.457  0.00  0.00    +0.000 A 
ATOM     11  C   UNL     1      16.264  39.119  50.451  0.00  0.00    +0.000 A 
ATOM     12  C   UNL     1      17.483  38.555  50.875  0.00  0.00    +0.000 A 
ATOM     13  C   UNL     1      18.200  39.172  51.906  0.00  0.00    +0.000 A 
ATOM     14  C   UNL     1      17.717  40.333  52.498  0.00  0.00    +0.000 A 
ATOM     15  C   UNL     1      16.516  40.922  52.096  0.00  0.00    +0.000 A 
ATOM     16  C   UNL     1      15.812  40.284  51.067  0.00  0.00    +0.000 A 
ATOM     17  N   UNL     1      14.630  40.624  50.454  0.00  0.00    +0.000 N 
ATOM     18  H   UNL     1      14.077  41.444  50.662  0.00  0.00    +0.000 HD
BRANCH  14  19
ATOM     19  O   UNL     1      18.467  40.886  53.497  0.00  0.00    +0.000 OA
ATOM     20  H   UNL     1      19.174  40.263  53.730  0.00  0.00    +0.000 HD
ENDBRANCH  14  19
ENDBRANCH   5   9
BRANCH   1  26
ATOM     21  C   UNL     1      13.548  44.577  44.179  0.00  0.00    +0.000 A 
ATOM     22  C   UNL     1      13.764  45.952  44.088  0.00  0.00    +0.000 A 
ATOM     23  C   UNL     1      13.485  46.773  45.176  0.00  0.00    +0.000 A 
ATOM     24  C   UNL     1      12.975  46.194  46.323  0.00  0.00    +0.000 A 
ATOM     25  N   UNL     1      12.709  44.878  46.451  0.00  0.00    +0.000 NA
ATOM     26  C   UNL     1      12.970  44.083  45.386  0.00  0.00    +0.000 A 
BRANCH  21  27
ATOM     27  N   UNL     1      13.789  43.688  43.107  0.00  0.00    +0.000 N 
ATOM     28  H   UNL     1      13.639  42.744  43.481  0.00  0.00    +0.000 HD
BRANCH  27  30
ATOM     29  C   UNL     1      16.225  43.314  43.183  0.00  0.00    +0.000 C 
ATOM     30  C   UNL     1      15.037  43.793  42.348  0.00  0.00    +0.000 C 
ATOM     31  C   UNL     1      14.896  42.929  41.094  0.00  0.00    +0.000 C 
ENDBRANCH  27  30
ENDBRANCH  21  27
ENDBRANCH   1  26
TORSDOF 5
ENDMDL
MODEL 3
REMARK VINA RESULT:    -5.510      2.772      4.174
REMARK INTER + INTRA:          -7.609
REMARK INTER:                  -6.959
REMARK INTRA:                  -0.650
REMARK UNBOUND:                -0.650
REMARK  Name = 
REMARK  7 active torsions:
REMARK  status: ('A' for Active; 'I' for Inactive)
REMARK    1  A    between atoms: C_1  and  C_2
REMARK    2  A    between atoms: C_2  and  C_3
REMARK    3  A    between atoms: C_2  and  N_4
REMARK    4  A    between atoms: N_4  and  C_5
REMARK    5  A    between atoms: C_10  and  N_11
REMARK    6  A    between atoms: C_15  and  C_17
REMARK    7  A    between atoms: C_22  and  O_23
REMARK                            x       y       z     vdW  Elec       q    Type
REMARK                         _______ _______ _______ _____ _____    ______ ____
ROOT
ATOM      1  N   UNL     1      14.280  42.008  43.372  0.00  0.00    +0.000 N 
ATOM      2  C   UNL     1      15.281  43.071  43.627  0.00  0.00    +0.000 C 
ATOM      3  C   UNL     1      14.660  44.476  43.738  0.00  0.00    +0.000 C 
ATOM      4  N   UNL     1      13.612  44.542  44.769  0.00  0.00    +0.000 N 
ATOM      5  C   UNL     1      13.382  45.628  45.606  0.00  0.00    +0.000 C 
ATOM      6  O   UNL     1      12.792  45.480  46.677  0.00  0.00    +0.000 OA
ATOM      7  C   UNL     1      12.977  43.265  45.107  0.00  0.00    +0.000 C 
ATOM      8  C   UNL     1      12.921  42.307  43.906  0.00  0.00    +0.000 C 
ENDROOT
BRANCH   5   9
ATOM      9  C   UNL     1      13.849  46.945  45.218  0.00  0.00    +0.000 A 
ATOM     10  C   UNL     1      13.236  48.028  44.609  0.00  0.00    +0.000 A 
ATOM     11  C   UNL     1      14.184  49.082  44.493  0.00  0.00    +0.000 A 
ATOM     12  C   UNL     1      14.141  50.384  43.957  0.00  0.00    +0.000 A 
ATOM     13  C   UNL     1      15.286  51.185  44.017  0.00  0.00    +0.000 A 
ATOM     14  C   UNL     1      16.449  50.703  44.606  0.00  0.00    +0.000 A 
ATOM     15  C   UNL     1      16.523  49.420  45.154  0.00  0.00    +0.000 A 
ATOM     16  C   UNL     1      15.366  48.634  45.078  0.00  0.00    +0.000 A 
ATOM     17  N   UNL     1      15.126  47.359  45.531  0.00  0.00    +0.000 N 
ATOM     18  H   UNL     1      15.788  46.781  46.032  0.00  0.00    +0.000 HD
BRANCH  14  19
ATOM     19  O   UNL     1      17.530  51.538  44.634  0.00  0.00    +0.000 OA
ATOM     20  H   UNL     1      17.278  52.381  44.223  0.00  0.00    +0.000 HD
ENDBRANCH  14  19
ENDBRANCH   5   9
BRANCH   1  26
ATOM     21  C   UNL     1      14.560  40.434  41.520  0.00  0.00    +0.000 A 
ATOM     22  C   UNL     1      14.343  40.131  40.176  0.00  0.00    +0.000 A 
ATOM     23  C   UNL     1      13.815  41.096  39.323  0.00  0.00    +0.000 A 
ATOM     24  C   UNL     1      13.499  42.335  39.847  0.00  0.00    +0.000 A 
ATOM     25  N   UNL     1      13.651  42.667  41.146  0.00  0.00    +0.000 NA
ATOM     26  C   UNL     1      14.152  41.722  41.976  0.00  0.00    +0.000 A 
BRANCH  21  27
ATOM     27  N   UNL     1      15.073  39.497  42.446  0.00  0.00    +0.000 N 
ATOM     28  H   UNL     1      14.796  39.833  43.375  0.00  0.00    +0.000 HD
BRANCH  27  30
ATOM     29  C   UNL     1      17.358  40.337  42.057  0.00  0.00    +0.000 C 
ATOM     30  C   UNL     1      16.488  39.125  42.389  0.00  0.00    +0.000 C 
ATOM     31  C   UNL     1      16.878  38.558  43.756  0.00  0.00    +0.000 C 
ENDBRANCH  27  30
ENDBRANCH  21  27
ENDBRANCH   1  26
TORSDOF 5
ENDMDL
