MODEL 1
REMARK VINA RESULT:    -6.653      0.000      0.000
REMARK INTER + INTRA:         -11.289
REMARK INTER:                  -9.134
REMARK INTRA:                  -2.155
REMARK UNBOUND:                -2.108
REMARK  Name = 
REMARK  9 active torsions:
REMARK  status: ('A' for Active; 'I' for Inactive)
REMARK    1  A    between atoms: C_1  and  O_2
REMARK    2  A    between atoms: O_2  and  C_3
REMARK    3  A    between atoms: C_6  and  C_7
REMARK    4  A    between atoms: C_7  and  O_8
REMARK    5  A    between atoms: C_12  and  C_13
REMARK    6  A    between atoms: C_22  and  C_23
REMARK    7  A    between atoms: C_23  and  C_24
REMARK    8  A    between atoms: C_31  and  O_32
REMARK    9  A    between atoms: O_32  and  C_33
REMARK                            x       y       z     vdW  Elec       q    Type
REMARK                         _______ _______ _______ _____ _____    ______ ____
ROOT
ATOM      1  C   UNL     1      21.878  33.419  51.620  0.00  0.00    +0.000 C 
ATOM      2  O   UNL     1      22.523  32.271  51.079  0.00  0.00    +0.000 OA
ATOM      3  C   UNL     1      23.113  32.603  49.906  0.00  0.00    +0.000 C 
ATOM      4  O   UNL     1      23.711  31.822  49.187  0.00  0.00    +0.000 OA
ATOM      5  C   UNL     1      22.960  34.048  49.666  0.00  0.00    +0.000 C 
ATOM      6  C   UNL     1      22.218  34.521  50.676  0.00  0.00    +0.000 C 
ENDROOT
BRANCH   5   7
ATOM      7  C   UNL     1      23.516  34.761  48.518  0.00  0.00    +0.000 A 
ATOM      8  C   UNL     1      24.804  35.333  48.605  0.00  0.00    +0.000 A 
ATOM      9  C   UNL     1      25.365  36.013  47.518  0.00  0.00    +0.000 A 
ATOM     10  C   UNL     1      24.616  36.108  46.365  0.00  0.00    +0.000 A 
ATOM     11  C   UNL     1      23.357  35.564  46.277  0.00  0.00    +0.000 A 
ATOM     12  C   UNL     1      22.778  34.889  47.331  0.00  0.00    +0.000 A 
ATOM     13  O   UNL     1      22.787  35.773  45.059  0.00  0.00    +0.000 OA
ATOM     14  C   UNL     1      23.829  36.521  44.397  0.00  0.00    +0.000 C 
ATOM     15  O   UNL     1      24.998  36.726  45.216  0.00  0.00    +0.000 OA
ENDBRANCH   5   7
BRANCH   1  19
ATOM     16  C   UNL     1      23.221  34.010  55.725  0.00  0.00    +0.000 A 
ATOM     17  C   UNL     1      24.105  33.548  54.748  0.00  0.00    +0.000 A 
ATOM     18  C   UNL     1      23.675  33.372  53.429  0.00  0.00    +0.000 A 
ATOM     19  C   UNL     1      22.352  33.654  53.051  0.00  0.00    +0.000 A 
ATOM     20  C   UNL     1      21.467  34.112  54.046  0.00  0.00    +0.000 A 
ATOM     21  C   UNL     1      21.892  34.304  55.368  0.00  0.00    +0.000 A 
BRANCH  16  23
ATOM     22  C   UNL     1      23.655  33.071  57.879  0.00  0.00    +0.000 C 
ATOM     23  O   UNL     1      23.552  34.213  57.040  0.00  0.00    +0.000 OA
ENDBRANCH  16  23
BRANCH  21  24
ATOM     24  O   UNL     1      21.074  34.740  56.380  0.00  0.00    +0.000 OA
ATOM     25  C   UNL     1      19.684  34.844  56.092  0.00  0.00    +0.000 C 
ENDBRANCH  21  24
ENDBRANCH   1  19
BRANCH   1  26
ATOM     26  O   UNL     1      20.487  33.160  51.569  0.00  0.00    +0.000 OA
ATOM     27  H   UNL     1      20.316  32.482  52.243  0.00  0.00    +0.000 HD
ENDBRANCH   1  26
BRANCH   6  28
ATOM     28  C   UNL     1      21.777  35.940  50.896  0.00  0.00    +0.000 C 
BRANCH  28  29
ATOM     29  C   UNL     1      20.332  36.231  50.566  0.00  0.00    +0.000 A 
ATOM     30  C   UNL     1      19.549  37.003  51.436  0.00  0.00    +0.000 A 
ATOM     31  C   UNL     1      18.220  37.298  51.124  0.00  0.00    +0.000 A 
ATOM     32  C   UNL     1      17.663  36.833  49.936  0.00  0.00    +0.000 A 
ATOM     33  C   UNL     1      18.435  36.080  49.054  0.00  0.00    +0.000 A 
ATOM     34  C   UNL     1      19.764  35.786  49.363  0.00  0.00    +0.000 A 
ENDBRANCH  28  29
ENDBRANCH   6  28
TORSDOF 7
ENDMDL
MODEL 2
REMARK VINA RESULT:    -6.560      3.388      7.485
REMARK INTER + INTRA:         -11.161
REMARK INTER:                  -9.053
REMARK INTRA:                  -2.108
REMARK UNBOUND:                -2.108
REMARK  Name = 
REMARK  9 active torsions:
REMARK  status: ('A' for Active; 'I' for Inactive)
REMARK    1  A    between atoms: C_1  and  O_2
REMARK    2  A    between atoms: O_2  and  C_3
REMARK    3  A    between atoms: C_6  and  C_7
REMARK    4  A    between atoms: C_7  and  O_8
REMARK    5  A    between atoms: C_12  and  C_13
REMARK    6  A    between atoms: C_22  and  C_23
REMARK    7  A    between atoms: C_23  and  C_24
REMARK    8  A    between atoms: C_31  and  O_32
REMARK    9  A    between atoms: O_32  and  C_33
REMARK                            x       y       z     vdW  Elec       q    Type
REMARK                         _______ _______ _______ _____ _____    ______ ____
ROOT
ATOM      1  C   UNL     1      17.369  36.475  52.549  0.00  0.00    +0.000 C 
ATOM      2  O   UNL     1      16.847  35.580  53.525  0.00  0.00    +0.000 OA
ATOM      3  C   UNL     1      17.849  34.796  53.990  0.00  0.00    +0.000 C 
ATOM      4  O   UNL     1      17.705  33.904  54.808  0.00  0.00    +0.000 OA
ATOM      5  C   UNL     1      19.128  35.218  53.394  0.00  0.00    +0.000 C 
ATOM      6  C   UNL     1      18.834  36.203  52.533  0.00  0.00    +0.000 C 
ENDROOT
BRANCH   5   7
ATOM      7  C   UNL     1      20.424  34.624  53.707  0.00  0.00    +0.000 A 
ATOM      8  C   UNL     1      21.020  33.721  52.798  0.00  0.00    +0.000 A 
ATOM      9  C   UNL     1      22.267  33.144  53.069  0.00  0.00    +0.000 A 
ATOM     10  C   UNL     1      22.887  33.483  54.251  0.00  0.00    +0.000 A 
ATOM     11  C   UNL     1      22.309  34.352  55.145  0.00  0.00    +0.000 A 
ATOM     12  C   UNL     1      21.082  34.936  54.907  0.00  0.00    +0.000 A 
ATOM     13  O   UNL     1      23.080  34.548  56.249  0.00  0.00    +0.000 OA
ATOM     14  C   UNL     1      24.204  33.694  55.949  0.00  0.00    +0.000 C 
ATOM     15  O   UNL     1      24.094  33.025  54.677  0.00  0.00    +0.000 OA
ENDBRANCH   5   7
BRANCH   1  19
ATOM     16  C   UNL     1      16.398  40.604  53.554  0.00  0.00    +0.000 A 
ATOM     17  C   UNL     1      16.083  40.087  52.297  0.00  0.00    +0.000 A 
ATOM     18  C   UNL     1      16.383  38.757  51.982  0.00  0.00    +0.000 A 
ATOM     19  C   UNL     1      17.005  37.912  52.915  0.00  0.00    +0.000 A 
ATOM     20  C   UNL     1      17.326  38.446  54.177  0.00  0.00    +0.000 A 
ATOM     21  C   UNL     1      17.018  39.773  54.506  0.00  0.00    +0.000 A 
BRANCH  16  23
ATOM     22  C   UNL     1      16.215  42.915  52.968  0.00  0.00    +0.000 C 
ATOM     23  O   UNL     1      16.142  41.892  53.952  0.00  0.00    +0.000 OA
ENDBRANCH  16  23
BRANCH  21  24
ATOM     24  O   UNL     1      17.313  40.351  55.716  0.00  0.00    +0.000 OA
ATOM     25  C   UNL     1      16.675  39.809  56.867  0.00  0.00    +0.000 C 
ENDBRANCH  21  24
ENDBRANCH   1  19
BRANCH   1  26
ATOM     26  O   UNL     1      16.801  36.095  51.309  0.00  0.00    +0.000 OA
ATOM     27  H   UNL     1      16.777  35.124  51.313  0.00  0.00    +0.000 HD
ENDBRANCH   1  26
BRANCH   6  28
ATOM     28  C   UNL     1      19.792  36.972  51.669  0.00  0.00    +0.000 C 
BRANCH  28  29
ATOM     29  C   UNL     1      20.397  36.199  50.521  0.00  0.00    +0.000 A 
ATOM     30  C   UNL     1      21.756  35.854  50.538  0.00  0.00    +0.000 A 
ATOM     31  C   UNL     1      22.317  35.118  49.492  0.00  0.00    +0.000 A 
ATOM     32  C   UNL     1      21.523  34.710  48.423  0.00  0.00    +0.000 A 
ATOM     33  C   UNL     1      20.167  35.030  48.402  0.00  0.00    +0.000 A 
ATOM     34  C   UNL     1      19.605  35.764  49.447  0.00  0.00    +0.000 A 
ENDBRANCH  28  29
ENDBRANCH   6  28
TORSDOF 7
ENDMDL
MODEL 3
REMARK VINA RESULT:    -6.450      4.445      8.833
REMARK INTER + INTRA:         -11.008
REMARK INTER:                  -8.524
REMARK INTRA:                  -2.484
REMARK UNBOUND:                -2.108
REMARK  Name = 
REMARK  9 active torsions:
REMARK  status: ('A' for Active; 'I' for Inactive)
REMARK    1  A    between atoms: C_1  and  O_2
REMARK    2  A    between atoms: O_2  and  C_3
REMARK    3  A    between atoms: C_6  and  C_7
REMARK    4  A    between atoms: C_7  and  O_8
REMARK    5  A    between atoms: C_12  and  C_13
REMARK    6  A    between atoms: C_22  and  C_23
REMARK    7  A    between atoms: C_23  and  C_24
REMARK    8  A    between atoms: C_31  and  O_32
REMARK    9  A    between atoms: O_32  and  C_33
REMARK                            x       y       z     vdW  Elec       q    Type
REMARK                         _______ _______ _______ _____ _____    ______ ____
ROOT
ATOM      1  C   UNL     1      15.940  37.880  52.710  0.00  0.00    +0.000 C 
ATOM      2  O   UNL     1      15.080  37.059  53.491  0.00  0.00    +0.000 OA
ATOM      3  C   UNL     1      15.806  36.064  54.056  0.00  0.00    +0.000 C 
ATOM      4  O   UNL     1      15.340  35.179  54.752  0.00  0.00    +0.000 OA
ATOM      5  C   UNL     1      17.232  36.250  53.740  0.00  0.00    +0.000 C 
ATOM      6  C   UNL     1      17.302  37.317  52.932  0.00  0.00    +0.000 C 
ENDROOT
BRANCH   5   7
ATOM      7  C   UNL     1      18.307  35.389  54.226  0.00  0.00    +0.000 A 
ATOM      8  C   UNL     1      18.758  34.312  53.430  0.00  0.00    +0.000 A 
ATOM      9  C   UNL     1      19.793  33.477  53.867  0.00  0.00    +0.000 A 
ATOM     10  C   UNL     1      20.351  33.740  55.099  0.00  0.00    +0.000 A 
ATOM     11  C   UNL     1      19.910  34.778  55.884  0.00  0.00    +0.000 A 
ATOM     12  C   UNL     1      18.893  35.617  55.480  0.00  0.00    +0.000 A 
ATOM     13  O   UNL     1      20.588  34.861  57.061  0.00  0.00    +0.000 OA
ATOM     14  C   UNL     1      21.498  33.749  56.929  0.00  0.00    +0.000 C 
ATOM     15  O   UNL     1      21.361  33.040  55.681  0.00  0.00    +0.000 OA
ENDBRANCH   5   7
BRANCH   1  19
ATOM     16  C   UNL     1      15.596  42.056  53.911  0.00  0.00    +0.000 A 
ATOM     17  C   UNL     1      15.734  41.713  52.564  0.00  0.00    +0.000 A 
ATOM     18  C   UNL     1      15.831  40.372  52.181  0.00  0.00    +0.000 A 
ATOM     19  C   UNL     1      15.791  39.339  53.131  0.00  0.00    +0.000 A 
ATOM     20  C   UNL     1      15.659  39.695  54.487  0.00  0.00    +0.000 A 
ATOM     21  C   UNL     1      15.549  41.037  54.880  0.00  0.00    +0.000 A 
BRANCH  16  23
ATOM     22  C   UNL     1      15.302  44.379  53.429  0.00  0.00    +0.000 C 
ATOM     23  O   UNL     1      15.494  43.341  54.380  0.00  0.00    +0.000 OA
ENDBRANCH  16  23
BRANCH  21  24
ATOM     24  O   UNL     1      15.427  41.445  56.185  0.00  0.00    +0.000 OA
ATOM     25  C   UNL     1      16.185  40.738  57.160  0.00  0.00    +0.000 C 
ENDBRANCH  21  24
ENDBRANCH   1  19
BRANCH   1  26
ATOM     26  O   UNL     1      15.562  37.688  51.359  0.00  0.00    +0.000 OA
ATOM     27  H   UNL     1      16.163  38.239  50.832  0.00  0.00    +0.000 HD
ENDBRANCH   1  26
BRANCH   6  28
ATOM     28  C   UNL     1      18.537  37.920  52.326  0.00  0.00    +0.000 C 
BRANCH  28  29
ATOM     29  C   UNL     1      19.300  37.026  51.378  0.00  0.00    +0.000 A 
ATOM     30  C   UNL     1      18.679  36.524  50.225  0.00  0.00    +0.000 A 
ATOM     31  C   UNL     1      19.386  35.717  49.330  0.00  0.00    +0.000 A 
ATOM     32  C   UNL     1      20.723  35.412  49.573  0.00  0.00    +0.000 A 
ATOM     33  C   UNL     1      21.357  35.919  50.705  0.00  0.00    +0.000 A 
ATOM     34  C   UNL     1      20.653  36.727  51.599  0.00  0.00    +0.000 A 
ENDBRANCH  28  29
ENDBRANCH   6  28
TORSDOF 7
ENDMDL
