MODEL 1
REMARK VINA RESULT:    -6.667      0.000      0.000
REMARK INTER + INTRA:          -9.069
REMARK INTER:                  -8.259
REMARK INTRA:                  -0.810
REMARK UNBOUND:                -0.844
REMARK  Name = 
REMARK  4 active torsions:
REMARK  status: ('A' for Active; 'I' for Inactive)
REMARK    1  A    between atoms: N_12  and  C_13
REMARK    2  A    between atoms: C_13  and  C_14
REMARK    3  A    between atoms: C_14  and  N_15
REMARK    4  A    between atoms: C_18  and  N_19
REMARK                            x       y       z     vdW  Elec       q    Type
REMARK                         _______ _______ _______ _____ _____    ______ ____
ROOT
ATOM      1  N   UNL     1      14.700  39.762  47.383  0.00  0.00    +0.000 NA
ATOM      2  C   UNL     1      14.402  41.130  47.806  0.00  0.00    +0.000 C 
ATOM      3  C   UNL     1      13.774  41.908  46.648  0.00  0.00    +0.000 C 
ATOM      4  C   UNL     1      14.459  41.608  45.305  0.00  0.00    +0.000 C 
ATOM      5  C   UNL     1      15.839  40.973  45.490  0.00  0.00    +0.000 C 
ATOM      6  C   UNL     1      15.747  39.709  46.352  0.00  0.00    +0.000 C 
ENDROOT
BRANCH   4   7
ATOM      7  N   UNL     1      14.483  42.757  44.400  0.00  0.00    +0.000 N 
ATOM      8  C   UNL     1      14.446  44.059  44.841  0.00  0.00    +0.000 A 
ATOM      9  C   UNL     1      14.453  44.889  43.746  0.00  0.00    +0.000 A 
ATOM     10  C   UNL     1      14.500  44.070  42.587  0.00  0.00    +0.000 A 
ATOM     11  C   UNL     1      14.528  44.354  41.208  0.00  0.00    +0.000 A 
ATOM     12  C   UNL     1      14.579  43.296  40.304  0.00  0.00    +0.000 A 
ATOM     13  F   UNL     1      14.606  43.560  38.990  0.00  0.00    +0.000 F 
ATOM     14  C   UNL     1      14.607  41.978  40.730  0.00  0.00    +0.000 A 
ATOM     15  C   UNL     1      14.580  41.673  42.094  0.00  0.00    +0.000 A 
ATOM     16  C   UNL     1      14.523  42.736  43.015  0.00  0.00    +0.000 A 
ENDBRANCH   4   7
BRANCH   1  17
ATOM     17  C   UNL     1      15.003  38.896  48.540  0.00  0.00    +0.000 C 
BRANCH  17  18
ATOM     18  C   UNL     1      15.838  37.648  48.186  0.00  0.00    +0.000 C 
BRANCH  18  30
ATOM     19  O   UNL     1      17.373  35.387  48.286  0.00  0.00    +0.000 OA
ATOM     20  C   UNL     1      17.780  36.351  48.939  0.00  0.00    +0.000 C 
ATOM     21  C   UNL     1      19.090  36.202  49.645  0.00  0.00    +0.000 A 
ATOM     22  C   UNL     1      20.027  35.415  48.938  0.00  0.00    +0.000 A 
ATOM     23  C   UNL     1      21.298  35.150  49.446  0.00  0.00    +0.000 A 
ATOM     24  C   UNL     1      21.656  35.661  50.682  0.00  0.00    +0.000 A 
ATOM     25  C   UNL     1      20.742  36.432  51.399  0.00  0.00    +0.000 A 
ATOM     26  C   UNL     1      19.448  36.721  50.903  0.00  0.00    +0.000 A 
ATOM     27  C   UNL     1      18.595  37.557  51.826  0.00  0.00    +0.000 C 
ATOM     28  C   UNL     1      17.257  38.081  51.335  0.00  0.00    +0.000 C 
ATOM     29  C   UNL     1      17.353  38.616  49.919  0.00  0.00    +0.000 C 
ATOM     30  N   UNL     1      17.077  37.552  48.971  0.00  0.00    +0.000 N 
ENDBRANCH  18  30
ENDBRANCH  17  18
ENDBRANCH   1  17
TORSDOF 4
ENDMDL
MODEL 2
REMARK VINA RESULT:    -6.493      3.916      9.894
REMARK INTER + INTRA:          -8.855
REMARK INTER:                  -8.012
REMARK INTRA:                  -0.844
REMARK UNBOUND:                -0.844
REMARK  Name = 
REMARK  4 active torsions:
REMARK  status: ('A' for Active; 'I' for Inactive)
REMARK    1  A    between atoms: N_12  and  C_13
REMARK    2  A    between atoms: C_13  and  C_14
REMARK    3  A    between atoms: C_14  and  N_15
REMARK    4  A    between atoms: C_18  and  N_19
REMARK                            x       y       z     vdW  Elec       q    Type
REMARK                         _______ _______ _______ _____ _____    ______ ____
ROOT
ATOM      1  N   UNL     1      14.528  38.759  46.735  0.00  0.00    +0.000 NA
ATOM      2  C   UNL     1      15.704  39.613  46.899  0.00  0.00    +0.000 C 
ATOM      3  C   UNL     1      16.827  38.830  47.581  0.00  0.00    +0.000 C 
ATOM      4  C   UNL     1      16.307  37.943  48.724  0.00  0.00    +0.000 C 
ATOM      5  C   UNL     1      14.913  38.364  49.194  0.00  0.00    +0.000 C 
ATOM      6  C   UNL     1      13.924  38.383  48.023  0.00  0.00    +0.000 C 
ENDROOT
BRANCH   4   7
ATOM      7  N   UNL     1      17.257  37.806  49.828  0.00  0.00    +0.000 N 
ATOM      8  C   UNL     1      17.142  38.507  51.006  0.00  0.00    +0.000 A 
ATOM      9  C   UNL     1      18.202  38.175  51.813  0.00  0.00    +0.000 A 
ATOM     10  C   UNL     1      18.999  37.232  51.111  0.00  0.00    +0.000 A 
ATOM     11  C   UNL     1      20.188  36.548  51.431  0.00  0.00    +0.000 A 
ATOM     12  C   UNL     1      20.725  35.663  50.500  0.00  0.00    +0.000 A 
ATOM     13  F   UNL     1      21.856  35.008  50.798  0.00  0.00    +0.000 F 
ATOM     14  C   UNL     1      20.118  35.441  49.274  0.00  0.00    +0.000 A 
ATOM     15  C   UNL     1      18.938  36.108  48.936  0.00  0.00    +0.000 A 
ATOM     16  C   UNL     1      18.389  37.009  49.869  0.00  0.00    +0.000 A 
ENDBRANCH   4   7
BRANCH   1  17
ATOM     17  C   UNL     1      13.550  39.362  45.808  0.00  0.00    +0.000 C 
BRANCH  17  18
ATOM     18  C   UNL     1      14.087  40.590  45.044  0.00  0.00    +0.000 C 
BRANCH  18  30
ATOM     19  O   UNL     1      15.353  42.935  45.659  0.00  0.00    +0.000 OA
ATOM     20  C   UNL     1      14.120  42.963  45.669  0.00  0.00    +0.000 C 
ATOM     21  C   UNL     1      13.463  44.279  45.940  0.00  0.00    +0.000 A 
ATOM     22  C   UNL     1      14.164  45.382  45.404  0.00  0.00    +0.000 A 
ATOM     23  C   UNL     1      13.714  46.692  45.570  0.00  0.00    +0.000 A 
ATOM     24  C   UNL     1      12.553  46.925  46.287  0.00  0.00    +0.000 A 
ATOM     25  C   UNL     1      11.851  45.850  46.831  0.00  0.00    +0.000 A 
ATOM     26  C   UNL     1      12.284  44.511  46.672  0.00  0.00    +0.000 A 
ATOM     27  C   UNL     1      11.405  43.484  47.344  0.00  0.00    +0.000 C 
ATOM     28  C   UNL     1      11.661  42.008  47.099  0.00  0.00    +0.000 C 
ATOM     29  C   UNL     1      11.943  41.726  45.636  0.00  0.00    +0.000 C 
ATOM     30  N   UNL     1      13.368  41.827  45.381  0.00  0.00    +0.000 N 
ENDBRANCH  18  30
ENDBRANCH  17  18
ENDBRANCH   1  17
TORSDOF 4
ENDMDL
MODEL 3
REMARK VINA RESULT:    -6.450      3.091      5.332
REMARK INTER + INTRA:          -8.802
REMARK INTER:                  -7.683
REMARK INTRA:                  -1.119
REMARK UNBOUND:                -0.844
REMARK  Name = 
REMARK  4 active torsions:
REMARK  status: ('A' for Active; 'I' for Inactive)
REMARK    1  A    between atoms: N_12  and  C_13
REMARK    2  A    between atoms: C_13  and  C_14
REMARK    3  A    between atoms: C_14  and  N_15
REMARK    4  A    between atoms: C_18  and  N_19
REMARK                            x       y       z     vdW  Elec       q    Type
REMARK                         _______ _______ _______ _____ _____    ______ ____
ROOT
ATOM      1  N   UNL     1      15.693  37.583  49.283  0.00  0.00    +0.000 NA
ATOM      2  C   UNL     1      16.954  37.553  48.543  0.00  0.00    +0.000 C 
ATOM      3  C   UNL     1      17.089  38.817  47.691  0.00  0.00    +0.000 C 
ATOM      4  C   UNL     1      15.764  39.209  47.016  0.00  0.00    +0.000 C 
ATOM      5  C   UNL     1      14.766  38.050  46.987  0.00  0.00    +0.000 C 
ATOM      6  C   UNL     1      14.521  37.504  48.398  0.00  0.00    +0.000 C 
ENDROOT
BRANCH   4   7
ATOM      7  N   UNL     1      15.946  39.831  45.704  0.00  0.00    +0.000 N 
ATOM      8  C   UNL     1      16.502  39.170  44.634  0.00  0.00    +0.000 A 
ATOM      9  C   UNL     1      16.556  40.038  43.570  0.00  0.00    +0.000 A 
ATOM     10  C   UNL     1      16.010  41.277  43.998  0.00  0.00    +0.000 A 
ATOM     11  C   UNL     1      15.806  42.513  43.354  0.00  0.00    +0.000 A 
ATOM     12  C   UNL     1      15.227  43.557  44.071  0.00  0.00    +0.000 A 
ATOM     13  F   UNL     1      15.030  44.736  43.464  0.00  0.00    +0.000 F 
ATOM     14  C   UNL     1      14.847  43.406  45.394  0.00  0.00    +0.000 A 
ATOM     15  C   UNL     1      15.039  42.188  46.053  0.00  0.00    +0.000 A 
ATOM     16  C   UNL     1      15.628  41.128  45.338  0.00  0.00    +0.000 A 
ENDBRANCH   4   7
BRANCH   1  17
ATOM     17  C   UNL     1      15.669  36.558  50.345  0.00  0.00    +0.000 C 
BRANCH  17  18
ATOM     18  C   UNL     1      14.935  37.002  51.627  0.00  0.00    +0.000 C 
BRANCH  18  30
ATOM     19  O   UNL     1      13.519  39.304  51.211  0.00  0.00    +0.000 OA
ATOM     20  C   UNL     1      14.571  39.418  51.844  0.00  0.00    +0.000 C 
ATOM     21  C   UNL     1      14.913  40.775  52.372  0.00  0.00    +0.000 A 
ATOM     22  C   UNL     1      13.787  41.523  52.783  0.00  0.00    +0.000 A 
ATOM     23  C   UNL     1      13.907  42.818  53.287  0.00  0.00    +0.000 A 
ATOM     24  C   UNL     1      15.161  43.397  53.382  0.00  0.00    +0.000 A 
ATOM     25  C   UNL     1      16.284  42.678  52.973  0.00  0.00    +0.000 A 
ATOM     26  C   UNL     1      16.190  41.360  52.464  0.00  0.00    +0.000 A 
ATOM     27  C   UNL     1      17.509  40.749  52.060  0.00  0.00    +0.000 C 
ATOM     28  C   UNL     1      17.564  39.283  51.666  0.00  0.00    +0.000 C 
ATOM     29  C   UNL     1      16.740  38.424  52.605  0.00  0.00    +0.000 C 
ATOM     30  N   UNL     1      15.380  38.317  52.110  0.00  0.00    +0.000 N 
ENDBRANCH  18  30
ENDBRANCH  17  18
ENDBRANCH   1  17
TORSDOF 4
ENDMDL
