MODEL 1
REMARK VINA RESULT:    -5.748      0.000      0.000
REMARK INTER + INTRA:         -10.676
REMARK INTER:                  -7.307
REMARK INTRA:                  -3.370
REMARK UNBOUND:                -2.912
REMARK  Name = 
REMARK  10 active torsions:
REMARK  status: ('A' for Active; 'I' for Inactive)
REMARK    1  A    between atoms: C_1  and  C_2
REMARK    2  A    between atoms: C_2  and  C_3
REMARK    3  A    between atoms: C_2  and  C_4
REMARK    4  A    between atoms: C_13  and  C_14
REMARK    5  A    between atoms: C_13  and  C_15
REMARK    6  A    between atoms: C_15  and  N_16
REMARK    7  A    between atoms: N_16  and  C_17
REMARK    8  A    between atoms: C_17  and  N_19
REMARK    9  A    between atoms: N_19  and  C_20
REMARK   10  A    between atoms: C_29  and  C_30
REMARK                            x       y       z     vdW  Elec       q    Type
REMARK                         _______ _______ _______ _____ _____    ______ ____
ROOT
ATOM      1  C   UNL     1      13.618  45.728  45.608  0.00  0.00    +0.000 A 
ATOM      2  C   UNL     1      12.962  44.713  46.309  0.00  0.00    +0.000 A 
ATOM      3  C   UNL     1      13.237  43.370  46.041  0.00  0.00    +0.000 A 
ATOM      4  C   UNL     1      14.173  42.990  45.059  0.00  0.00    +0.000 A 
ATOM      5  C   UNL     1      14.855  44.009  44.368  0.00  0.00    +0.000 A 
ATOM      6  C   UNL     1      14.559  45.360  44.638  0.00  0.00    +0.000 A 
ATOM      7  C   UNL     1      15.868  43.721  43.290  0.00  0.00    +0.000 C 
ATOM      8  C   UNL     1      16.373  42.283  43.283  0.00  0.00    +0.000 C 
ATOM      9  C   UNL     1      15.195  41.305  43.427  0.00  0.00    +0.000 C 
ATOM     10  C   UNL     1      15.551  39.813  43.040  0.00  0.00    +0.000 C 
ATOM     11  C   UNL     1      16.973  39.398  43.481  0.00  0.00    +0.000 C 
ATOM     12  C   UNL     1      14.529  38.832  43.681  0.00  0.00    +0.000 C 
ATOM     13  C   UNL     1      13.151  39.455  43.840  0.00  0.00    +0.000 C 
ATOM     14  C   UNL     1      13.149  40.668  44.776  0.00  0.00    +0.000 C 
ATOM     15  C   UNL     1      14.474  41.494  44.805  0.00  0.00    +0.000 C 
ATOM     16  C   UNL     1      15.334  41.044  46.015  0.00  0.00    +0.000 C 
ENDROOT
BRANCH   1  18
ATOM     17  C   UNL     1      11.952  47.318  46.621  0.00  0.00    +0.000 C 
ATOM     18  C   UNL     1      13.295  47.182  45.901  0.00  0.00    +0.000 C 
ATOM     19  C   UNL     1      13.323  48.040  44.633  0.00  0.00    +0.000 C 
ENDBRANCH   1  18
BRANCH  10  20
ATOM     20  C   UNL     1      15.470  39.714  41.477  0.00  0.00    +0.000 C 
BRANCH  20  21
ATOM     21  N   UNL     1      15.122  40.967  40.814  0.00  0.00    +0.000 N 
ATOM     22  H   UNL     1      15.892  41.596  40.611  0.00  0.00    +0.000 HD
BRANCH  21  23
ATOM     23  C   UNL     1      13.990  41.292  40.112  0.00  0.00    +0.000 C 
ATOM     24  S   UNL     1      13.260  40.037  39.287  0.00  0.00    +0.000 S 
BRANCH  23  25
ATOM     25  N   UNL     1      13.642  42.617  40.152  0.00  0.00    +0.000 N 
ATOM     26  H   UNL     1      13.802  43.094  39.277  0.00  0.00    +0.000 HD
BRANCH  25  27
ATOM     27  C   UNL     1      12.895  43.363  41.089  0.00  0.00    +0.000 A 
ATOM     28  C   UNL     1      12.025  42.643  41.922  0.00  0.00    +0.000 A 
ATOM     29  C   UNL     1      11.229  43.299  42.866  0.00  0.00    +0.000 A 
ATOM     30  C   UNL     1      11.283  44.685  42.976  0.00  0.00    +0.000 A 
ATOM     31  C   UNL     1      12.123  45.412  42.138  0.00  0.00    +0.000 A 
ATOM     32  C   UNL     1      12.921  44.755  41.194  0.00  0.00    +0.000 A 
ENDBRANCH  25  27
ENDBRANCH  23  25
ENDBRANCH  21  23
ENDBRANCH  20  21
ENDBRANCH  10  20
TORSDOF 6
ENDMDL
MODEL 2
REMARK VINA RESULT:    -5.414      1.781      5.721
REMARK INTER + INTRA:         -10.225
REMARK INTER:                  -6.954
REMARK INTRA:                  -3.271
REMARK UNBOUND:                -2.912
REMARK  Name = 
REMARK  10 active torsions:
REMARK  status: ('A' for Active; 'I' for Inactive)
REMARK    1  A    between atoms: C_1  and  C_2
REMARK    2  A    between atoms: C_2  and  C_3
REMARK    3  A    between atoms: C_2  and  C_4
REMARK    4  A    between atoms: C_13  and  C_14
REMARK    5  A    between atoms: C_13  and  C_15
REMARK    6  A    between atoms: C_15  and  N_16
REMARK    7  A    between atoms: N_16  and  C_17
REMARK    8  A    between atoms: C_17  and  N_19
REMARK    9  A    between atoms: N_19  and  C_20
REMARK   10  A    between atoms: C_29  and  C_30
REMARK                            x       y       z     vdW  Elec       q    Type
REMARK                         _______ _______ _______ _____ _____    ______ ____
ROOT
ATOM      1  C   UNL     1      14.760  40.126  46.094  0.00  0.00    +0.000 A 
ATOM      2  C   UNL     1      15.227  41.258  46.767  0.00  0.00    +0.000 A 
ATOM      3  C   UNL     1      14.671  42.515  46.518  0.00  0.00    +0.000 A 
ATOM      4  C   UNL     1      13.632  42.690  45.582  0.00  0.00    +0.000 A 
ATOM      5  C   UNL     1      13.141  41.549  44.921  0.00  0.00    +0.000 A 
ATOM      6  C   UNL     1      13.719  40.289  45.172  0.00  0.00    +0.000 A 
ATOM      7  C   UNL     1      12.041  41.618  43.894  0.00  0.00    +0.000 C 
ATOM      8  C   UNL     1      11.253  42.923  43.915  0.00  0.00    +0.000 C 
ATOM      9  C   UNL     1      12.212  44.121  44.007  0.00  0.00    +0.000 C 
ATOM     10  C   UNL     1      11.541  45.507  43.644  0.00  0.00    +0.000 C 
ATOM     11  C   UNL     1      10.087  45.626  44.153  0.00  0.00    +0.000 C 
ATOM     12  C   UNL     1      12.370  46.680  44.238  0.00  0.00    +0.000 C 
ATOM     13  C   UNL     1      13.852  46.352  44.330  0.00  0.00    +0.000 C 
ATOM     14  C   UNL     1      14.146  45.171  45.260  0.00  0.00    +0.000 C 
ATOM     15  C   UNL     1      13.021  44.091  45.349  0.00  0.00    +0.000 C 
ATOM     16  C   UNL     1      12.145  44.364  46.599  0.00  0.00    +0.000 C 
ENDROOT
BRANCH   1  18
ATOM     17  C   UNL     1      16.864  38.906  46.737  0.00  0.00    +0.000 C 
ATOM     18  C   UNL     1      15.385  38.770  46.366  0.00  0.00    +0.000 C 
ATOM     19  C   UNL     1      15.205  37.811  45.186  0.00  0.00    +0.000 C 
ENDBRANCH   1  18
BRANCH  10  20
ATOM     20  C   UNL     1      11.526  45.610  42.079  0.00  0.00    +0.000 C 
BRANCH  20  21
ATOM     21  N   UNL     1      12.277  44.559  41.400  0.00  0.00    +0.000 N 
ATOM     22  H   UNL     1      11.848  43.639  41.389  0.00  0.00    +0.000 HD
BRANCH  21  23
ATOM     23  C   UNL     1      13.291  44.669  40.485  0.00  0.00    +0.000 C 
ATOM     24  S   UNL     1      12.821  44.963  38.910  0.00  0.00    +0.000 S 
BRANCH  23  25
ATOM     25  N   UNL     1      14.551  44.477  40.988  0.00  0.00    +0.000 N 
ATOM     26  H   UNL     1      15.095  45.326  41.026  0.00  0.00    +0.000 HD
BRANCH  25  27
ATOM     27  C   UNL     1      15.132  43.387  41.673  0.00  0.00    +0.000 A 
ATOM     28  C   UNL     1      16.022  43.695  42.713  0.00  0.00    +0.000 A 
ATOM     29  C   UNL     1      16.663  42.682  43.433  0.00  0.00    +0.000 A 
ATOM     30  C   UNL     1      16.432  41.348  43.110  0.00  0.00    +0.000 A 
ATOM     31  C   UNL     1      15.571  41.032  42.063  0.00  0.00    +0.000 A 
ATOM     32  C   UNL     1      14.930  42.046  41.343  0.00  0.00    +0.000 A 
ENDBRANCH  25  27
ENDBRANCH  23  25
ENDBRANCH  21  23
ENDBRANCH  20  21
ENDBRANCH  10  20
TORSDOF 6
ENDMDL
MODEL 3
REMARK VINA RESULT:    -5.299      9.405     12.823
REMARK INTER + INTRA:         -10.069
REMARK INTER:                  -7.157
REMARK INTRA:                  -2.912
REMARK UNBOUND:                -2.912
REMARK  Name = 
REMARK  10 active torsions:
REMARK  status: ('A' for Active; 'I' for Inactive)
REMARK    1  A    between atoms: C_1  and  C_2
REMARK    2  A    between atoms: C_2  and  C_3
REMARK    3  A    between atoms: C_2  and  C_4
REMARK    4  A    between atoms: C_13  and  C_14
REMARK    5  A    between atoms: C_13  and  C_15
REMARK    6  A    between atoms: C_15  and  N_16
REMARK    7  A    between atoms: N_16  and  C_17
REMARK    8  A    between atoms: C_17  and  N_19
REMARK    9  A    between atoms: N_19  and  C_20
REMARK   10  A    between atoms: C_29  and  C_30
REMARK                            x       y       z     vdW  Elec       q    Type
REMARK                         _______ _______ _______ _____ _____    ______ ____
ROOT
ATOM      1  C   UNL     1      18.569  36.844  50.899  0.00  0.00    +0.000 A 
ATOM      2  C   UNL     1      17.278  36.694  50.388  0.00  0.00    +0.000 A 
ATOM      3  C   UNL     1      16.268  37.599  50.725  0.00  0.00    +0.000 A 
ATOM      4  C   UNL     1      16.509  38.685  51.590  0.00  0.00    +0.000 A 
ATOM      5  C   UNL     1      17.814  38.856  52.087  0.00  0.00    +0.000 A 
ATOM      6  C   UNL     1      18.820  37.928  51.750  0.00  0.00    +0.000 A 
ATOM      7  C   UNL     1      18.185  39.974  53.026  0.00  0.00    +0.000 C 
ATOM      8  C   UNL     1      17.162  41.102  53.081  0.00  0.00    +0.000 C 
ATOM      9  C   UNL     1      15.740  40.526  53.191  0.00  0.00    +0.000 C 
ATOM     10  C   UNL     1      14.655  41.584  53.645  0.00  0.00    +0.000 C 
ATOM     11  C   UNL     1      14.887  42.986  53.039  0.00  0.00    +0.000 C 
ATOM     12  C   UNL     1      13.232  41.102  53.244  0.00  0.00    +0.000 C 
ATOM     13  C   UNL     1      13.117  39.586  53.235  0.00  0.00    +0.000 C 
ATOM     14  C   UNL     1      14.043  38.923  52.211  0.00  0.00    +0.000 C 
ATOM     15  C   UNL     1      15.376  39.684  51.921  0.00  0.00    +0.000 C 
ATOM     16  C   UNL     1      15.208  40.544  50.642  0.00  0.00    +0.000 C 
ENDROOT
BRANCH   1  18
ATOM     17  C   UNL     1      21.015  36.282  51.070  0.00  0.00    +0.000 C 
ATOM     18  C   UNL     1      19.650  35.843  50.536  0.00  0.00    +0.000 C 
ATOM     19  C   UNL     1      19.711  35.591  49.026  0.00  0.00    +0.000 C 
ENDBRANCH   1  18
BRANCH  10  20
ATOM     20  C   UNL     1      14.754  41.698  55.206  0.00  0.00    +0.000 C 
BRANCH  20  21
ATOM     21  N   UNL     1      15.839  40.920  55.798  0.00  0.00    +0.000 N 
ATOM     22  H   UNL     1      16.752  41.028  55.369  0.00  0.00    +0.000 HD
BRANCH  21  23
ATOM     23  C   UNL     1      15.913  40.337  57.036  0.00  0.00    +0.000 C 
ATOM     24  S   UNL     1      16.283  41.360  58.302  0.00  0.00    +0.000 S 
BRANCH  23  25
ATOM     25  N   UNL     1      15.716  38.980  57.051  0.00  0.00    +0.000 N 
ATOM     26  H   UNL     1      15.089  38.680  57.782  0.00  0.00    +0.000 HD
BRANCH  25  27
ATOM     27  C   UNL     1      16.026  37.976  56.108  0.00  0.00    +0.000 A 
ATOM     28  C   UNL     1      17.383  37.650  55.954  0.00  0.00    +0.000 A 
ATOM     29  C   UNL     1      17.787  36.684  55.029  0.00  0.00    +0.000 A 
ATOM     30  C   UNL     1      16.840  36.043  54.235  0.00  0.00    +0.000 A 
ATOM     31  C   UNL     1      15.495  36.377  54.361  0.00  0.00    +0.000 A 
ATOM     32  C   UNL     1      15.090  37.344  55.288  0.00  0.00    +0.000 A 
ENDBRANCH  25  27
ENDBRANCH  23  25
ENDBRANCH  21  23
ENDBRANCH  20  21
ENDBRANCH  10  20
TORSDOF 6
ENDMDL
