MODEL 1
REMARK VINA RESULT:    -6.255      0.000      0.000
REMARK INTER + INTRA:         -10.245
REMARK INTER:                  -9.394
REMARK INTRA:                  -0.851
REMARK UNBOUND:                -1.248
REMARK  Name = 
REMARK  8 active torsions:
REMARK  status: ('A' for Active; 'I' for Inactive)
REMARK    1  A    between atoms: N_1  and  S_2
REMARK    2  A    between atoms: S_2  and  C_5
REMARK    3  A    between atoms: C_8  and  N_9
REMARK    4  A    between atoms: C_11  and  C_12
REMARK    5  A    between atoms: C_12  and  O_13
REMARK    6  A    between atoms: O_13  and  C_14
REMARK    7  A    between atoms: C_14  and  C_15
REMARK    8  A    between atoms: C_22  and  C_23
REMARK                            x       y       z     vdW  Elec       q    Type
REMARK                         _______ _______ _______ _____ _____    ______ ____
ROOT
ATOM      1  N   UNL     1      22.829  34.610  50.043  0.00  0.00    +0.000 N 
ATOM      2  N   UNL     1      23.111  33.971  51.212  0.00  0.00    +0.000 NA
ATOM      3  C   UNL     1      24.307  33.404  51.040  0.00  0.00    +0.000 A 
ATOM      4  C   UNL     1      24.842  33.718  49.778  0.00  0.00    +0.000 A 
ATOM      5  C   UNL     1      23.918  34.546  49.168  0.00  0.00    +0.000 A 
ENDROOT
BRANCH   5   6
ATOM      6  C   UNL     1      24.097  35.273  47.916  0.00  0.00    +0.000 A 
ATOM      7  C   UNL     1      25.168  36.165  47.767  0.00  0.00    +0.000 A 
ATOM      8  C   UNL     1      25.329  36.879  46.576  0.00  0.00    +0.000 A 
ATOM      9  C   UNL     1      24.416  36.710  45.538  0.00  0.00    +0.000 A 
ATOM     10 CL   UNL     1      24.617  37.588  44.072  0.00  0.00    +0.000 Cl
ATOM     11  C   UNL     1      23.339  35.838  45.680  0.00  0.00    +0.000 A 
ATOM     12  C   UNL     1      23.176  35.124  46.870  0.00  0.00    +0.000 A 
ENDBRANCH   5   6
BRANCH   1  16
ATOM     13  C   UNL     1      19.007  36.404  49.667  0.00  0.00    +0.000 A 
ATOM     14  C   UNL     1      19.799  36.665  50.784  0.00  0.00    +0.000 A 
ATOM     15  C   UNL     1      21.056  36.064  50.891  0.00  0.00    +0.000 A 
ATOM     16  C   UNL     1      21.533  35.202  49.884  0.00  0.00    +0.000 A 
ATOM     17  C   UNL     1      20.709  34.925  48.785  0.00  0.00    +0.000 A 
ATOM     18  C   UNL     1      19.449  35.527  48.675  0.00  0.00    +0.000 A 
BRANCH  13  19
ATOM     19  S   UNL     1      17.401  37.134  49.541  0.00  0.00    +0.000 S 
ATOM     20  O   UNL     1      16.397  36.105  49.679  0.00  0.00    +0.000 OA
ATOM     21  O   UNL     1      17.371  38.356  50.312  0.00  0.00    +0.000 OA
BRANCH  19  22
ATOM     22  N   UNL     1      17.359  37.603  47.929  0.00  0.00    +0.000 NA
ATOM     23  H   UNL     1      18.310  37.698  47.573  0.00  0.00    +0.000 HD
ATOM     24  H   UNL     1      16.782  36.952  47.396  0.00  0.00    +0.000 HD
ENDBRANCH  19  22
ENDBRANCH  13  19
ENDBRANCH   1  16
BRANCH   3  25
ATOM     25  C   UNL     1      24.940  32.583  52.124  0.00  0.00    +0.000 C 
BRANCH  25  26
ATOM     26  O   UNL     1      24.158  32.484  53.319  0.00  0.00    +0.000 OA
BRANCH  26  27
ATOM     27  C   UNL     1      24.422  33.533  54.246  0.00  0.00    +0.000 C 
BRANCH  27  28
ATOM     28  C   UNL     1      23.142  33.938  54.935  0.00  0.00    +0.000 A 
ATOM     29  C   UNL     1      21.994  34.240  54.187  0.00  0.00    +0.000 A 
ATOM     30  C   UNL     1      20.801  34.579  54.826  0.00  0.00    +0.000 A 
ATOM     31  C   UNL     1      20.736  34.612  56.217  0.00  0.00    +0.000 A 
ATOM     32  C   UNL     1      21.866  34.303  56.973  0.00  0.00    +0.000 A 
ATOM     33  C   UNL     1      23.061  33.964  56.335  0.00  0.00    +0.000 A 
ENDBRANCH  27  28
ENDBRANCH  26  27
ENDBRANCH  25  26
ENDBRANCH   3  25
TORSDOF 8
ENDMDL
MODEL 2
REMARK VINA RESULT:    -6.130      6.319      9.484
REMARK INTER + INTRA:         -10.065
REMARK INTER:                  -8.547
REMARK INTRA:                  -1.518
REMARK UNBOUND:                -1.248
REMARK  Name = 
REMARK  8 active torsions:
REMARK  status: ('A' for Active; 'I' for Inactive)
REMARK    1  A    between atoms: N_1  and  S_2
REMARK    2  A    between atoms: S_2  and  C_5
REMARK    3  A    between atoms: C_8  and  N_9
REMARK    4  A    between atoms: C_11  and  C_12
REMARK    5  A    between atoms: C_12  and  O_13
REMARK    6  A    between atoms: O_13  and  C_14
REMARK    7  A    between atoms: C_14  and  C_15
REMARK    8  A    between atoms: C_22  and  C_23
REMARK                            x       y       z     vdW  Elec       q    Type
REMARK                         _______ _______ _______ _____ _____    ______ ____
ROOT
ATOM      1  N   UNL     1      14.824  39.372  49.474  0.00  0.00    +0.000 N 
ATOM      2  N   UNL     1      15.211  38.086  49.698  0.00  0.00    +0.000 NA
ATOM      3  C   UNL     1      14.976  37.429  48.561  0.00  0.00    +0.000 A 
ATOM      4  C   UNL     1      14.489  38.294  47.565  0.00  0.00    +0.000 A 
ATOM      5  C   UNL     1      14.456  39.552  48.137  0.00  0.00    +0.000 A 
ENDROOT
BRANCH   5   6
ATOM      6  C   UNL     1      14.186  40.812  47.451  0.00  0.00    +0.000 A 
ATOM      7  C   UNL     1      15.194  41.438  46.707  0.00  0.00    +0.000 A 
ATOM      8  C   UNL     1      14.944  42.655  46.066  0.00  0.00    +0.000 A 
ATOM      9  C   UNL     1      13.690  43.251  46.177  0.00  0.00    +0.000 A 
ATOM     10 CL   UNL     1      13.383  44.748  45.386  0.00  0.00    +0.000 Cl
ATOM     11  C   UNL     1      12.684  42.645  46.926  0.00  0.00    +0.000 A 
ATOM     12  C   UNL     1      12.933  41.429  47.567  0.00  0.00    +0.000 A 
ENDBRANCH   5   6
BRANCH   1  16
ATOM     13  C   UNL     1      14.752  42.084  52.732  0.00  0.00    +0.000 A 
ATOM     14  C   UNL     1      13.566  41.536  52.247  0.00  0.00    +0.000 A 
ATOM     15  C   UNL     1      13.608  40.645  51.171  0.00  0.00    +0.000 A 
ATOM     16  C   UNL     1      14.834  40.290  50.575  0.00  0.00    +0.000 A 
ATOM     17  C   UNL     1      16.014  40.877  51.054  0.00  0.00    +0.000 A 
ATOM     18  C   UNL     1      15.974  41.770  52.133  0.00  0.00    +0.000 A 
BRANCH  13  19
ATOM     19  S   UNL     1      14.702  43.238  54.070  0.00  0.00    +0.000 S 
ATOM     20  O   UNL     1      13.407  43.878  54.099  0.00  0.00    +0.000 OA
ATOM     21  O   UNL     1      15.297  42.637  55.241  0.00  0.00    +0.000 OA
BRANCH  19  22
ATOM     22  N   UNL     1      15.783  44.415  53.554  0.00  0.00    +0.000 NA
ATOM     23  H   UNL     1      16.600  43.972  53.133  0.00  0.00    +0.000 HD
ATOM     24  H   UNL     1      15.307  45.073  52.936  0.00  0.00    +0.000 HD
ENDBRANCH  19  22
ENDBRANCH  13  19
ENDBRANCH   1  16
BRANCH   3  25
ATOM     25  C   UNL     1      15.260  35.962  48.439  0.00  0.00    +0.000 C 
BRANCH  25  26
ATOM     26  O   UNL     1      16.489  35.547  49.046  0.00  0.00    +0.000 OA
BRANCH  26  27
ATOM     27  C   UNL     1      17.639  36.060  48.380  0.00  0.00    +0.000 C 
BRANCH  27  28
ATOM     28  C   UNL     1      18.783  36.177  49.357  0.00  0.00    +0.000 A 
ATOM     29  C   UNL     1      18.629  36.895  50.553  0.00  0.00    +0.000 A 
ATOM     30  C   UNL     1      19.676  36.973  51.473  0.00  0.00    +0.000 A 
ATOM     31  C   UNL     1      20.884  36.328  51.215  0.00  0.00    +0.000 A 
ATOM     32  C   UNL     1      21.047  35.602  50.036  0.00  0.00    +0.000 A 
ATOM     33  C   UNL     1      20.001  35.523  49.115  0.00  0.00    +0.000 A 
ENDBRANCH  27  28
ENDBRANCH  26  27
ENDBRANCH  25  26
ENDBRANCH   3  25
TORSDOF 8
ENDMDL
MODEL 3
REMARK VINA RESULT:    -6.072     15.638     18.341
REMARK INTER + INTRA:          -9.982
REMARK INTER:                  -8.735
REMARK INTRA:                  -1.248
REMARK UNBOUND:                -1.248
REMARK  Name = 
REMARK  8 active torsions:
REMARK  status: ('A' for Active; 'I' for Inactive)
REMARK    1  A    between atoms: N_1  and  S_2
REMARK    2  A    between atoms: S_2  and  C_5
REMARK    3  A    between atoms: C_8  and  N_9
REMARK    4  A    between atoms: C_11  and  C_12
REMARK    5  A    between atoms: C_12  and  O_13
REMARK    6  A    between atoms: O_13  and  C_14
REMARK    7  A    between atoms: C_14  and  C_15
REMARK    8  A    between atoms: C_22  and  C_23
REMARK                            x       y       z     vdW  Elec       q    Type
REMARK                         _______ _______ _______ _____ _____    ______ ____
ROOT
ATOM      1  N   UNL     1      12.938  50.043  46.259  0.00  0.00    +0.000 N 
ATOM      2  N   UNL     1      12.263  50.902  47.073  0.00  0.00    +0.000 NA
ATOM      3  C   UNL     1      11.064  50.349  47.272  0.00  0.00    +0.000 A 
ATOM      4  C   UNL     1      10.969  49.098  46.639  0.00  0.00    +0.000 A 
ATOM      5  C   UNL     1      12.198  48.877  46.045  0.00  0.00    +0.000 A 
ENDROOT
BRANCH   5   6
ATOM      6  C   UNL     1      12.648  47.641  45.415  0.00  0.00    +0.000 A 
ATOM      7  C   UNL     1      12.380  47.402  44.060  0.00  0.00    +0.000 A 
ATOM      8  C   UNL     1      12.792  46.209  43.459  0.00  0.00    +0.000 A 
ATOM      9  C   UNL     1      13.463  45.250  44.214  0.00  0.00    +0.000 A 
ATOM     10 CL   UNL     1      13.971  43.782  43.473  0.00  0.00    +0.000 Cl
ATOM     11  C   UNL     1      13.722  45.468  45.565  0.00  0.00    +0.000 A 
ATOM     12  C   UNL     1      13.310  46.660  46.167  0.00  0.00    +0.000 A 
ENDBRANCH   5   6
BRANCH   1  16
ATOM     13  C   UNL     1      16.724  51.314  44.836  0.00  0.00    +0.000 A 
ATOM     14  C   UNL     1      16.020  52.093  45.752  0.00  0.00    +0.000 A 
ATOM     15  C   UNL     1      14.773  51.659  46.210  0.00  0.00    +0.000 A 
ATOM     16  C   UNL     1      14.221  50.443  45.760  0.00  0.00    +0.000 A 
ATOM     17  C   UNL     1      14.929  49.690  44.813  0.00  0.00    +0.000 A 
ATOM     18  C   UNL     1      16.179  50.123  44.353  0.00  0.00    +0.000 A 
BRANCH  13  19
ATOM     19  S   UNL     1      18.287  51.874  44.227  0.00  0.00    +0.000 S 
ATOM     20  O   UNL     1      18.147  52.263  42.842  0.00  0.00    +0.000 OA
ATOM     21  O   UNL     1      18.905  52.728  45.213  0.00  0.00    +0.000 OA
BRANCH  19  22
ATOM     22  N   UNL     1      19.184  50.455  44.216  0.00  0.00    +0.000 NA
ATOM     23  H   UNL     1      19.619  50.316  45.128  0.00  0.00    +0.000 HD
ATOM     24  H   UNL     1      18.595  49.677  43.917  0.00  0.00    +0.000 HD
ENDBRANCH  19  22
ENDBRANCH  13  19
ENDBRANCH   1  16
BRANCH   3  25
ATOM     25  C   UNL     1      10.025  51.033  48.110  0.00  0.00    +0.000 C 
BRANCH  25  26
ATOM     26  O   UNL     1      10.266  50.962  49.520  0.00  0.00    +0.000 OA
BRANCH  26  27
ATOM     27  C   UNL     1      10.672  52.207  50.079  0.00  0.00    +0.000 C 
BRANCH  27  28
ATOM     28  C   UNL     1      12.087  52.097  50.593  0.00  0.00    +0.000 A 
ATOM     29  C   UNL     1      13.161  52.589  49.836  0.00  0.00    +0.000 A 
ATOM     30  C   UNL     1      14.465  52.521  50.329  0.00  0.00    +0.000 A 
ATOM     31  C   UNL     1      14.711  51.970  51.585  0.00  0.00    +0.000 A 
ATOM     32  C   UNL     1      13.652  51.488  52.352  0.00  0.00    +0.000 A 
ATOM     33  C   UNL     1      12.346  51.556  51.861  0.00  0.00    +0.000 A 
ENDBRANCH  27  28
ENDBRANCH  26  27
ENDBRANCH  25  26
ENDBRANCH   3  25
TORSDOF 8
ENDMDL
