MODEL 1
REMARK VINA RESULT:    -6.841      0.000      0.000
REMARK INTER + INTRA:          -9.694
REMARK INTER:                  -8.588
REMARK INTRA:                  -1.106
REMARK UNBOUND:                -1.053
REMARK  Name = 
REMARK  5 active torsions:
REMARK  status: ('A' for Active; 'I' for Inactive)
REMARK    1  A    between atoms: N_4  and  N_5
REMARK    2  A    between atoms: C_6  and  C_7
REMARK    3  A    between atoms: C_12  and  O_13
REMARK    4  A    between atoms: N_25  and  C_26
REMARK    5  A    between atoms: C_26  and  C_27
REMARK                            x       y       z     vdW  Elec       q    Type
REMARK                         _______ _______ _______ _____ _____    ______ ____
ROOT
ATOM      1  O   UNL     1      13.656  41.135  48.684  0.00  0.00    +0.000 OA
ATOM      2  C   UNL     1      14.511  40.475  48.132  0.00  0.00    +0.000 C 
ATOM      3  C   UNL     1      14.999  40.613  46.677  0.00  0.00    +0.000 C 
ATOM      4  N   UNL     1      14.647  41.455  45.756  0.00  0.00    +0.000 NA
ATOM      5  C   UNL     1      15.989  39.561  46.482  0.00  0.00    +0.000 A 
ATOM      6  C   UNL     1      16.722  39.234  45.356  0.00  0.00    +0.000 A 
ATOM      7  C   UNL     1      17.599  38.155  45.458  0.00  0.00    +0.000 A 
ATOM      8  C   UNL     1      17.717  37.440  46.665  0.00  0.00    +0.000 A 
ATOM      9  C   UNL     1      16.962  37.792  47.792  0.00  0.00    +0.000 A 
ATOM     10  C   UNL     1      16.097  38.866  47.685  0.00  0.00    +0.000 A 
ATOM     11  N   UNL     1      15.243  39.414  48.655  0.00  0.00    +0.000 N 
ENDROOT
BRANCH   4  12
ATOM     12  N   UNL     1      13.689  42.359  46.177  0.00  0.00    +0.000 NA
ATOM     13  C   UNL     1      13.997  43.573  45.855  0.00  0.00    +0.000 C 
BRANCH  13  14
ATOM     14  C   UNL     1      13.152  44.742  46.183  0.00  0.00    +0.000 A 
ATOM     15  C   UNL     1      11.988  44.568  46.823  0.00  0.00    +0.000 A 
ATOM     16  O   UNL     1      11.106  45.557  47.188  0.00  0.00    +0.000 OA
ATOM     17  C   UNL     1      11.437  46.852  46.873  0.00  0.00    +0.000 A 
ATOM     18  C   UNL     1      10.539  47.850  47.245  0.00  0.00    +0.000 A 
ATOM     19  C   UNL     1      10.829  49.179  46.947  0.00  0.00    +0.000 A 
ATOM     20  C   UNL     1      12.004  49.527  46.285  0.00  0.00    +0.000 A 
ATOM     21  C   UNL     1      12.904  48.526  45.912  0.00  0.00    +0.000 A 
ATOM     22  C   UNL     1      12.616  47.189  46.208  0.00  0.00    +0.000 A 
ATOM     23  C   UNL     1      13.552  46.116  45.826  0.00  0.00    +0.000 A 
ATOM     24  O   UNL     1      14.601  46.362  45.243  0.00  0.00    +0.000 OA
BRANCH  19  25
ATOM     25  O   UNL     1       9.925  50.124  47.328  0.00  0.00    +0.000 OA
ATOM     26  H   UNL     1       9.927  50.193  48.297  0.00  0.00    +0.000 HD
ENDBRANCH  19  25
ENDBRANCH  13  14
ENDBRANCH   4  12
BRANCH  11  27
ATOM     27  C   UNL     1      15.099  38.949  50.014  0.00  0.00    +0.000 C 
BRANCH  27  28
ATOM     28  C   UNL     1      16.156  39.450  50.967  0.00  0.00    +0.000 A 
ATOM     29  C   UNL     1      17.288  38.669  51.248  0.00  0.00    +0.000 A 
ATOM     30  C   UNL     1      18.260  39.119  52.146  0.00  0.00    +0.000 A 
ATOM     31  C   UNL     1      18.109  40.352  52.781  0.00  0.00    +0.000 A 
ATOM     32  C   UNL     1      16.983  41.129  52.524  0.00  0.00    +0.000 A 
ATOM     33  C   UNL     1      16.017  40.674  51.629  0.00  0.00    +0.000 A 
ATOM     34  F   UNL     1      14.938  41.440  51.413  0.00  0.00    +0.000 F 
ENDBRANCH  27  28
ENDBRANCH  11  27
TORSDOF 5
ENDMDL
MODEL 2
REMARK VINA RESULT:    -6.839      1.848      2.821
REMARK INTER + INTRA:          -9.690
REMARK INTER:                  -8.405
REMARK INTRA:                  -1.286
REMARK UNBOUND:                -1.053
REMARK  Name = 
REMARK  5 active torsions:
REMARK  status: ('A' for Active; 'I' for Inactive)
REMARK    1  A    between atoms: N_4  and  N_5
REMARK    2  A    between atoms: C_6  and  C_7
REMARK    3  A    between atoms: C_12  and  O_13
REMARK    4  A    between atoms: N_25  and  C_26
REMARK    5  A    between atoms: C_26  and  C_27
REMARK                            x       y       z     vdW  Elec       q    Type
REMARK                         _______ _______ _______ _____ _____    ______ ____
ROOT
ATOM      1  O   UNL     1      14.738  39.988  47.278  0.00  0.00    +0.000 OA
ATOM      2  C   UNL     1      15.676  39.224  47.185  0.00  0.00    +0.000 C 
ATOM      3  C   UNL     1      16.568  38.992  45.951  0.00  0.00    +0.000 C 
ATOM      4  N   UNL     1      16.545  39.562  44.786  0.00  0.00    +0.000 NA
ATOM      5  C   UNL     1      17.509  37.943  46.325  0.00  0.00    +0.000 A 
ATOM      6  C   UNL     1      18.514  37.351  45.583  0.00  0.00    +0.000 A 
ATOM      7  C   UNL     1      19.261  36.351  46.205  0.00  0.00    +0.000 A 
ATOM      8  C   UNL     1      18.985  35.973  47.532  0.00  0.00    +0.000 A 
ATOM      9  C   UNL     1      17.960  36.590  48.263  0.00  0.00    +0.000 A 
ATOM     10  C   UNL     1      17.226  37.584  47.641  0.00  0.00    +0.000 A 
ATOM     11  N   UNL     1      16.164  38.348  48.149  0.00  0.00    +0.000 N 
ENDROOT
BRANCH   4  12
ATOM     12  N   UNL     1      15.560  40.526  44.667  0.00  0.00    +0.000 NA
ATOM     13  C   UNL     1      16.060  41.704  44.479  0.00  0.00    +0.000 C 
BRANCH  13  14
ATOM     14  C   UNL     1      15.236  42.922  44.320  0.00  0.00    +0.000 A 
ATOM     15  C   UNL     1      15.075  43.467  43.107  0.00  0.00    +0.000 A 
ATOM     16  O   UNL     1      14.341  44.592  42.813  0.00  0.00    +0.000 OA
ATOM     17  C   UNL     1      13.708  45.228  43.852  0.00  0.00    +0.000 A 
ATOM     18  C   UNL     1      12.967  46.368  43.548  0.00  0.00    +0.000 A 
ATOM     19  C   UNL     1      12.307  47.048  44.568  0.00  0.00    +0.000 A 
ATOM     20  C   UNL     1      12.374  46.606  45.888  0.00  0.00    +0.000 A 
ATOM     21  C   UNL     1      13.117  45.464  46.192  0.00  0.00    +0.000 A 
ATOM     22  C   UNL     1      13.783  44.777  45.171  0.00  0.00    +0.000 A 
ATOM     23  C   UNL     1      14.572  43.568  45.467  0.00  0.00    +0.000 A 
ATOM     24  O   UNL     1      14.666  43.132  46.608  0.00  0.00    +0.000 OA
BRANCH  19  25
ATOM     25  O   UNL     1      11.594  48.158  44.229  0.00  0.00    +0.000 OA
ATOM     26  H   UNL     1      10.887  48.292  44.881  0.00  0.00    +0.000 HD
ENDBRANCH  19  25
ENDBRANCH  13  14
ENDBRANCH   4  12
BRANCH  11  27
ATOM     27  C   UNL     1      15.608  38.246  49.477  0.00  0.00    +0.000 C 
BRANCH  27  28
ATOM     28  C   UNL     1      16.106  39.287  50.449  0.00  0.00    +0.000 A 
ATOM     29  C   UNL     1      17.364  39.149  51.057  0.00  0.00    +0.000 A 
ATOM     30  C   UNL     1      17.821  40.100  51.974  0.00  0.00    +0.000 A 
ATOM     31  C   UNL     1      17.023  41.195  52.303  0.00  0.00    +0.000 A 
ATOM     32  C   UNL     1      15.766  41.336  51.720  0.00  0.00    +0.000 A 
ATOM     33  C   UNL     1      15.316  40.384  50.808  0.00  0.00    +0.000 A 
ATOM     34  F   UNL     1      14.096  40.541  50.275  0.00  0.00    +0.000 F 
ENDBRANCH  27  28
ENDBRANCH  11  27
TORSDOF 5
ENDMDL
MODEL 3
REMARK VINA RESULT:    -6.636      4.015      7.874
REMARK INTER + INTRA:          -9.435
REMARK INTER:                  -8.382
REMARK INTRA:                  -1.053
REMARK UNBOUND:                -1.053
REMARK  Name = 
REMARK  5 active torsions:
REMARK  status: ('A' for Active; 'I' for Inactive)
REMARK    1  A    between atoms: N_4  and  N_5
REMARK    2  A    between atoms: C_6  and  C_7
REMARK    3  A    between atoms: C_12  and  O_13
REMARK    4  A    between atoms: N_25  and  C_26
REMARK    5  A    between atoms: C_26  and  C_27
REMARK                            x       y       z     vdW  Elec       q    Type
REMARK                         _______ _______ _______ _____ _____    ______ ____
ROOT
ATOM      1  O   UNL     1      15.202  42.887  46.062  0.00  0.00    +0.000 OA
ATOM      2  C   UNL     1      15.587  42.032  45.293  0.00  0.00    +0.000 C 
ATOM      3  C   UNL     1      15.654  40.514  45.547  0.00  0.00    +0.000 C 
ATOM      4  N   UNL     1      15.294  39.824  46.584  0.00  0.00    +0.000 NA
ATOM      5  C   UNL     1      16.238  39.929  44.345  0.00  0.00    +0.000 A 
ATOM      6  C   UNL     1      16.530  38.609  44.056  0.00  0.00    +0.000 A 
ATOM      7  C   UNL     1      17.105  38.341  42.814  0.00  0.00    +0.000 A 
ATOM      8  C   UNL     1      17.371  39.385  41.908  0.00  0.00    +0.000 A 
ATOM      9  C   UNL     1      17.065  40.716  42.226  0.00  0.00    +0.000 A 
ATOM     10  C   UNL     1      16.491  40.974  43.458  0.00  0.00    +0.000 A 
ATOM     11  N   UNL     1      16.093  42.202  44.009  0.00  0.00    +0.000 N 
ENDROOT
BRANCH   4  12
ATOM     12  N   UNL     1      14.769  40.601  47.601  0.00  0.00    +0.000 NA
ATOM     13  C   UNL     1      14.684  39.946  48.713  0.00  0.00    +0.000 C 
BRANCH  13  14
ATOM     14  C   UNL     1      14.157  40.530  49.965  0.00  0.00    +0.000 A 
ATOM     15  C   UNL     1      12.852  40.817  50.072  0.00  0.00    +0.000 A 
ATOM     16  O   UNL     1      12.228  41.361  51.170  0.00  0.00    +0.000 OA
ATOM     17  C   UNL     1      13.003  41.642  52.268  0.00  0.00    +0.000 A 
ATOM     18  C   UNL     1      12.364  42.194  53.377  0.00  0.00    +0.000 A 
ATOM     19  C   UNL     1      13.107  42.496  54.515  0.00  0.00    +0.000 A 
ATOM     20  C   UNL     1      14.478  42.255  54.563  0.00  0.00    +0.000 A 
ATOM     21  C   UNL     1      15.118  41.702  53.452  0.00  0.00    +0.000 A 
ATOM     22  C   UNL     1      14.376  41.397  52.306  0.00  0.00    +0.000 A 
ATOM     23  C   UNL     1      15.029  40.812  51.121  0.00  0.00    +0.000 A 
ATOM     24  O   UNL     1      16.231  40.576  51.106  0.00  0.00    +0.000 OA
BRANCH  19  25
ATOM     25  O   UNL     1      12.445  43.035  55.577  0.00  0.00    +0.000 OA
ATOM     26  H   UNL     1      12.998  43.725  55.978  0.00  0.00    +0.000 HD
ENDBRANCH  19  25
ENDBRANCH  13  14
ENDBRANCH   4  12
BRANCH  11  27
ATOM     27  C   UNL     1      16.203  43.491  43.368  0.00  0.00    +0.000 C 
BRANCH  27  28
ATOM     28  C   UNL     1      15.050  43.845  42.462  0.00  0.00    +0.000 A 
ATOM     29  C   UNL     1      15.093  43.520  41.097  0.00  0.00    +0.000 A 
ATOM     30  C   UNL     1      14.036  43.863  40.249  0.00  0.00    +0.000 A 
ATOM     31  C   UNL     1      12.928  44.544  40.752  0.00  0.00    +0.000 A 
ATOM     32  C   UNL     1      12.879  44.887  42.100  0.00  0.00    +0.000 A 
ATOM     33  C   UNL     1      13.937  44.542  42.940  0.00  0.00    +0.000 A 
ATOM     34  F   UNL     1      13.866  44.899  44.230  0.00  0.00    +0.000 F 
ENDBRANCH  27  28
ENDBRANCH  11  27
TORSDOF 5
ENDMDL
