MODEL 1
REMARK VINA RESULT:    -7.371      0.000      0.000
REMARK INTER + INTRA:         -11.303
REMARK INTER:                  -9.917
REMARK INTRA:                  -1.386
REMARK UNBOUND:                -0.916
REMARK  Name = 
REMARK  8 active torsions:
REMARK  status: ('A' for Active; 'I' for Inactive)
REMARK    1  A    between atoms: C_1  and  C_2
REMARK    2  A    between atoms: C_10  and  N_11
REMARK    3  A    between atoms: N_11  and  C_26
REMARK    4  A    between atoms: C_12  and  C_14
REMARK    5  A    between atoms: C_15  and  C_16
REMARK    6  A    between atoms: C_19  and  C_20
REMARK    7  A    between atoms: N_29  and  C_30
REMARK    8  A    between atoms: C_30  and  C_31
REMARK                            x       y       z     vdW  Elec       q    Type
REMARK                         _______ _______ _______ _____ _____    ______ ____
ROOT
ATOM      1  N   UNL     1      15.250  37.995  52.356  0.00  0.00    +0.000 N 
ATOM      2  C   UNL     1      15.671  37.922  51.018  0.00  0.00    +0.000 C 
ATOM      3  O   UNL     1      15.138  38.544  50.096  0.00  0.00    +0.000 OA
ENDROOT
BRANCH   1  13
ATOM      4  C   UNL     1      15.142  44.852  53.564  0.00  0.00    +0.000 C 
ATOM      5  C   UNL     1      15.191  43.385  53.211  0.00  0.00    +0.000 C 
ATOM      6  O   UNL     1      16.248  42.891  52.821  0.00  0.00    +0.000 OA
ATOM      7  N   UNL     1      13.996  42.704  53.355  0.00  0.00    +0.000 N 
ATOM      8  C   UNL     1      12.714  43.290  53.782  0.00  0.00    +0.000 C 
ATOM      9  C   UNL     1      11.647  42.194  53.691  0.00  0.00    +0.000 C 
ATOM     10  C   UNL     1      12.464  40.990  53.352  0.00  0.00    +0.000 A 
ATOM     11  C   UNL     1      12.022  39.683  53.229  0.00  0.00    +0.000 A 
ATOM     12  C   UNL     1      12.955  38.699  52.896  0.00  0.00    +0.000 A 
ATOM     13  C   UNL     1      14.307  39.027  52.674  0.00  0.00    +0.000 A 
ATOM     14  C   UNL     1      14.735  40.353  52.822  0.00  0.00    +0.000 A 
ATOM     15  C   UNL     1      13.804  41.324  53.151  0.00  0.00    +0.000 A 
ENDBRANCH   1  13
BRANCH   1  16
ATOM     16  C   UNL     1      15.958  37.334  53.492  0.00  0.00    +0.000 C 
ATOM     17  C   UNL     1      16.317  35.880  53.146  0.00  0.00    +0.000 C 
ATOM     18  C   UNL     1      16.919  35.166  54.356  0.00  0.00    +0.000 C 
ATOM     19  N   UNL     1      18.101  35.872  54.860  0.00  0.00    +0.000 NA
ATOM     20  C   UNL     1      17.780  37.258  55.236  0.00  0.00    +0.000 C 
ATOM     21  C   UNL     1      17.207  38.034  54.048  0.00  0.00    +0.000 C 
BRANCH  19  22
ATOM     22  C   UNL     1      18.697  35.131  55.988  0.00  0.00    +0.000 C 
BRANCH  22  23
ATOM     23  C   UNL     1      20.144  34.744  55.763  0.00  0.00    +0.000 A 
ATOM     24  C   UNL     1      21.017  34.582  56.846  0.00  0.00    +0.000 A 
ATOM     25  C   UNL     1      22.347  34.208  56.636  0.00  0.00    +0.000 A 
ATOM     26  C   UNL     1      22.814  33.987  55.341  0.00  0.00    +0.000 A 
ATOM     27  C   UNL     1      21.955  34.141  54.255  0.00  0.00    +0.000 A 
ATOM     28  C   UNL     1      20.627  34.515  54.465  0.00  0.00    +0.000 A 
ENDBRANCH  22  23
ENDBRANCH  19  22
ENDBRANCH   1  16
BRANCH   2  29
ATOM     29  C   UNL     1      16.808  37.013  50.693  0.00  0.00    +0.000 C 
ATOM     30  C   UNL     1      18.057  37.507  50.671  0.00  0.00    +0.000 C 
BRANCH  30  31
ATOM     31  C   UNL     1      19.259  36.704  50.415  0.00  0.00    +0.000 A 
ATOM     32  C   UNL     1      19.306  35.916  49.258  0.00  0.00    +0.000 A 
ATOM     33  C   UNL     1      20.417  35.112  48.985  0.00  0.00    +0.000 A 
ATOM     34  C   UNL     1      21.504  35.075  49.868  0.00  0.00    +0.000 A 
ATOM     35  C   UNL     1      21.447  35.850  51.037  0.00  0.00    +0.000 A 
ATOM     36  C   UNL     1      20.335  36.653  51.308  0.00  0.00    +0.000 A 
BRANCH  34  37
ATOM     37  C   UNL     1      22.705  34.204  49.595  0.00  0.00    +0.000 C 
ATOM     38  F   UNL     1      23.415  33.929  50.724  0.00  0.00    +0.000 F 
ATOM     39  F   UNL     1      23.585  34.785  48.732  0.00  0.00    +0.000 F 
ATOM     40  F   UNL     1      22.390  32.996  49.048  0.00  0.00    +0.000 F 
ENDBRANCH  34  37
ENDBRANCH  30  31
ENDBRANCH   2  29
TORSDOF 7
ENDMDL
MODEL 2
REMARK VINA RESULT:    -7.200      4.468      6.573
REMARK INTER + INTRA:         -11.062
REMARK INTER:                 -10.146
REMARK INTRA:                  -0.916
REMARK UNBOUND:                -0.916
REMARK  Name = 
REMARK  8 active torsions:
REMARK  status: ('A' for Active; 'I' for Inactive)
REMARK    1  A    between atoms: C_1  and  C_2
REMARK    2  A    between atoms: C_10  and  N_11
REMARK    3  A    between atoms: N_11  and  C_26
REMARK    4  A    between atoms: C_12  and  C_14
REMARK    5  A    between atoms: C_15  and  C_16
REMARK    6  A    between atoms: C_19  and  C_20
REMARK    7  A    between atoms: N_29  and  C_30
REMARK    8  A    between atoms: C_30  and  C_31
REMARK                            x       y       z     vdW  Elec       q    Type
REMARK                         _______ _______ _______ _____ _____    ______ ____
ROOT
ATOM      1  N   UNL     1      17.527  37.244  51.253  0.00  0.00    +0.000 N 
ATOM      2  C   UNL     1      16.667  38.249  50.779  0.00  0.00    +0.000 C 
ATOM      3  O   UNL     1      15.699  38.678  51.411  0.00  0.00    +0.000 OA
ENDROOT
BRANCH   1  13
ATOM      4  C   UNL     1      17.190  40.318  57.492  0.00  0.00    +0.000 C 
ATOM      5  C   UNL     1      17.178  39.693  56.118  0.00  0.00    +0.000 C 
ATOM      6  O   UNL     1      17.158  40.417  55.123  0.00  0.00    +0.000 OA
ATOM      7  N   UNL     1      17.183  38.310  56.099  0.00  0.00    +0.000 N 
ATOM      8  C   UNL     1      17.166  37.431  57.281  0.00  0.00    +0.000 C 
ATOM      9  C   UNL     1      17.067  35.984  56.784  0.00  0.00    +0.000 C 
ATOM     10  C   UNL     1      17.191  36.153  55.305  0.00  0.00    +0.000 A 
ATOM     11  C   UNL     1      17.249  35.153  54.348  0.00  0.00    +0.000 A 
ATOM     12  C   UNL     1      17.358  35.527  53.007  0.00  0.00    +0.000 A 
ATOM     13  C   UNL     1      17.391  36.886  52.634  0.00  0.00    +0.000 A 
ATOM     14  C   UNL     1      17.349  37.879  53.620  0.00  0.00    +0.000 A 
ATOM     15  C   UNL     1      17.239  37.501  54.948  0.00  0.00    +0.000 A 
ENDBRANCH   1  13
BRANCH   1  16
ATOM     16  C   UNL     1      18.763  36.798  50.543  0.00  0.00    +0.000 C 
ATOM     17  C   UNL     1      19.912  36.558  51.536  0.00  0.00    +0.000 C 
ATOM     18  C   UNL     1      21.210  36.233  50.797  0.00  0.00    +0.000 C 
ATOM     19  N   UNL     1      21.048  35.069  49.920  0.00  0.00    +0.000 NA
ATOM     20  C   UNL     1      19.980  35.285  48.932  0.00  0.00    +0.000 C 
ATOM     21  C   UNL     1      18.644  35.578  49.619  0.00  0.00    +0.000 C 
BRANCH  19  22
ATOM     22  C   UNL     1      22.330  34.741  49.266  0.00  0.00    +0.000 C 
BRANCH  22  23
ATOM     23  C   UNL     1      23.383  34.221  50.223  0.00  0.00    +0.000 A 
ATOM     24  C   UNL     1      24.701  34.690  50.159  0.00  0.00    +0.000 A 
ATOM     25  C   UNL     1      25.665  34.222  51.055  0.00  0.00    +0.000 A 
ATOM     26  C   UNL     1      25.319  33.285  52.027  0.00  0.00    +0.000 A 
ATOM     27  C   UNL     1      24.010  32.813  52.104  0.00  0.00    +0.000 A 
ATOM     28  C   UNL     1      23.047  33.280  51.209  0.00  0.00    +0.000 A 
ENDBRANCH  22  23
ENDBRANCH  19  22
ENDBRANCH   1  16
BRANCH   2  29
ATOM     29  C   UNL     1      16.925  38.802  49.417  0.00  0.00    +0.000 C 
ATOM     30  C   UNL     1      16.268  38.287  48.366  0.00  0.00    +0.000 C 
BRANCH  30  31
ATOM     31  C   UNL     1      16.398  38.778  46.988  0.00  0.00    +0.000 A 
ATOM     32  C   UNL     1      15.862  40.032  46.669  0.00  0.00    +0.000 A 
ATOM     33  C   UNL     1      15.937  40.530  45.365  0.00  0.00    +0.000 A 
ATOM     34  C   UNL     1      16.545  39.779  44.349  0.00  0.00    +0.000 A 
ATOM     35  C   UNL     1      17.064  38.515  44.666  0.00  0.00    +0.000 A 
ATOM     36  C   UNL     1      16.988  38.018  45.971  0.00  0.00    +0.000 A 
BRANCH  34  37
ATOM     37  C   UNL     1      16.622  40.296  42.934  0.00  0.00    +0.000 C 
ATOM     38  F   UNL     1      17.474  39.568  42.160  0.00  0.00    +0.000 F 
ATOM     39  F   UNL     1      17.068  41.583  42.872  0.00  0.00    +0.000 F 
ATOM     40  F   UNL     1      15.425  40.287  42.283  0.00  0.00    +0.000 F 
ENDBRANCH  34  37
ENDBRANCH  30  31
ENDBRANCH   2  29
TORSDOF 7
ENDMDL
MODEL 3
REMARK VINA RESULT:    -7.162      3.618      6.698
REMARK INTER + INTRA:         -11.009
REMARK INTER:                  -9.824
REMARK INTRA:                  -1.186
REMARK UNBOUND:                -0.916
REMARK  Name = 
REMARK  8 active torsions:
REMARK  status: ('A' for Active; 'I' for Inactive)
REMARK    1  A    between atoms: C_1  and  C_2
REMARK    2  A    between atoms: C_10  and  N_11
REMARK    3  A    between atoms: N_11  and  C_26
REMARK    4  A    between atoms: C_12  and  C_14
REMARK    5  A    between atoms: C_15  and  C_16
REMARK    6  A    between atoms: C_19  and  C_20
REMARK    7  A    between atoms: N_29  and  C_30
REMARK    8  A    between atoms: C_30  and  C_31
REMARK                            x       y       z     vdW  Elec       q    Type
REMARK                         _______ _______ _______ _____ _____    ______ ____
ROOT
ATOM      1  N   UNL     1      16.041  38.560  51.204  0.00  0.00    +0.000 N 
ATOM      2  C   UNL     1      16.861  37.750  52.007  0.00  0.00    +0.000 C 
ATOM      3  O   UNL     1      16.887  37.807  53.238  0.00  0.00    +0.000 OA
ENDROOT
BRANCH   1  13
ATOM      4  C   UNL     1      15.017  44.974  53.714  0.00  0.00    +0.000 C 
ATOM      5  C   UNL     1      15.240  43.622  53.081  0.00  0.00    +0.000 C 
ATOM      6  O   UNL     1      16.257  43.425  52.417  0.00  0.00    +0.000 OA
ATOM      7  N   UNL     1      14.240  42.693  53.305  0.00  0.00    +0.000 N 
ATOM      8  C   UNL     1      12.999  42.927  54.063  0.00  0.00    +0.000 C 
ATOM      9  C   UNL     1      12.143  41.660  53.959  0.00  0.00    +0.000 C 
ATOM     10  C   UNL     1      13.063  40.720  53.251  0.00  0.00    +0.000 A 
ATOM     11  C   UNL     1      12.837  39.385  52.959  0.00  0.00    +0.000 A 
ATOM     12  C   UNL     1      13.830  38.679  52.278  0.00  0.00    +0.000 A 
ATOM     13  C   UNL     1      15.026  39.311  51.881  0.00  0.00    +0.000 A 
ATOM     14  C   UNL     1      15.240  40.658  52.203  0.00  0.00    +0.000 A 
ATOM     15  C   UNL     1      14.249  41.352  52.877  0.00  0.00    +0.000 A 
ENDBRANCH   1  13
BRANCH   1  16
ATOM     16  C   UNL     1      15.923  38.422  49.722  0.00  0.00    +0.000 C 
ATOM     17  C   UNL     1      14.615  39.049  49.213  0.00  0.00    +0.000 C 
ATOM     18  C   UNL     1      14.433  38.788  47.718  0.00  0.00    +0.000 C 
ATOM     19  N   UNL     1      15.570  39.295  46.944  0.00  0.00    +0.000 NA
ATOM     20  C   UNL     1      16.834  38.683  47.383  0.00  0.00    +0.000 C 
ATOM     21  C   UNL     1      17.088  38.946  48.869  0.00  0.00    +0.000 C 
BRANCH  19  22
ATOM     22  C   UNL     1      15.341  39.084  45.502  0.00  0.00    +0.000 C 
BRANCH  22  23
ATOM     23  C   UNL     1      15.771  40.255  44.643  0.00  0.00    +0.000 A 
ATOM     24  C   UNL     1      16.351  40.044  43.385  0.00  0.00    +0.000 A 
ATOM     25  C   UNL     1      16.728  41.127  42.587  0.00  0.00    +0.000 A 
ATOM     26  C   UNL     1      16.525  42.430  43.037  0.00  0.00    +0.000 A 
ATOM     27  C   UNL     1      15.945  42.654  44.284  0.00  0.00    +0.000 A 
ATOM     28  C   UNL     1      15.568  41.573  45.081  0.00  0.00    +0.000 A 
ENDBRANCH  22  23
ENDBRANCH  19  22
ENDBRANCH   1  16
BRANCH   2  29
ATOM     29  C   UNL     1      17.778  36.792  51.323  0.00  0.00    +0.000 C 
ATOM     30  C   UNL     1      19.068  37.124  51.155  0.00  0.00    +0.000 C 
BRANCH  30  31
ATOM     31  C   UNL     1      20.075  36.248  50.543  0.00  0.00    +0.000 A 
ATOM     32  C   UNL     1      21.321  36.119  51.168  0.00  0.00    +0.000 A 
ATOM     33  C   UNL     1      22.322  35.319  50.609  0.00  0.00    +0.000 A 
ATOM     34  C   UNL     1      22.098  34.634  49.408  0.00  0.00    +0.000 A 
ATOM     35  C   UNL     1      20.855  34.778  48.772  0.00  0.00    +0.000 A 
ATOM     36  C   UNL     1      19.855  35.580  49.333  0.00  0.00    +0.000 A 
BRANCH  34  37
ATOM     37  C   UNL     1      23.171  33.775  48.784  0.00  0.00    +0.000 C 
ATOM     38  F   UNL     1      24.363  33.879  49.435  0.00  0.00    +0.000 F 
ATOM     39  F   UNL     1      23.422  34.114  47.488  0.00  0.00    +0.000 F 
ATOM     40  F   UNL     1      22.868  32.447  48.769  0.00  0.00    +0.000 F 
ENDBRANCH  34  37
ENDBRANCH  30  31
ENDBRANCH   2  29
TORSDOF 7
ENDMDL
