MODEL 1
REMARK VINA RESULT:    -6.841      0.000      0.000
REMARK INTER + INTRA:          -9.967
REMARK INTER:                  -9.325
REMARK INTRA:                  -0.642
REMARK UNBOUND:                -1.125
REMARK  Name = 
REMARK  6 active torsions:
REMARK  status: ('A' for Active; 'I' for Inactive)
REMARK    1  A    between atoms: C_1  and  O_2
REMARK    2  A    between atoms: O_2  and  C_3
REMARK    3  A    between atoms: C_6  and  N_7
REMARK    4  A    between atoms: C_8  and  C_10
REMARK    5  A    between atoms: C_20  and  C_21
REMARK    6  A    between atoms: C_21  and  C_22
REMARK                            x       y       z     vdW  Elec       q    Type
REMARK                         _______ _______ _______ _____ _____    ______ ____
ROOT
ATOM      1  C   UNL     1      12.348  45.704  46.528  0.00  0.00    +0.000 A 
ATOM      2  C   UNL     1      11.902  47.025  46.599  0.00  0.00    +0.000 A 
ATOM      3  C   UNL     1      12.636  48.057  46.003  0.00  0.00    +0.000 A 
ATOM      4  C   UNL     1      13.825  47.789  45.323  0.00  0.00    +0.000 A 
ATOM      5  C   UNL     1      14.269  46.471  45.247  0.00  0.00    +0.000 A 
ATOM      6  C   UNL     1      13.542  45.418  45.841  0.00  0.00    +0.000 A 
ENDROOT
BRANCH   4   7
ATOM      7  N   UNL     1      14.502  48.886  44.755  0.00  0.00    +0.000 N 
ATOM      8  C   UNL     1      15.826  49.248  44.916  0.00  0.00    +0.000 C 
ATOM      9  O   UNL     1      16.667  48.664  45.591  0.00  0.00    +0.000 OA
ATOM     10  H   UNL     1      13.948  49.494  44.151  0.00  0.00    +0.000 HD
BRANCH   8  11
ATOM     11  C   UNL     1      16.246  50.466  44.189  0.00  0.00    +0.000 A 
ATOM     12  C   UNL     1      15.301  51.396  43.678  0.00  0.00    +0.000 A 
ATOM     13  C   UNL     1      15.663  52.585  42.970  0.00  0.00    +0.000 A 
ATOM     14  C   UNL     1      16.994  52.963  42.701  0.00  0.00    +0.000 A 
ATOM     15  C   UNL     1      17.893  52.034  43.213  0.00  0.00    +0.000 A 
ATOM     16  C   UNL     1      19.252  52.118  43.115  0.00  0.00    +0.000 A 
ATOM     17  N   UNL     1      19.713  51.004  43.750  0.00  0.00    +0.000 N 
ATOM     18  N   UNL     1      18.749  50.205  44.253  0.00  0.00    +0.000 NA
ATOM     19  C   UNL     1      17.588  50.820  43.934  0.00  0.00    +0.000 A 
ATOM     20  H   UNL     1      20.681  50.722  43.879  0.00  0.00    +0.000 HD
ENDBRANCH   8  11
ENDBRANCH   4   7
BRANCH   1  22
ATOM     21  C   UNL     1      10.281  44.580  46.921  0.00  0.00    +0.000 C 
ATOM     22  O   UNL     1      11.692  44.631  47.075  0.00  0.00    +0.000 OA
ENDBRANCH   1  22
BRANCH   6  23
ATOM     23  C   UNL     1      14.091  44.009  45.743  0.00  0.00    +0.000 C 
BRANCH  23  24
ATOM     24  C   UNL     1      14.490  43.608  44.340  0.00  0.00    +0.000 A 
ATOM     25  C   UNL     1      13.521  43.467  43.337  0.00  0.00    +0.000 A 
ATOM     26  C   UNL     1      13.886  43.088  42.045  0.00  0.00    +0.000 A 
ATOM     27  C   UNL     1      15.224  42.839  41.743  0.00  0.00    +0.000 A 
ATOM     28  C   UNL     1      16.196  42.967  42.733  0.00  0.00    +0.000 A 
ATOM     29  C   UNL     1      15.832  43.347  44.026  0.00  0.00    +0.000 A 
ENDBRANCH  23  24
ENDBRANCH   6  23
TORSDOF 5
ENDMDL
MODEL 2
REMARK VINA RESULT:    -6.545      1.422      1.954
REMARK INTER + INTRA:          -9.583
REMARK INTER:                  -8.550
REMARK INTRA:                  -1.034
REMARK UNBOUND:                -1.125
REMARK  Name = 
REMARK  6 active torsions:
REMARK  status: ('A' for Active; 'I' for Inactive)
REMARK    1  A    between atoms: C_1  and  O_2
REMARK    2  A    between atoms: O_2  and  C_3
REMARK    3  A    between atoms: C_6  and  N_7
REMARK    4  A    between atoms: C_8  and  C_10
REMARK    5  A    between atoms: C_20  and  C_21
REMARK    6  A    between atoms: C_21  and  C_22
REMARK                            x       y       z     vdW  Elec       q    Type
REMARK                         _______ _______ _______ _____ _____    ______ ____
ROOT
ATOM      1  C   UNL     1      12.396  45.557  46.549  0.00  0.00    +0.000 A 
ATOM      2  C   UNL     1      11.939  46.875  46.603  0.00  0.00    +0.000 A 
ATOM      3  C   UNL     1      12.684  47.910  46.029  0.00  0.00    +0.000 A 
ATOM      4  C   UNL     1      13.896  47.649  45.387  0.00  0.00    +0.000 A 
ATOM      5  C   UNL     1      14.352  46.334  45.329  0.00  0.00    +0.000 A 
ATOM      6  C   UNL     1      13.612  45.278  45.902  0.00  0.00    +0.000 A 
ENDROOT
BRANCH   4   7
ATOM      7  N   UNL     1      14.584  48.749  44.839  0.00  0.00    +0.000 N 
ATOM      8  C   UNL     1      15.908  49.102  45.014  0.00  0.00    +0.000 C 
ATOM      9  O   UNL     1      16.742  48.503  45.687  0.00  0.00    +0.000 OA
ATOM     10  H   UNL     1      14.037  49.369  44.239  0.00  0.00    +0.000 HD
BRANCH   8  11
ATOM     11  C   UNL     1      16.341  50.326  44.306  0.00  0.00    +0.000 A 
ATOM     12  C   UNL     1      17.696  50.753  44.309  0.00  0.00    +0.000 A 
ATOM     13  C   UNL     1      18.158  51.929  43.640  0.00  0.00    +0.000 A 
ATOM     14  C   UNL     1      17.321  52.793  42.904  0.00  0.00    +0.000 A 
ATOM     15  C   UNL     1      16.004  52.348  42.921  0.00  0.00    +0.000 A 
ATOM     16  C   UNL     1      14.957  52.968  42.300  0.00  0.00    +0.000 A 
ATOM     17  N   UNL     1      13.876  52.187  42.585  0.00  0.00    +0.000 N 
ATOM     18  N   UNL     1      14.150  51.106  43.344  0.00  0.00    +0.000 NA
ATOM     19  C   UNL     1      15.480  51.173  43.576  0.00  0.00    +0.000 A 
ATOM     20  H   UNL     1      12.915  52.334  42.291  0.00  0.00    +0.000 HD
ENDBRANCH   8  11
ENDBRANCH   4   7
BRANCH   1  22
ATOM     21  C   UNL     1      10.478  44.729  47.703  0.00  0.00    +0.000 C 
ATOM     22  O   UNL     1      11.730  44.481  47.078  0.00  0.00    +0.000 OA
ENDBRANCH   1  22
BRANCH   6  23
ATOM     23  C   UNL     1      14.174  43.872  45.825  0.00  0.00    +0.000 C 
BRANCH  23  24
ATOM     24  C   UNL     1      14.555  43.445  44.425  0.00  0.00    +0.000 A 
ATOM     25  C   UNL     1      13.577  43.307  43.431  0.00  0.00    +0.000 A 
ATOM     26  C   UNL     1      13.926  42.904  42.142  0.00  0.00    +0.000 A 
ATOM     27  C   UNL     1      15.257  42.629  41.833  0.00  0.00    +0.000 A 
ATOM     28  C   UNL     1      16.238  42.755  42.814  0.00  0.00    +0.000 A 
ATOM     29  C   UNL     1      15.890  43.159  44.104  0.00  0.00    +0.000 A 
ENDBRANCH  23  24
ENDBRANCH   6  23
TORSDOF 5
ENDMDL
MODEL 3
REMARK VINA RESULT:    -6.357      2.955      7.833
REMARK INTER + INTRA:          -9.341
REMARK INTER:                  -8.215
REMARK INTRA:                  -1.125
REMARK UNBOUND:                -1.125
REMARK  Name = 
REMARK  6 active torsions:
REMARK  status: ('A' for Active; 'I' for Inactive)
REMARK    1  A    between atoms: C_1  and  O_2
REMARK    2  A    between atoms: O_2  and  C_3
REMARK    3  A    between atoms: C_6  and  N_7
REMARK    4  A    between atoms: C_8  and  C_10
REMARK    5  A    between atoms: C_20  and  C_21
REMARK    6  A    between atoms: C_21  and  C_22
REMARK                            x       y       z     vdW  Elec       q    Type
REMARK                         _______ _______ _______ _____ _____    ______ ____
ROOT
ATOM      1  C   UNL     1      12.458  48.804  45.901  0.00  0.00    +0.000 A 
ATOM      2  C   UNL     1      12.162  47.630  46.597  0.00  0.00    +0.000 A 
ATOM      3  C   UNL     1      12.807  46.431  46.276  0.00  0.00    +0.000 A 
ATOM      4  C   UNL     1      13.761  46.381  45.258  0.00  0.00    +0.000 A 
ATOM      5  C   UNL     1      14.061  47.553  44.566  0.00  0.00    +0.000 A 
ATOM      6  C   UNL     1      13.421  48.770  44.877  0.00  0.00    +0.000 A 
ENDROOT
BRANCH   4   7
ATOM      7  N   UNL     1      14.360  45.134  44.999  0.00  0.00    +0.000 N 
ATOM      8  C   UNL     1      14.357  44.414  43.819  0.00  0.00    +0.000 C 
ATOM      9  O   UNL     1      13.827  44.744  42.762  0.00  0.00    +0.000 OA
ATOM     10  H   UNL     1      14.856  44.700  45.779  0.00  0.00    +0.000 HD
BRANCH   8  11
ATOM     11  C   UNL     1      15.074  43.121  43.858  0.00  0.00    +0.000 A 
ATOM     12  C   UNL     1      15.718  42.587  42.710  0.00  0.00    +0.000 A 
ATOM     13  C   UNL     1      16.421  41.342  42.704  0.00  0.00    +0.000 A 
ATOM     14  C   UNL     1      16.552  40.509  43.833  0.00  0.00    +0.000 A 
ATOM     15  C   UNL     1      15.913  41.059  44.938  0.00  0.00    +0.000 A 
ATOM     16  C   UNL     1      15.861  40.492  46.180  0.00  0.00    +0.000 A 
ATOM     17  N   UNL     1      15.140  41.372  46.931  0.00  0.00    +0.000 N 
ATOM     18  N   UNL     1      14.723  42.469  46.264  0.00  0.00    +0.000 NA
ATOM     19  C   UNL     1      15.190  42.308  45.006  0.00  0.00    +0.000 A 
ATOM     20  H   UNL     1      14.893  41.288  47.913  0.00  0.00    +0.000 HD
ENDBRANCH   8  11
ENDBRANCH   4   7
BRANCH   1  22
ATOM     21  C   UNL     1      10.941  50.096  47.214  0.00  0.00    +0.000 C 
ATOM     22  O   UNL     1      11.882  50.023  46.152  0.00  0.00    +0.000 OA
ENDBRANCH   1  22
BRANCH   6  23
ATOM     23  C   UNL     1      13.774  50.004  44.071  0.00  0.00    +0.000 C 
BRANCH  23  24
ATOM     24  C   UNL     1      14.979  50.751  44.598  0.00  0.00    +0.000 A 
ATOM     25  C   UNL     1      16.262  50.469  44.109  0.00  0.00    +0.000 A 
ATOM     26  C   UNL     1      17.376  51.151  44.602  0.00  0.00    +0.000 A 
ATOM     27  C   UNL     1      17.219  52.117  45.594  0.00  0.00    +0.000 A 
ATOM     28  C   UNL     1      15.951  52.401  46.094  0.00  0.00    +0.000 A 
ATOM     29  C   UNL     1      14.836  51.721  45.601  0.00  0.00    +0.000 A 
ENDBRANCH  23  24
ENDBRANCH   6  23
TORSDOF 5
ENDMDL
