MODEL 1
REMARK VINA RESULT:    -5.415      0.000      0.000
REMARK INTER + INTRA:         -14.736
REMARK INTER:                 -11.247
REMARK INTRA:                  -3.489
REMARK UNBOUND:                -5.838
REMARK  Name = 
REMARK  11 active torsions:
REMARK  status: ('A' for Active; 'I' for Inactive)
REMARK    1  A    between atoms: C_2  and  O_3
REMARK    2  A    between atoms: C_2  and  O_11
REMARK    3  A    between atoms: O_3  and  C_4
REMARK    4  A    between atoms: C_4  and  C_5
REMARK    5  A    between atoms: O_11  and  C_12
REMARK    6  A    between atoms: C_15  and  C_16
REMARK    7  A    between atoms: C_16  and  C_17
REMARK    8  A    between atoms: C_17  and  N_18
REMARK    9  A    between atoms: C_21  and  N_22
REMARK   10  A    between atoms: N_31  and  C_32
REMARK   11  A    between atoms: C_32  and  C_33
REMARK                            x       y       z     vdW  Elec       q    Type
REMARK                         _______ _______ _______ _____ _____    ______ ____
ROOT
ATOM      1  N   UNL     1      15.767  38.408  46.010  0.00  0.00    +0.000 NA
ATOM      2  C   UNL     1      14.692  37.815  46.820  0.00  0.00    +0.000 C 
ATOM      3  C   UNL     1      14.610  38.404  48.223  0.00  0.00    +0.000 C 
ATOM      4  C   UNL     1      15.904  38.135  49.011  0.00  0.00    +0.000 C 
ATOM      5  C   UNL     1      17.112  37.983  48.076  0.00  0.00    +0.000 C 
ATOM      6  C   UNL     1      16.933  38.820  46.811  0.00  0.00    +0.000 C 
ENDROOT
BRANCH   4   7
ATOM      7  N   UNL     1      16.126  39.236  49.963  0.00  0.00    +0.000 N 
ATOM      8  C   UNL     1      16.419  38.916  51.247  0.00  0.00    +0.000 A 
ATOM      9  N   UNL     1      16.532  37.719  51.770  0.00  0.00    +0.000 NA
ATOM     10  C   UNL     1      16.809  37.910  53.098  0.00  0.00    +0.000 A 
ATOM     11  C   UNL     1      17.011  36.960  54.110  0.00  0.00    +0.000 A 
ATOM     12  C   UNL     1      17.290  37.404  55.407  0.00  0.00    +0.000 A 
ATOM     13  C   UNL     1      17.369  38.767  55.692  0.00  0.00    +0.000 A 
ATOM     14  C   UNL     1      17.174  39.731  54.695  0.00  0.00    +0.000 A 
ATOM     15  C   UNL     1      16.892  39.265  53.402  0.00  0.00    +0.000 A 
ATOM     16  N   UNL     1      16.668  39.890  52.194  0.00  0.00    +0.000 N 
ATOM     17  H   UNL     1      15.468  40.003  49.846  0.00  0.00    +0.000 HD
BRANCH  16  18
ATOM     18  C   UNL     1      16.862  41.304  51.924  0.00  0.00    +0.000 C 
BRANCH  18  19
ATOM     19  C   UNL     1      15.798  42.176  52.547  0.00  0.00    +0.000 A 
ATOM     20  C   UNL     1      16.101  43.474  52.993  0.00  0.00    +0.000 A 
ATOM     21  C   UNL     1      15.101  44.292  53.524  0.00  0.00    +0.000 A 
ATOM     22  C   UNL     1      13.797  43.818  53.608  0.00  0.00    +0.000 A 
ATOM     23  F   UNL     1      12.838  44.611  54.105  0.00  0.00    +0.000 F 
ATOM     24  C   UNL     1      13.475  42.535  53.179  0.00  0.00    +0.000 A 
ATOM     25  C   UNL     1      14.473  41.715  52.646  0.00  0.00    +0.000 A 
ENDBRANCH  18  19
ENDBRANCH  16  18
ENDBRANCH   4   7
BRANCH   1  26
ATOM     26  C   UNL     1      15.263  39.496  45.149  0.00  0.00    +0.000 C 
BRANCH  26  27
ATOM     27  C   UNL     1      16.193  40.715  44.976  0.00  0.00    +0.000 C 
BRANCH  27  31
ATOM     28  C   UNL     1      15.236  43.232  41.616  0.00  0.00    +0.000 A 
ATOM     29  C   UNL     1      14.765  41.924  41.650  0.00  0.00    +0.000 A 
ATOM     30  C   UNL     1      15.090  41.109  42.736  0.00  0.00    +0.000 A 
ATOM     31  C   UNL     1      15.878  41.601  43.791  0.00  0.00    +0.000 A 
ATOM     32  C   UNL     1      16.323  42.931  43.742  0.00  0.00    +0.000 A 
ATOM     33  C   UNL     1      16.000  43.751  42.658  0.00  0.00    +0.000 A 
BRANCH  28  34
ATOM     34  O   UNL     1      14.861  44.069  40.565  0.00  0.00    +0.000 OA
BRANCH  34  36
ATOM     35  O   UNL     1      12.682  43.862  39.747  0.00  0.00    +0.000 OA
ATOM     36  C   UNL     1      13.500  44.320  40.532  0.00  0.00    +0.000 C 
BRANCH  36  37
ATOM     37  O   UNL     1      13.211  45.180  41.544  0.00  0.00    +0.000 OA
BRANCH  37  38
ATOM     38  C   UNL     1      12.065  44.797  42.303  0.00  0.00    +0.000 C 
BRANCH  38  39
ATOM     39  C   UNL     1      12.530  44.333  43.660  0.00  0.00    +0.000 A 
ATOM     40  C   UNL     1      13.273  45.187  44.488  0.00  0.00    +0.000 A 
ATOM     41  C   UNL     1      13.708  44.754  45.742  0.00  0.00    +0.000 A 
ATOM     42  C   UNL     1      13.413  43.463  46.176  0.00  0.00    +0.000 A 
ATOM     43  C   UNL     1      12.689  42.601  45.354  0.00  0.00    +0.000 A 
ATOM     44  C   UNL     1      12.253  43.031  44.100  0.00  0.00    +0.000 A 
ENDBRANCH  38  39
ENDBRANCH  37  38
ENDBRANCH  36  37
ENDBRANCH  34  36
ENDBRANCH  28  34
ENDBRANCH  27  31
ENDBRANCH  26  27
ENDBRANCH   1  26
TORSDOF 11
ENDMDL
MODEL 2
REMARK VINA RESULT:    -5.196      2.994      5.389
REMARK INTER + INTRA:         -14.376
REMARK INTER:                  -8.535
REMARK INTRA:                  -5.841
REMARK UNBOUND:                -5.838
REMARK  Name = 
REMARK  11 active torsions:
REMARK  status: ('A' for Active; 'I' for Inactive)
REMARK    1  A    between atoms: C_2  and  O_3
REMARK    2  A    between atoms: C_2  and  O_11
REMARK    3  A    between atoms: O_3  and  C_4
REMARK    4  A    between atoms: C_4  and  C_5
REMARK    5  A    between atoms: O_11  and  C_12
REMARK    6  A    between atoms: C_15  and  C_16
REMARK    7  A    between atoms: C_16  and  C_17
REMARK    8  A    between atoms: C_17  and  N_18
REMARK    9  A    between atoms: C_21  and  N_22
REMARK   10  A    between atoms: N_31  and  C_32
REMARK   11  A    between atoms: C_32  and  C_33
REMARK                            x       y       z     vdW  Elec       q    Type
REMARK                         _______ _______ _______ _____ _____    ______ ____
ROOT
ATOM      1  N   UNL     1      10.090  41.341  48.471  0.00  0.00    +0.000 NA
ATOM      2  C   UNL     1      10.777  41.994  49.595  0.00  0.00    +0.000 C 
ATOM      3  C   UNL     1      12.105  41.333  49.944  0.00  0.00    +0.000 C 
ATOM      4  C   UNL     1      11.896  39.875  50.391  0.00  0.00    +0.000 C 
ATOM      5  C   UNL     1      10.629  39.272  49.768  0.00  0.00    +0.000 C 
ATOM      6  C   UNL     1      10.342  39.892  48.402  0.00  0.00    +0.000 C 
ENDROOT
BRANCH   4   7
ATOM      7  N   UNL     1      13.080  39.082  50.019  0.00  0.00    +0.000 N 
ATOM      8  C   UNL     1      14.225  39.287  50.713  0.00  0.00    +0.000 A 
ATOM      9  N   UNL     1      14.425  40.125  51.702  0.00  0.00    +0.000 NA
ATOM     10  C   UNL     1      15.742  39.988  52.054  0.00  0.00    +0.000 A 
ATOM     11  C   UNL     1      16.472  40.660  53.045  0.00  0.00    +0.000 A 
ATOM     12  C   UNL     1      17.823  40.339  53.224  0.00  0.00    +0.000 A 
ATOM     13  C   UNL     1      18.434  39.366  52.433  0.00  0.00    +0.000 A 
ATOM     14  C   UNL     1      17.721  38.681  51.441  0.00  0.00    +0.000 A 
ATOM     15  C   UNL     1      16.371  39.020  51.276  0.00  0.00    +0.000 A 
ATOM     16  N   UNL     1      15.370  38.565  50.444  0.00  0.00    +0.000 N 
ATOM     17  H   UNL     1      13.193  38.984  49.012  0.00  0.00    +0.000 HD
BRANCH  16  18
ATOM     18  C   UNL     1      15.453  37.396  49.584  0.00  0.00    +0.000 C 
BRANCH  18  19
ATOM     19  C   UNL     1      15.904  37.725  48.181  0.00  0.00    +0.000 A 
ATOM     20  C   UNL     1      16.982  38.599  47.958  0.00  0.00    +0.000 A 
ATOM     21  C   UNL     1      17.426  38.860  46.660  0.00  0.00    +0.000 A 
ATOM     22  C   UNL     1      16.796  38.249  45.583  0.00  0.00    +0.000 A 
ATOM     23  F   UNL     1      17.233  38.492  44.339  0.00  0.00    +0.000 F 
ATOM     24  C   UNL     1      15.723  37.387  45.778  0.00  0.00    +0.000 A 
ATOM     25  C   UNL     1      15.278  37.122  47.076  0.00  0.00    +0.000 A 
ENDBRANCH  18  19
ENDBRANCH  16  18
ENDBRANCH   4   7
BRANCH   1  26
ATOM     26  C   UNL     1      10.368  42.023  47.192  0.00  0.00    +0.000 C 
BRANCH  26  27
ATOM     27  C   UNL     1      10.974  43.439  47.292  0.00  0.00    +0.000 C 
BRANCH  27  31
ATOM     28  C   UNL     1      13.584  44.543  44.050  0.00  0.00    +0.000 A 
ATOM     29  C   UNL     1      13.826  45.041  45.326  0.00  0.00    +0.000 A 
ATOM     30  C   UNL     1      12.968  44.690  46.370  0.00  0.00    +0.000 A 
ATOM     31  C   UNL     1      11.874  43.836  46.143  0.00  0.00    +0.000 A 
ATOM     32  C   UNL     1      11.665  43.331  44.851  0.00  0.00    +0.000 A 
ATOM     33  C   UNL     1      12.521  43.678  43.803  0.00  0.00    +0.000 A 
BRANCH  28  34
ATOM     34  O   UNL     1      14.474  44.839  43.018  0.00  0.00    +0.000 OA
BRANCH  34  36
ATOM     35  O   UNL     1      15.042  43.158  41.497  0.00  0.00    +0.000 OA
ATOM     36  C   UNL     1      15.172  43.730  42.570  0.00  0.00    +0.000 C 
BRANCH  36  37
ATOM     37  O   UNL     1      16.051  43.372  43.542  0.00  0.00    +0.000 OA
BRANCH  37  38
ATOM     38  C   UNL     1      16.227  41.960  43.654  0.00  0.00    +0.000 C 
BRANCH  38  39
ATOM     39  C   UNL     1      15.302  41.452  44.730  0.00  0.00    +0.000 A 
ATOM     40  C   UNL     1      15.470  41.856  46.062  0.00  0.00    +0.000 A 
ATOM     41  C   UNL     1      14.615  41.380  47.058  0.00  0.00    +0.000 A 
ATOM     42  C   UNL     1      13.593  40.490  46.735  0.00  0.00    +0.000 A 
ATOM     43  C   UNL     1      13.427  40.070  45.416  0.00  0.00    +0.000 A 
ATOM     44  C   UNL     1      14.280  40.544  44.418  0.00  0.00    +0.000 A 
ENDBRANCH  38  39
ENDBRANCH  37  38
ENDBRANCH  36  37
ENDBRANCH  34  36
ENDBRANCH  28  34
ENDBRANCH  27  31
ENDBRANCH  26  27
ENDBRANCH   1  26
TORSDOF 11
ENDMDL
MODEL 3
REMARK VINA RESULT:    -5.070      3.666      6.231
REMARK INTER + INTRA:         -14.169
REMARK INTER:                  -8.330
REMARK INTRA:                  -5.838
REMARK UNBOUND:                -5.838
REMARK  Name = 
REMARK  11 active torsions:
REMARK  status: ('A' for Active; 'I' for Inactive)
REMARK    1  A    between atoms: C_2  and  O_3
REMARK    2  A    between atoms: C_2  and  O_11
REMARK    3  A    between atoms: O_3  and  C_4
REMARK    4  A    between atoms: C_4  and  C_5
REMARK    5  A    between atoms: O_11  and  C_12
REMARK    6  A    between atoms: C_15  and  C_16
REMARK    7  A    between atoms: C_16  and  C_17
REMARK    8  A    between atoms: C_17  and  N_18
REMARK    9  A    between atoms: C_21  and  N_22
REMARK   10  A    between atoms: N_31  and  C_32
REMARK   11  A    between atoms: C_32  and  C_33
REMARK                            x       y       z     vdW  Elec       q    Type
REMARK                         _______ _______ _______ _____ _____    ______ ____
ROOT
ATOM      1  N   UNL     1      12.373  39.845  49.014  0.00  0.00    +0.000 NA
ATOM      2  C   UNL     1      13.556  40.448  49.645  0.00  0.00    +0.000 C 
ATOM      3  C   UNL     1      14.835  39.661  49.384  0.00  0.00    +0.000 C 
ATOM      4  C   UNL     1      14.741  38.243  49.975  0.00  0.00    +0.000 C 
ATOM      5  C   UNL     1      13.286  37.760  50.051  0.00  0.00    +0.000 C 
ATOM      6  C   UNL     1      12.446  38.376  48.935  0.00  0.00    +0.000 C 
ENDROOT
BRANCH   4   7
ATOM      7  N   UNL     1      15.546  37.324  49.152  0.00  0.00    +0.000 N 
ATOM      8  C   UNL     1      16.800  37.028  49.572  0.00  0.00    +0.000 A 
ATOM      9  N   UNL     1      17.411  37.467  50.646  0.00  0.00    +0.000 NA
ATOM     10  C   UNL     1      18.663  36.912  50.623  0.00  0.00    +0.000 A 
ATOM     11  C   UNL     1      19.720  37.065  51.532  0.00  0.00    +0.000 A 
ATOM     12  C   UNL     1      20.919  36.382  51.295  0.00  0.00    +0.000 A 
ATOM     13  C   UNL     1      21.061  35.559  50.177  0.00  0.00    +0.000 A 
ATOM     14  C   UNL     1      20.015  35.390  49.261  0.00  0.00    +0.000 A 
ATOM     15  C   UNL     1      18.825  36.086  49.515  0.00  0.00    +0.000 A 
ATOM     16  N   UNL     1      17.607  36.154  48.872  0.00  0.00    +0.000 N 
ATOM     17  H   UNL     1      15.451  37.496  48.154  0.00  0.00    +0.000 HD
BRANCH  16  18
ATOM     18  C   UNL     1      17.181  35.302  47.774  0.00  0.00    +0.000 C 
BRANCH  18  19
ATOM     19  C   UNL     1      17.502  35.883  46.417  0.00  0.00    +0.000 A 
ATOM     20  C   UNL     1      16.717  35.566  45.295  0.00  0.00    +0.000 A 
ATOM     21  C   UNL     1      16.990  36.145  44.054  0.00  0.00    +0.000 A 
ATOM     22  C   UNL     1      18.044  37.042  43.930  0.00  0.00    +0.000 A 
ATOM     23  F   UNL     1      18.293  37.606  42.741  0.00  0.00    +0.000 F 
ATOM     24  C   UNL     1      18.838  37.366  45.025  0.00  0.00    +0.000 A 
ATOM     25  C   UNL     1      18.566  36.790  46.269  0.00  0.00    +0.000 A 
ENDBRANCH  18  19
ENDBRANCH  16  18
ENDBRANCH   4   7
BRANCH   1  26
ATOM     26  C   UNL     1      12.076  40.465  47.708  0.00  0.00    +0.000 C 
BRANCH  26  27
ATOM     27  C   UNL     1      12.464  41.952  47.556  0.00  0.00    +0.000 C 
BRANCH  27  31
ATOM     28  C   UNL     1      14.306  43.014  43.811  0.00  0.00    +0.000 A 
ATOM     29  C   UNL     1      13.068  42.380  43.811  0.00  0.00    +0.000 A 
ATOM     30  C   UNL     1      12.483  42.026  45.029  0.00  0.00    +0.000 A 
ATOM     31  C   UNL     1      13.128  42.311  46.245  0.00  0.00    +0.000 A 
ATOM     32  C   UNL     1      14.367  42.970  46.217  0.00  0.00    +0.000 A 
ATOM     33  C   UNL     1      14.957  43.327  45.002  0.00  0.00    +0.000 A 
BRANCH  28  34
ATOM     34  O   UNL     1      14.866  43.425  42.602  0.00  0.00    +0.000 OA
BRANCH  34  36
ATOM     35  O   UNL     1      14.733  41.986  40.765  0.00  0.00    +0.000 OA
ATOM     36  C   UNL     1      15.261  42.368  41.801  0.00  0.00    +0.000 C 
BRANCH  36  37
ATOM     37  O   UNL     1      16.363  41.808  42.365  0.00  0.00    +0.000 OA
BRANCH  37  38
ATOM     38  C   UNL     1      16.401  40.387  42.245  0.00  0.00    +0.000 C 
BRANCH  38  39
ATOM     39  C   UNL     1      15.801  39.791  43.493  0.00  0.00    +0.000 A 
ATOM     40  C   UNL     1      14.637  39.013  43.421  0.00  0.00    +0.000 A 
ATOM     41  C   UNL     1      14.079  38.466  44.579  0.00  0.00    +0.000 A 
ATOM     42  C   UNL     1      14.673  38.700  45.819  0.00  0.00    +0.000 A 
ATOM     43  C   UNL     1      15.822  39.485  45.902  0.00  0.00    +0.000 A 
ATOM     44  C   UNL     1      16.381  40.033  44.746  0.00  0.00    +0.000 A 
ENDBRANCH  38  39
ENDBRANCH  37  38
ENDBRANCH  36  37
ENDBRANCH  34  36
ENDBRANCH  28  34
ENDBRANCH  27  31
ENDBRANCH  26  27
ENDBRANCH   1  26
TORSDOF 11
ENDMDL
