MODEL 1
REMARK VINA RESULT:    -6.574      0.000      0.000
REMARK INTER + INTRA:         -10.125
REMARK INTER:                  -9.072
REMARK INTRA:                  -1.053
REMARK UNBOUND:                -1.053
REMARK  Name = 
REMARK  7 active torsions:
REMARK  status: ('A' for Active; 'I' for Inactive)
REMARK    1  A    between atoms: C_2  and  O_3
REMARK    2  A    between atoms: C_2  and  C_4
REMARK    3  A    between atoms: C_7  and  C_8
REMARK    4  A    between atoms: C_8  and  C_10
REMARK    5  A    between atoms: C_13  and  C_14
REMARK    6  A    between atoms: C_14  and  C_15
REMARK    7  A    between atoms: C_18  and  C_19
REMARK                            x       y       z     vdW  Elec       q    Type
REMARK                         _______ _______ _______ _____ _____    ______ ____
ROOT
ATOM      1  C   UNL     1      16.973  39.596  53.181  0.00  0.00    +0.000 A 
ATOM      2  C   UNL     1      17.470  40.037  51.951  0.00  0.00    +0.000 A 
ATOM      3  C   UNL     1      17.759  39.112  50.943  0.00  0.00    +0.000 A 
ATOM      4  C   UNL     1      17.540  37.741  51.148  0.00  0.00    +0.000 A 
ATOM      5  C   UNL     1      17.023  37.311  52.378  0.00  0.00    +0.000 A 
ATOM      6  C   UNL     1      16.734  38.233  53.386  0.00  0.00    +0.000 A 
ENDROOT
BRANCH   1   7
ATOM      7  C   UNL     1      16.638  40.544  54.273  0.00  0.00    +0.000 C 
ATOM      8  O   UNL     1      17.223  40.453  55.350  0.00  0.00    +0.000 OA
BRANCH   7  12
ATOM      9  C   UNL     1      13.634  43.576  53.851  0.00  0.00    +0.000 A 
ATOM     10  C   UNL     1      14.938  43.825  53.402  0.00  0.00    +0.000 A 
ATOM     11  C   UNL     1      15.929  42.846  53.531  0.00  0.00    +0.000 A 
ATOM     12  C   UNL     1      15.614  41.606  54.099  0.00  0.00    +0.000 A 
ATOM     13  C   UNL     1      14.317  41.364  54.567  0.00  0.00    +0.000 A 
ATOM     14  C   UNL     1      13.327  42.343  54.437  0.00  0.00    +0.000 A 
BRANCH   9  16
ATOM     15  O   UNL     1      11.431  44.480  53.506  0.00  0.00    +0.000 OA
ATOM     16  C   UNL     1      12.621  44.648  53.692  0.00  0.00    +0.000 C 
BRANCH  16  17
ATOM     17  O   UNL     1      13.151  45.882  53.775  0.00  0.00    +0.000 OA
ATOM     18  H   UNL     1      13.379  45.979  54.724  0.00  0.00    +0.000 HD
ENDBRANCH  16  17
ENDBRANCH   9  16
ENDBRANCH   7  12
ENDBRANCH   1   7
BRANCH   4  19
ATOM     19  C   UNL     1      17.842  36.742  50.052  0.00  0.00    +0.000 C 
BRANCH  19  20
ATOM     20  C   UNL     1      19.268  36.239  50.054  0.00  0.00    +0.000 A 
ATOM     21  C   UNL     1      19.754  35.472  48.986  0.00  0.00    +0.000 A 
ATOM     22  C   UNL     1      21.073  35.009  48.988  0.00  0.00    +0.000 A 
ATOM     23  C   UNL     1      21.930  35.299  50.060  0.00  0.00    +0.000 A 
ATOM     24  C   UNL     1      21.445  36.074  51.123  0.00  0.00    +0.000 A 
ATOM     25  C   UNL     1      20.127  36.537  51.120  0.00  0.00    +0.000 A 
BRANCH  23  26
ATOM     26  C   UNL     1      23.358  34.813  50.048  0.00  0.00    +0.000 C 
ATOM     27  F   UNL     1      23.688  34.073  51.143  0.00  0.00    +0.000 F 
ATOM     28  F   UNL     1      24.253  35.839  50.007  0.00  0.00    +0.000 F 
ATOM     29  F   UNL     1      23.644  34.027  48.971  0.00  0.00    +0.000 F 
ENDBRANCH  23  26
ENDBRANCH  19  20
ENDBRANCH   4  19
TORSDOF 7
ENDMDL
MODEL 2
REMARK VINA RESULT:    -6.566     10.048     12.220
REMARK INTER + INTRA:         -10.114
REMARK INTER:                  -9.393
REMARK INTRA:                  -0.721
REMARK UNBOUND:                -1.053
REMARK  Name = 
REMARK  7 active torsions:
REMARK  status: ('A' for Active; 'I' for Inactive)
REMARK    1  A    between atoms: C_2  and  O_3
REMARK    2  A    between atoms: C_2  and  C_4
REMARK    3  A    between atoms: C_7  and  C_8
REMARK    4  A    between atoms: C_8  and  C_10
REMARK    5  A    between atoms: C_13  and  C_14
REMARK    6  A    between atoms: C_14  and  C_15
REMARK    7  A    between atoms: C_18  and  C_19
REMARK                            x       y       z     vdW  Elec       q    Type
REMARK                         _______ _______ _______ _____ _____    ______ ____
ROOT
ATOM      1  C   UNL     1      12.985  48.675  45.845  0.00  0.00    +0.000 A 
ATOM      2  C   UNL     1      11.866  48.134  46.487  0.00  0.00    +0.000 A 
ATOM      3  C   UNL     1      11.774  46.753  46.683  0.00  0.00    +0.000 A 
ATOM      4  C   UNL     1      12.803  45.900  46.255  0.00  0.00    +0.000 A 
ATOM      5  C   UNL     1      13.930  46.454  45.631  0.00  0.00    +0.000 A 
ATOM      6  C   UNL     1      14.024  47.833  45.433  0.00  0.00    +0.000 A 
ENDROOT
BRANCH   1   7
ATOM      7  C   UNL     1      13.133  50.136  45.630  0.00  0.00    +0.000 C 
ATOM      8  O   UNL     1      12.138  50.855  45.683  0.00  0.00    +0.000 OA
BRANCH   7  12
ATOM      9  C   UNL     1      16.963  51.937  44.933  0.00  0.00    +0.000 A 
ATOM     10  C   UNL     1      16.482  50.964  44.047  0.00  0.00    +0.000 A 
ATOM     11  C   UNL     1      15.235  50.368  44.259  0.00  0.00    +0.000 A 
ATOM     12  C   UNL     1      14.455  50.755  45.354  0.00  0.00    +0.000 A 
ATOM     13  C   UNL     1      14.942  51.712  46.253  0.00  0.00    +0.000 A 
ATOM     14  C   UNL     1      16.189  52.307  46.040  0.00  0.00    +0.000 A 
BRANCH   9  16
ATOM     15  O   UNL     1      18.693  52.919  43.581  0.00  0.00    +0.000 OA
ATOM     16  C   UNL     1      18.292  52.536  44.664  0.00  0.00    +0.000 C 
BRANCH  16  17
ATOM     17  O   UNL     1      19.055  52.629  45.767  0.00  0.00    +0.000 OA
ATOM     18  H   UNL     1      18.570  52.101  46.437  0.00  0.00    +0.000 HD
ENDBRANCH  16  17
ENDBRANCH   9  16
ENDBRANCH   7  12
ENDBRANCH   1   7
BRANCH   4  19
ATOM     19  C   UNL     1      12.707  44.407  46.479  0.00  0.00    +0.000 C 
BRANCH  19  20
ATOM     20  C   UNL     1      13.509  43.584  45.495  0.00  0.00    +0.000 A 
ATOM     21  C   UNL     1      12.973  43.250  44.244  0.00  0.00    +0.000 A 
ATOM     22  C   UNL     1      13.715  42.491  43.335  0.00  0.00    +0.000 A 
ATOM     23  C   UNL     1      15.006  42.047  43.660  0.00  0.00    +0.000 A 
ATOM     24  C   UNL     1      15.543  42.392  44.908  0.00  0.00    +0.000 A 
ATOM     25  C   UNL     1      14.802  43.151  45.817  0.00  0.00    +0.000 A 
BRANCH  23  26
ATOM     26  C   UNL     1      15.810  41.246  42.668  0.00  0.00    +0.000 C 
ATOM     27  F   UNL     1      17.154  41.443  42.773  0.00  0.00    +0.000 F 
ATOM     28  F   UNL     1      15.488  41.547  41.379  0.00  0.00    +0.000 F 
ATOM     29  F   UNL     1      15.623  39.901  42.794  0.00  0.00    +0.000 F 
ENDBRANCH  23  26
ENDBRANCH  19  20
ENDBRANCH   4  19
TORSDOF 7
ENDMDL
MODEL 3
REMARK VINA RESULT:    -6.533      6.350     10.325
REMARK INTER + INTRA:         -10.068
REMARK INTER:                  -8.907
REMARK INTRA:                  -1.161
REMARK UNBOUND:                -1.053
REMARK  Name = 
REMARK  7 active torsions:
REMARK  status: ('A' for Active; 'I' for Inactive)
REMARK    1  A    between atoms: C_2  and  O_3
REMARK    2  A    between atoms: C_2  and  C_4
REMARK    3  A    between atoms: C_7  and  C_8
REMARK    4  A    between atoms: C_8  and  C_10
REMARK    5  A    between atoms: C_13  and  C_14
REMARK    6  A    between atoms: C_14  and  C_15
REMARK    7  A    between atoms: C_18  and  C_19
REMARK                            x       y       z     vdW  Elec       q    Type
REMARK                         _______ _______ _______ _____ _____    ______ ____
ROOT
ATOM      1  C   UNL     1      17.880  36.858  53.761  0.00  0.00    +0.000 A 
ATOM      2  C   UNL     1      18.062  36.988  52.380  0.00  0.00    +0.000 A 
ATOM      3  C   UNL     1      17.875  38.230  51.766  0.00  0.00    +0.000 A 
ATOM      4  C   UNL     1      17.520  39.356  52.525  0.00  0.00    +0.000 A 
ATOM      5  C   UNL     1      17.359  39.219  53.911  0.00  0.00    +0.000 A 
ATOM      6  C   UNL     1      17.545  37.980  54.527  0.00  0.00    +0.000 A 
ENDROOT
BRANCH   1   7
ATOM      7  C   UNL     1      18.083  35.562  54.457  0.00  0.00    +0.000 C 
ATOM      8  O   UNL     1      17.110  34.850  54.696  0.00  0.00    +0.000 OA
BRANCH   7  12
ATOM      9  C   UNL     1      22.019  34.267  55.562  0.00  0.00    +0.000 A 
ATOM     10  C   UNL     1      21.091  34.594  56.560  0.00  0.00    +0.000 A 
ATOM     11  C   UNL     1      19.802  35.016  56.216  0.00  0.00    +0.000 A 
ATOM     12  C   UNL     1      19.433  35.100  54.869  0.00  0.00    +0.000 A 
ATOM     13  C   UNL     1      20.365  34.795  53.870  0.00  0.00    +0.000 A 
ATOM     14  C   UNL     1      21.653  34.373  54.215  0.00  0.00    +0.000 A 
BRANCH   9  16
ATOM     15  O   UNL     1      23.833  33.913  57.102  0.00  0.00    +0.000 OA
ATOM     16  C   UNL     1      23.372  33.826  55.980  0.00  0.00    +0.000 C 
BRANCH  16  17
ATOM     17  O   UNL     1      24.082  33.295  54.969  0.00  0.00    +0.000 OA
ATOM     18  H   UNL     1      23.688  33.696  54.165  0.00  0.00    +0.000 HD
ENDBRANCH  16  17
ENDBRANCH   9  16
ENDBRANCH   7  12
ENDBRANCH   1   7
BRANCH   4  19
ATOM     19  C   UNL     1      17.330  40.703  51.861  0.00  0.00    +0.000 C 
BRANCH  19  20
ATOM     20  C   UNL     1      16.127  41.471  52.361  0.00  0.00    +0.000 A 
ATOM     21  C   UNL     1      14.833  40.966  52.177  0.00  0.00    +0.000 A 
ATOM     22  C   UNL     1      13.722  41.677  52.641  0.00  0.00    +0.000 A 
ATOM     23  C   UNL     1      13.883  42.908  53.293  0.00  0.00    +0.000 A 
ATOM     24  C   UNL     1      15.179  43.406  53.485  0.00  0.00    +0.000 A 
ATOM     25  C   UNL     1      16.289  42.696  53.022  0.00  0.00    +0.000 A 
BRANCH  23  26
ATOM     26  C   UNL     1      12.682  43.660  53.809  0.00  0.00    +0.000 C 
ATOM     27  F   UNL     1      12.332  43.317  55.080  0.00  0.00    +0.000 F 
ATOM     28  F   UNL     1      11.573  43.449  53.046  0.00  0.00    +0.000 F 
ATOM     29  F   UNL     1      12.868  45.011  53.828  0.00  0.00    +0.000 F 
ENDBRANCH  23  26
ENDBRANCH  19  20
ENDBRANCH   4  19
TORSDOF 7
ENDMDL
