MODEL 1
REMARK VINA RESULT:    -6.795      0.000      0.000
REMARK INTER + INTRA:         -10.164
REMARK INTER:                  -8.763
REMARK INTRA:                  -1.401
REMARK UNBOUND:                -1.184
REMARK  Name = 
REMARK  7 active torsions:
REMARK  status: ('A' for Active; 'I' for Inactive)
REMARK    1  A    between atoms: C_1  and  O_2
REMARK    2  A    between atoms: O_2  and  C_3
REMARK    3  A    between atoms: C_7  and  O_8
REMARK    4  A    between atoms: N_12  and  C_13
REMARK    5  A    between atoms: C_13  and  C_14
REMARK    6  A    between atoms: C_17  and  C_18
REMARK    7  A    between atoms: C_23  and  C_24
REMARK                            x       y       z     vdW  Elec       q    Type
REMARK                         _______ _______ _______ _____ _____    ______ ____
ROOT
ATOM      1  C   UNL     1      18.730  35.941  51.508  0.00  0.00    +0.000 A 
ATOM      2  C   UNL     1      19.922  36.662  51.386  0.00  0.00    +0.000 A 
ATOM      3  C   UNL     1      21.159  36.017  51.477  0.00  0.00    +0.000 A 
ATOM      4  C   UNL     1      21.238  34.632  51.680  0.00  0.00    +0.000 A 
ATOM      5  C   UNL     1      20.041  33.909  51.783  0.00  0.00    +0.000 A 
ATOM      6  C   UNL     1      18.803  34.552  51.686  0.00  0.00    +0.000 A 
ENDROOT
BRANCH   4   7
ATOM      7  C   UNL     1      22.541  33.957  51.808  0.00  0.00    +0.000 A 
ATOM      8  C   UNL     1      23.277  33.711  50.629  0.00  0.00    +0.000 A 
ATOM      9  C   UNL     1      24.544  33.128  50.667  0.00  0.00    +0.000 A 
ATOM     10  C   UNL     1      25.109  32.781  51.887  0.00  0.00    +0.000 A 
ATOM     11  C   UNL     1      24.400  33.008  53.067  0.00  0.00    +0.000 A 
ATOM     12  C   UNL     1      23.113  33.583  53.046  0.00  0.00    +0.000 A 
BRANCH  12  13
ATOM     13  C   UNL     1      22.419  33.752  54.319  0.00  0.00    +0.000 A 
ATOM     14  N   UNL     1      21.480  32.870  54.799  0.00  0.00    +0.000 NA
ATOM     15  N   UNL     1      21.093  33.323  55.983  0.00  0.00    +0.000 NA
ATOM     16  N   UNL     1      21.808  34.435  56.166  0.00  0.00    +0.000 N 
ATOM     17  N   UNL     1      22.661  34.758  55.184  0.00  0.00    +0.000 NA
ATOM     18  H   UNL     1      21.710  34.997  57.006  0.00  0.00    +0.000 HD
ENDBRANCH  12  13
ENDBRANCH   4   7
BRANCH   1  19
ATOM     19  C   UNL     1      17.378  36.617  51.394  0.00  0.00    +0.000 C 
BRANCH  19  28
ATOM     20  C   UNL     1      17.254  37.483  55.650  0.00  0.00    +0.000 A 
ATOM     21  C   UNL     1      17.180  38.804  56.081  0.00  0.00    +0.000 A 
ATOM     22  C   UNL     1      17.165  39.844  55.154  0.00  0.00    +0.000 A 
ATOM     23  C   UNL     1      17.223  39.577  53.778  0.00  0.00    +0.000 A 
ATOM     24  C   UNL     1      17.220  40.670  52.800  0.00  0.00    +0.000 A 
ATOM     25  C   UNL     1      17.275  40.405  51.493  0.00  0.00    +0.000 A 
ATOM     26  C   UNL     1      17.335  39.018  50.985  0.00  0.00    +0.000 A 
ATOM     27  O   UNL     1      17.381  38.862  49.766  0.00  0.00    +0.000 OA
ATOM     28  N   UNL     1      17.337  37.986  51.915  0.00  0.00    +0.000 N 
ATOM     29  C   UNL     1      17.285  38.244  53.328  0.00  0.00    +0.000 A 
ATOM     30  C   UNL     1      17.292  37.208  54.280  0.00  0.00    +0.000 A 
BRANCH  20  32
ATOM     31  C   UNL     1      18.392  35.677  56.699  0.00  0.00    +0.000 C 
ATOM     32  O   UNL     1      17.274  36.555  56.656  0.00  0.00    +0.000 OA
ENDBRANCH  20  32
BRANCH  24  33
ATOM     33  O   UNL     1      17.162  41.954  53.300  0.00  0.00    +0.000 OA
ATOM     34  H   UNL     1      18.064  42.255  53.504  0.00  0.00    +0.000 HD
ENDBRANCH  24  33
ENDBRANCH  19  28
ENDBRANCH   1  19
TORSDOF 6
ENDMDL
MODEL 2
REMARK VINA RESULT:    -6.716     12.138     15.678
REMARK INTER + INTRA:         -10.060
REMARK INTER:                  -8.775
REMARK INTRA:                  -1.285
REMARK UNBOUND:                -1.184
REMARK  Name = 
REMARK  7 active torsions:
REMARK  status: ('A' for Active; 'I' for Inactive)
REMARK    1  A    between atoms: C_1  and  O_2
REMARK    2  A    between atoms: O_2  and  C_3
REMARK    3  A    between atoms: C_7  and  O_8
REMARK    4  A    between atoms: N_12  and  C_13
REMARK    5  A    between atoms: C_13  and  C_14
REMARK    6  A    between atoms: C_17  and  C_18
REMARK    7  A    between atoms: C_23  and  C_24
REMARK                            x       y       z     vdW  Elec       q    Type
REMARK                         _______ _______ _______ _____ _____    ______ ____
ROOT
ATOM      1  C   UNL     1      12.965  47.940  44.614  0.00  0.00    +0.000 A 
ATOM      2  C   UNL     1      14.006  47.491  45.434  0.00  0.00    +0.000 A 
ATOM      3  C   UNL     1      14.100  46.143  45.794  0.00  0.00    +0.000 A 
ATOM      4  C   UNL     1      13.164  45.206  45.335  0.00  0.00    +0.000 A 
ATOM      5  C   UNL     1      12.133  45.655  44.498  0.00  0.00    +0.000 A 
ATOM      6  C   UNL     1      12.041  47.002  44.132  0.00  0.00    +0.000 A 
ENDROOT
BRANCH   4   7
ATOM      7  C   UNL     1      13.244  43.792  45.742  0.00  0.00    +0.000 A 
ATOM      8  C   UNL     1      12.463  43.376  46.842  0.00  0.00    +0.000 A 
ATOM      9  C   UNL     1      12.437  42.044  47.256  0.00  0.00    +0.000 A 
ATOM     10  C   UNL     1      13.188  41.094  46.576  0.00  0.00    +0.000 A 
ATOM     11  C   UNL     1      13.973  41.480  45.490  0.00  0.00    +0.000 A 
ATOM     12  C   UNL     1      14.023  42.823  45.066  0.00  0.00    +0.000 A 
BRANCH  12  13
ATOM     13  C   UNL     1      14.898  43.156  43.946  0.00  0.00    +0.000 A 
ATOM     14  N   UNL     1      14.443  43.416  42.675  0.00  0.00    +0.000 NA
ATOM     15  N   UNL     1      15.505  43.709  41.938  0.00  0.00    +0.000 NA
ATOM     16  N   UNL     1      16.535  43.621  42.783  0.00  0.00    +0.000 N 
ATOM     17  N   UNL     1      16.235  43.295  44.049  0.00  0.00    +0.000 NA
ATOM     18  H   UNL     1      17.488  43.796  42.479  0.00  0.00    +0.000 HD
ENDBRANCH  12  13
ENDBRANCH   4   7
BRANCH   1  19
ATOM     19  C   UNL     1      12.855  49.392  44.196  0.00  0.00    +0.000 C 
BRANCH  19  28
ATOM     20  C   UNL     1      16.789  51.223  43.960  0.00  0.00    +0.000 A 
ATOM     21  C   UNL     1      17.200  52.099  44.960  0.00  0.00    +0.000 A 
ATOM     22  C   UNL     1      16.348  52.403  46.020  0.00  0.00    +0.000 A 
ATOM     23  C   UNL     1      15.069  51.832  46.096  0.00  0.00    +0.000 A 
ATOM     24  C   UNL     1      14.166  52.159  47.204  0.00  0.00    +0.000 A 
ATOM     25  C   UNL     1      12.951  51.610  47.268  0.00  0.00    +0.000 A 
ATOM     26  C   UNL     1      12.475  50.659  46.242  0.00  0.00    +0.000 A 
ATOM     27  O   UNL     1      11.343  50.197  46.377  0.00  0.00    +0.000 OA
ATOM     28  N   UNL     1      13.335  50.351  45.195  0.00  0.00    +0.000 N 
ATOM     29  C   UNL     1      14.645  50.933  45.099  0.00  0.00    +0.000 A 
ATOM     30  C   UNL     1      15.523  50.634  44.040  0.00  0.00    +0.000 A 
BRANCH  20  32
ATOM     31  C   UNL     1      19.075  51.234  43.305  0.00  0.00    +0.000 C 
ATOM     32  O   UNL     1      17.710  51.015  42.970  0.00  0.00    +0.000 OA
ENDBRANCH  20  32
BRANCH  24  33
ATOM     33  O   UNL     1      14.633  53.048  48.149  0.00  0.00    +0.000 OA
ATOM     34  H   UNL     1      13.944  53.710  48.330  0.00  0.00    +0.000 HD
ENDBRANCH  24  33
ENDBRANCH  19  28
ENDBRANCH   1  19
TORSDOF 6
ENDMDL
MODEL 3
REMARK VINA RESULT:    -6.380      5.576      8.914
REMARK INTER + INTRA:          -9.615
REMARK INTER:                  -8.431
REMARK INTRA:                  -1.184
REMARK UNBOUND:                -1.184
REMARK  Name = 
REMARK  7 active torsions:
REMARK  status: ('A' for Active; 'I' for Inactive)
REMARK    1  A    between atoms: C_1  and  O_2
REMARK    2  A    between atoms: O_2  and  C_3
REMARK    3  A    between atoms: C_7  and  O_8
REMARK    4  A    between atoms: N_12  and  C_13
REMARK    5  A    between atoms: C_13  and  C_14
REMARK    6  A    between atoms: C_17  and  C_18
REMARK    7  A    between atoms: C_23  and  C_24
REMARK                            x       y       z     vdW  Elec       q    Type
REMARK                         _______ _______ _______ _____ _____    ______ ____
ROOT
ATOM      1  C   UNL     1      15.017  38.987  46.937  0.00  0.00    +0.000 A 
ATOM      2  C   UNL     1      14.589  38.138  47.964  0.00  0.00    +0.000 A 
ATOM      3  C   UNL     1      15.501  37.620  48.888  0.00  0.00    +0.000 A 
ATOM      4  C   UNL     1      16.863  37.947  48.820  0.00  0.00    +0.000 A 
ATOM      5  C   UNL     1      17.286  38.813  47.801  0.00  0.00    +0.000 A 
ATOM      6  C   UNL     1      16.373  39.336  46.880  0.00  0.00    +0.000 A 
ENDROOT
BRANCH   4   7
ATOM      7  C   UNL     1      17.829  37.376  49.774  0.00  0.00    +0.000 A 
ATOM      8  C   UNL     1      18.568  36.243  49.367  0.00  0.00    +0.000 A 
ATOM      9  C   UNL     1      19.543  35.675  50.188  0.00  0.00    +0.000 A 
ATOM     10  C   UNL     1      19.807  36.230  51.433  0.00  0.00    +0.000 A 
ATOM     11  C   UNL     1      19.088  37.344  51.861  0.00  0.00    +0.000 A 
ATOM     12  C   UNL     1      18.089  37.923  51.052  0.00  0.00    +0.000 A 
BRANCH  12  13
ATOM     13  C   UNL     1      17.351  39.064  51.586  0.00  0.00    +0.000 A 
ATOM     14  N   UNL     1      16.148  38.955  52.241  0.00  0.00    +0.000 NA
ATOM     15  N   UNL     1      15.796  40.179  52.609  0.00  0.00    +0.000 NA
ATOM     16  N   UNL     1      16.788  40.958  52.174  0.00  0.00    +0.000 N 
ATOM     17  N   UNL     1      17.795  40.337  51.542  0.00  0.00    +0.000 NA
ATOM     18  H   UNL     1      16.779  41.963  52.321  0.00  0.00    +0.000 HD
ENDBRANCH  12  13
ENDBRANCH   4   7
BRANCH   1  19
ATOM     19  C   UNL     1      14.042  39.574  45.936  0.00  0.00    +0.000 C 
BRANCH  19  28
ATOM     20  C   UNL     1      16.620  41.346  42.920  0.00  0.00    +0.000 A 
ATOM     21  C   UNL     1      16.712  42.731  42.822  0.00  0.00    +0.000 A 
ATOM     22  C   UNL     1      15.966  43.546  43.672  0.00  0.00    +0.000 A 
ATOM     23  C   UNL     1      15.116  42.984  44.637  0.00  0.00    +0.000 A 
ATOM     24  C   UNL     1      14.322  43.838  45.525  0.00  0.00    +0.000 A 
ATOM     25  C   UNL     1      13.517  43.294  46.441  0.00  0.00    +0.000 A 
ATOM     26  C   UNL     1      13.400  41.829  46.598  0.00  0.00    +0.000 A 
ATOM     27  O   UNL     1      12.637  41.410  47.467  0.00  0.00    +0.000 OA
ATOM     28  N   UNL     1      14.156  41.024  45.755  0.00  0.00    +0.000 N 
ATOM     29  C   UNL     1      15.025  41.584  44.757  0.00  0.00    +0.000 A 
ATOM     30  C   UNL     1      15.791  40.780  43.892  0.00  0.00    +0.000 A 
BRANCH  20  32
ATOM     31  C   UNL     1      17.390  39.240  42.128  0.00  0.00    +0.000 C 
ATOM     32  O   UNL     1      17.391  40.659  42.023  0.00  0.00    +0.000 OA
ENDBRANCH  20  32
BRANCH  24  33
ATOM     33  O   UNL     1      14.449  45.201  45.360  0.00  0.00    +0.000 OA
ATOM     34  H   UNL     1      13.664  45.640  45.730  0.00  0.00    +0.000 HD
ENDBRANCH  24  33
ENDBRANCH  19  28
ENDBRANCH   1  19
TORSDOF 6
ENDMDL
