MODEL 1
REMARK VINA RESULT:    -6.352      0.000      0.000
REMARK INTER + INTRA:          -8.787
REMARK INTER:                  -7.238
REMARK INTRA:                  -1.549
REMARK UNBOUND:                -0.950
REMARK  Name = 
REMARK  4 active torsions:
REMARK  status: ('A' for Active; 'I' for Inactive)
REMARK    1  A    between atoms: C_8  and  C_9
REMARK    2  A    between atoms: C_12  and  N_13
REMARK    3  A    between atoms: N_13  and  C_14
REMARK    4  A    between atoms: C_14  and  C_15
REMARK                            x       y       z     vdW  Elec       q    Type
REMARK                         _______ _______ _______ _____ _____    ______ ____
ROOT
ATOM      1  C   UNL     1      13.761  42.688  45.747  0.00  0.00    +0.000 C 
ATOM      2  C   UNL     1      14.535  41.982  46.873  0.00  0.00    +0.000 C 
ATOM      3  C   UNL     1      15.402  40.866  46.296  0.00  0.00    +0.000 C 
ATOM      4  C   UNL     1      14.581  39.781  45.571  0.00  0.00    +0.000 C 
ATOM      5  C   UNL     1      13.148  40.251  45.251  0.00  0.00    +0.000 C 
ATOM      6  C   UNL     1      13.079  41.701  44.777  0.00  0.00    +0.000 C 
ENDROOT
BRANCH   1  14
ATOM      7  F   UNL     1      14.504  48.275  45.093  0.00  0.00    +0.000 F 
ATOM      8  C   UNL     1      13.623  47.437  45.656  0.00  0.00    +0.000 A 
ATOM      9  C   UNL     1      12.515  47.957  46.308  0.00  0.00    +0.000 A 
ATOM     10  C   UNL     1      11.581  47.106  46.902  0.00  0.00    +0.000 A 
ATOM     11  C   UNL     1      11.812  45.726  46.811  0.00  0.00    +0.000 A 
ATOM     12  N   UNL     1      11.068  44.679  47.299  0.00  0.00    +0.000 N 
ATOM     13  C   UNL     1      11.663  43.490  46.982  0.00  0.00    +0.000 A 
ATOM     14  C   UNL     1      12.823  43.747  46.273  0.00  0.00    +0.000 A 
ATOM     15  C   UNL     1      12.921  45.177  46.161  0.00  0.00    +0.000 A 
ATOM     16  C   UNL     1      13.846  46.062  45.571  0.00  0.00    +0.000 A 
ATOM     17  H   UNL     1      10.206  44.779  47.817  0.00  0.00    +0.000 HD
ENDBRANCH   1  14
BRANCH   4  18
ATOM     18  N   UNL     1      15.249  39.361  44.328  0.00  0.00    +0.000 NA
ATOM     19  H   UNL     1      15.578  38.402  44.430  0.00  0.00    +0.000 HD
BRANCH  18  20
ATOM     20  C   UNL     1      16.393  40.196  43.944  0.00  0.00    +0.000 C 
BRANCH  20  21
ATOM     21  C   UNL     1      16.012  41.389  43.099  0.00  0.00    +0.000 A 
ATOM     22  C   UNL     1      15.234  41.227  41.944  0.00  0.00    +0.000 A 
ATOM     23  C   UNL     1      14.874  42.331  41.171  0.00  0.00    +0.000 A 
ATOM     24  C   UNL     1      15.288  43.609  41.542  0.00  0.00    +0.000 A 
ATOM     25  C   UNL     1      16.061  43.784  42.688  0.00  0.00    +0.000 A 
ATOM     26  C   UNL     1      16.422  42.680  43.464  0.00  0.00    +0.000 A 
ENDBRANCH  20  21
ENDBRANCH  18  20
ENDBRANCH   4  18
TORSDOF 4
ENDMDL
MODEL 2
REMARK VINA RESULT:    -6.352      9.736     12.207
REMARK INTER + INTRA:          -8.787
REMARK INTER:                  -7.981
REMARK INTRA:                  -0.807
REMARK UNBOUND:                -0.950
REMARK  Name = 
REMARK  4 active torsions:
REMARK  status: ('A' for Active; 'I' for Inactive)
REMARK    1  A    between atoms: C_8  and  C_9
REMARK    2  A    between atoms: C_12  and  N_13
REMARK    3  A    between atoms: N_13  and  C_14
REMARK    4  A    between atoms: C_14  and  C_15
REMARK                            x       y       z     vdW  Elec       q    Type
REMARK                         _______ _______ _______ _____ _____    ______ ____
ROOT
ATOM      1  C   UNL     1      18.604  36.513  51.022  0.00  0.00    +0.000 C 
ATOM      2  C   UNL     1      18.812  35.821  49.664  0.00  0.00    +0.000 C 
ATOM      3  C   UNL     1      19.598  34.526  49.848  0.00  0.00    +0.000 C 
ATOM      4  C   UNL     1      20.998  34.753  50.453  0.00  0.00    +0.000 C 
ATOM      5  C   UNL     1      21.138  36.150  51.089  0.00  0.00    +0.000 C 
ATOM      6  C   UNL     1      19.896  36.591  51.861  0.00  0.00    +0.000 C 
ENDROOT
BRANCH   1  14
ATOM      7  F   UNL     1      17.535  40.056  55.323  0.00  0.00    +0.000 F 
ATOM      8  C   UNL     1      17.339  39.993  53.998  0.00  0.00    +0.000 A 
ATOM      9  C   UNL     1      16.693  41.042  53.360  0.00  0.00    +0.000 A 
ATOM     10  C   UNL     1      16.477  41.003  51.982  0.00  0.00    +0.000 A 
ATOM     11  C   UNL     1      16.934  39.875  51.284  0.00  0.00    +0.000 A 
ATOM     12  N   UNL     1      16.855  39.580  49.945  0.00  0.00    +0.000 N 
ATOM     13  C   UNL     1      17.432  38.368  49.694  0.00  0.00    +0.000 A 
ATOM     14  C   UNL     1      17.903  37.844  50.885  0.00  0.00    +0.000 A 
ATOM     15  C   UNL     1      17.587  38.806  51.905  0.00  0.00    +0.000 A 
ATOM     16  C   UNL     1      17.791  38.874  53.298  0.00  0.00    +0.000 A 
ATOM     17  H   UNL     1      16.430  40.178  49.250  0.00  0.00    +0.000 HD
ENDBRANCH   1  14
BRANCH   4  18
ATOM     18  N   UNL     1      21.309  33.723  51.458  0.00  0.00    +0.000 NA
ATOM     19  H   UNL     1      20.707  33.853  52.270  0.00  0.00    +0.000 HD
BRANCH  18  20
ATOM     20  C   UNL     1      22.702  33.729  51.919  0.00  0.00    +0.000 C 
BRANCH  20  21
ATOM     21  C   UNL     1      22.840  33.872  53.417  0.00  0.00    +0.000 A 
ATOM     22  C   UNL     1      21.778  34.364  54.188  0.00  0.00    +0.000 A 
ATOM     23  C   UNL     1      21.904  34.485  55.572  0.00  0.00    +0.000 A 
ATOM     24  C   UNL     1      23.092  34.117  56.201  0.00  0.00    +0.000 A 
ATOM     25  C   UNL     1      24.155  33.627  55.446  0.00  0.00    +0.000 A 
ATOM     26  C   UNL     1      24.031  33.504  54.060  0.00  0.00    +0.000 A 
ENDBRANCH  20  21
ENDBRANCH  18  20
ENDBRANCH   4  18
TORSDOF 4
ENDMDL
MODEL 3
REMARK VINA RESULT:    -6.203      2.960      6.977
REMARK INTER + INTRA:          -8.604
REMARK INTER:                  -7.654
REMARK INTRA:                  -0.950
REMARK UNBOUND:                -0.950
REMARK  Name = 
REMARK  4 active torsions:
REMARK  status: ('A' for Active; 'I' for Inactive)
REMARK    1  A    between atoms: C_8  and  C_9
REMARK    2  A    between atoms: C_12  and  N_13
REMARK    3  A    between atoms: N_13  and  C_14
REMARK    4  A    between atoms: C_14  and  C_15
REMARK                            x       y       z     vdW  Elec       q    Type
REMARK                         _______ _______ _______ _____ _____    ______ ____
ROOT
ATOM      1  C   UNL     1      14.298  45.315  44.128  0.00  0.00    +0.000 C 
ATOM      2  C   UNL     1      12.953  45.333  43.383  0.00  0.00    +0.000 C 
ATOM      3  C   UNL     1      12.259  46.678  43.580  0.00  0.00    +0.000 C 
ATOM      4  C   UNL     1      11.953  46.984  45.061  0.00  0.00    +0.000 C 
ATOM      5  C   UNL     1      12.748  46.077  46.020  0.00  0.00    +0.000 C 
ATOM      6  C   UNL     1      14.190  45.841  45.574  0.00  0.00    +0.000 C 
ENDROOT
BRANCH   1  14
ATOM      7  F   UNL     1      14.197  41.339  48.175  0.00  0.00    +0.000 F 
ATOM      8  C   UNL     1      14.719  41.519  46.954  0.00  0.00    +0.000 A 
ATOM      9  C   UNL     1      15.486  40.509  46.391  0.00  0.00    +0.000 A 
ATOM     10  C   UNL     1      16.041  40.669  45.120  0.00  0.00    +0.000 A 
ATOM     11  C   UNL     1      15.791  41.876  44.450  0.00  0.00    +0.000 A 
ATOM     12  N   UNL     1      16.208  42.293  43.210  0.00  0.00    +0.000 N 
ATOM     13  C   UNL     1      15.733  43.547  42.949  0.00  0.00    +0.000 A 
ATOM     14  C   UNL     1      14.987  43.975  44.034  0.00  0.00    +0.000 A 
ATOM     15  C   UNL     1      15.023  42.908  44.996  0.00  0.00    +0.000 A 
ATOM     16  C   UNL     1      14.476  42.717  46.281  0.00  0.00    +0.000 A 
ATOM     17  H   UNL     1      16.784  41.747  42.584  0.00  0.00    +0.000 HD
ENDBRANCH   1  14
BRANCH   4  18
ATOM     18  N   UNL     1      12.235  48.395  45.373  0.00  0.00    +0.000 NA
ATOM     19  H   UNL     1      11.413  48.814  45.808  0.00  0.00    +0.000 HD
BRANCH  18  20
ATOM     20  C   UNL     1      12.600  49.211  44.210  0.00  0.00    +0.000 C 
BRANCH  20  21
ATOM     21  C   UNL     1      14.014  49.740  44.265  0.00  0.00    +0.000 A 
ATOM     22  C   UNL     1      15.001  49.064  44.997  0.00  0.00    +0.000 A 
ATOM     23  C   UNL     1      16.309  49.548  45.037  0.00  0.00    +0.000 A 
ATOM     24  C   UNL     1      16.645  50.713  44.349  0.00  0.00    +0.000 A 
ATOM     25  C   UNL     1      15.674  51.394  43.618  0.00  0.00    +0.000 A 
ATOM     26  C   UNL     1      14.364  50.910  43.575  0.00  0.00    +0.000 A 
ENDBRANCH  20  21
ENDBRANCH  18  20
ENDBRANCH   4  18
TORSDOF 4
ENDMDL
