MODEL 1
REMARK VINA RESULT:    -6.959      0.000      0.000
REMARK INTER + INTRA:          -9.431
REMARK INTER:                  -8.479
REMARK INTRA:                  -0.952
REMARK UNBOUND:                -0.845
REMARK  Name = 
REMARK  4 active torsions:
REMARK  status: ('A' for Active; 'I' for Inactive)
REMARK    1  A    between atoms: C_2  and  C_3
REMARK    2  A    between atoms: C_2  and  C_10
REMARK    3  A    between atoms: C_14  and  C_16
REMARK    4  A    between atoms: C_19  and  C_20
REMARK                            x       y       z     vdW  Elec       q    Type
REMARK                         _______ _______ _______ _____ _____    ______ ____
ROOT
ATOM      1  C   UNL     1      17.507  37.772  48.128  0.00  0.00    +0.000 C 
ATOM      2  C   UNL     1      16.417  38.724  48.624  0.00  0.00    +0.000 C 
ATOM      3  C   UNL     1      16.076  39.762  47.562  0.00  0.00    +0.000 C 
ATOM      4  N   UNL     1      15.630  39.146  46.309  0.00  0.00    +0.000 N 
ATOM      5  C   UNL     1      14.671  39.714  45.468  0.00  0.00    +0.000 C 
ATOM      6  O   UNL     1      14.065  39.072  44.611  0.00  0.00    +0.000 OA
ATOM      7  C   UNL     1      15.999  37.757  46.062  0.00  0.00    +0.000 C 
ATOM      8  C   UNL     1      17.364  37.401  46.643  0.00  0.00    +0.000 C 
ENDROOT
BRANCH   5   9
ATOM      9  C   UNL     1      14.358  41.155  45.600  0.00  0.00    +0.000 A 
ATOM     10  C   UNL     1      15.151  42.123  44.979  0.00  0.00    +0.000 A 
ATOM     11  C   UNL     1      14.819  43.475  45.103  0.00  0.00    +0.000 A 
ATOM     12  C   UNL     1      13.687  43.882  45.832  0.00  0.00    +0.000 A 
ATOM     13  C   UNL     1      12.890  42.889  46.428  0.00  0.00    +0.000 A 
ATOM     14  C   UNL     1      13.215  41.535  46.308  0.00  0.00    +0.000 A 
BRANCH  12  15
ATOM     15  C   UNL     1      13.339  45.307  45.957  0.00  0.00    +0.000 A 
ATOM     16  C   UNL     1      12.155  45.710  46.596  0.00  0.00    +0.000 A 
ATOM     17  C   UNL     1      11.825  47.063  46.716  0.00  0.00    +0.000 A 
ATOM     18  C   UNL     1      12.674  48.036  46.198  0.00  0.00    +0.000 A 
ATOM     19  C   UNL     1      13.854  47.659  45.560  0.00  0.00    +0.000 A 
ATOM     20  C   UNL     1      14.182  46.306  45.441  0.00  0.00    +0.000 A 
ENDBRANCH  12  15
ENDBRANCH   5   9
BRANCH   1  22
ATOM     21  O   UNL     1      16.721  35.973  49.513  0.00  0.00    +0.000 OA
ATOM     22  C   UNL     1      17.691  36.610  49.103  0.00  0.00    +0.000 C 
BRANCH  22  23
ATOM     23  C   UNL     1      19.032  36.211  49.591  0.00  0.00    +0.000 A 
ATOM     24  C   UNL     1      19.834  35.434  48.743  0.00  0.00    +0.000 A 
ATOM     25  C   UNL     1      21.105  35.035  49.156  0.00  0.00    +0.000 A 
ATOM     26  C   UNL     1      21.571  35.426  50.406  0.00  0.00    +0.000 A 
ATOM     27  F   UNL     1      22.792  35.044  50.804  0.00  0.00    +0.000 F 
ATOM     28  C   UNL     1      20.794  36.217  51.247  0.00  0.00    +0.000 A 
ATOM     29  C   UNL     1      19.520  36.619  50.837  0.00  0.00    +0.000 A 
ENDBRANCH  22  23
ENDBRANCH   1  22
TORSDOF 4
ENDMDL
MODEL 2
REMARK VINA RESULT:    -6.706      3.570     10.462
REMARK INTER + INTRA:          -9.119
REMARK INTER:                  -8.203
REMARK INTRA:                  -0.916
REMARK UNBOUND:                -0.845
REMARK  Name = 
REMARK  4 active torsions:
REMARK  status: ('A' for Active; 'I' for Inactive)
REMARK    1  A    between atoms: C_2  and  C_3
REMARK    2  A    between atoms: C_2  and  C_10
REMARK    3  A    between atoms: C_14  and  C_16
REMARK    4  A    between atoms: C_19  and  C_20
REMARK                            x       y       z     vdW  Elec       q    Type
REMARK                         _______ _______ _______ _____ _____    ______ ____
ROOT
ATOM      1  C   UNL     1      13.885  42.533  46.636  0.00  0.00    +0.000 C 
ATOM      2  C   UNL     1      15.069  41.663  46.212  0.00  0.00    +0.000 C 
ATOM      3  C   UNL     1      15.343  40.576  47.243  0.00  0.00    +0.000 C 
ATOM      4  N   UNL     1      14.178  39.713  47.460  0.00  0.00    +0.000 N 
ATOM      5  C   UNL     1      14.270  38.351  47.754  0.00  0.00    +0.000 C 
ATOM      6  O   UNL     1      13.330  37.570  47.617  0.00  0.00    +0.000 OA
ATOM      7  C   UNL     1      12.867  40.231  47.088  0.00  0.00    +0.000 C 
ATOM      8  C   UNL     1      12.750  41.737  47.300  0.00  0.00    +0.000 C 
ENDROOT
BRANCH   5   9
ATOM      9  C   UNL     1      15.552  37.806  48.257  0.00  0.00    +0.000 A 
ATOM     10  C   UNL     1      16.454  37.180  47.395  0.00  0.00    +0.000 A 
ATOM     11  C   UNL     1      17.667  36.695  47.894  0.00  0.00    +0.000 A 
ATOM     12  C   UNL     1      18.005  36.841  49.251  0.00  0.00    +0.000 A 
ATOM     13  C   UNL     1      17.092  37.497  50.095  0.00  0.00    +0.000 A 
ATOM     14  C   UNL     1      15.878  37.984  49.604  0.00  0.00    +0.000 A 
BRANCH  12  15
ATOM     15  C   UNL     1      19.285  36.332  49.772  0.00  0.00    +0.000 A 
ATOM     16  C   UNL     1      20.090  35.476  49.003  0.00  0.00    +0.000 A 
ATOM     17  C   UNL     1      21.306  34.993  49.496  0.00  0.00    +0.000 A 
ATOM     18  C   UNL     1      21.735  35.358  50.769  0.00  0.00    +0.000 A 
ATOM     19  C   UNL     1      20.951  36.205  51.549  0.00  0.00    +0.000 A 
ATOM     20  C   UNL     1      19.737  36.687  51.054  0.00  0.00    +0.000 A 
ENDBRANCH  12  15
ENDBRANCH   5   9
BRANCH   1  22
ATOM     21  O   UNL     1      13.314  43.056  44.361  0.00  0.00    +0.000 OA
ATOM     22  C   UNL     1      13.480  43.478  45.505  0.00  0.00    +0.000 C 
BRANCH  22  23
ATOM     23  C   UNL     1      13.275  44.927  45.740  0.00  0.00    +0.000 A 
ATOM     24  C   UNL     1      14.210  45.818  45.194  0.00  0.00    +0.000 A 
ATOM     25  C   UNL     1      14.060  47.192  45.385  0.00  0.00    +0.000 A 
ATOM     26  C   UNL     1      12.970  47.665  46.108  0.00  0.00    +0.000 A 
ATOM     27  F   UNL     1      12.824  48.984  46.292  0.00  0.00    +0.000 F 
ATOM     28  C   UNL     1      12.023  46.792  46.634  0.00  0.00    +0.000 A 
ATOM     29  C   UNL     1      12.170  45.416  46.445  0.00  0.00    +0.000 A 
ENDBRANCH  22  23
ENDBRANCH   1  22
TORSDOF 4
ENDMDL
MODEL 3
REMARK VINA RESULT:    -6.574      3.584     10.886
REMARK INTER + INTRA:          -8.956
REMARK INTER:                  -8.112
REMARK INTRA:                  -0.845
REMARK UNBOUND:                -0.845
REMARK  Name = 
REMARK  4 active torsions:
REMARK  status: ('A' for Active; 'I' for Inactive)
REMARK    1  A    between atoms: C_2  and  C_3
REMARK    2  A    between atoms: C_2  and  C_10
REMARK    3  A    between atoms: C_14  and  C_16
REMARK    4  A    between atoms: C_19  and  C_20
REMARK                            x       y       z     vdW  Elec       q    Type
REMARK                         _______ _______ _______ _____ _____    ______ ____
ROOT
ATOM      1  C   UNL     1      16.110  39.667  46.991  0.00  0.00    +0.000 C 
ATOM      2  C   UNL     1      17.074  38.539  46.619  0.00  0.00    +0.000 C 
ATOM      3  C   UNL     1      17.868  38.080  47.835  0.00  0.00    +0.000 C 
ATOM      4  N   UNL     1      17.000  37.619  48.922  0.00  0.00    +0.000 N 
ATOM      5  C   UNL     1      17.340  36.586  49.798  0.00  0.00    +0.000 C 
ATOM      6  O   UNL     1      16.513  35.987  50.483  0.00  0.00    +0.000 OA
ATOM      7  C   UNL     1      15.613  38.071  48.926  0.00  0.00    +0.000 C 
ATOM      8  C   UNL     1      15.454  39.482  48.369  0.00  0.00    +0.000 C 
ENDROOT
BRANCH   5   9
ATOM      9  C   UNL     1      18.759  36.182  49.920  0.00  0.00    +0.000 A 
ATOM     10  C   UNL     1      19.563  36.680  50.949  0.00  0.00    +0.000 A 
ATOM     11  C   UNL     1      20.893  36.264  51.053  0.00  0.00    +0.000 A 
ATOM     12  C   UNL     1      21.437  35.336  50.146  0.00  0.00    +0.000 A 
ATOM     13  C   UNL     1      20.604  34.830  49.134  0.00  0.00    +0.000 A 
ATOM     14  C   UNL     1      19.272  35.241  49.024  0.00  0.00    +0.000 A 
BRANCH  12  15
ATOM     15  C   UNL     1      22.838  34.899  50.261  0.00  0.00    +0.000 A 
ATOM     16  C   UNL     1      23.807  35.322  49.337  0.00  0.00    +0.000 A 
ATOM     17  C   UNL     1      25.138  34.908  49.446  0.00  0.00    +0.000 A 
ATOM     18  C   UNL     1      25.521  34.060  50.482  0.00  0.00    +0.000 A 
ATOM     19  C   UNL     1      24.576  33.627  51.409  0.00  0.00    +0.000 A 
ATOM     20  C   UNL     1      23.247  34.043  51.299  0.00  0.00    +0.000 A 
ENDBRANCH  12  15
ENDBRANCH   5   9
BRANCH   1  22
ATOM     21  O   UNL     1      14.115  39.352  45.687  0.00  0.00    +0.000 OA
ATOM     22  C   UNL     1      15.168  39.974  45.827  0.00  0.00    +0.000 C 
BRANCH  22  23
ATOM     23  C   UNL     1      15.485  41.022  44.827  0.00  0.00    +0.000 A 
ATOM     24  C   UNL     1      15.161  42.349  45.145  0.00  0.00    +0.000 A 
ATOM     25  C   UNL     1      15.441  43.372  44.238  0.00  0.00    +0.000 A 
ATOM     26  C   UNL     1      16.055  43.064  43.029  0.00  0.00    +0.000 A 
ATOM     27  F   UNL     1      16.325  44.044  42.157  0.00  0.00    +0.000 F 
ATOM     28  C   UNL     1      16.402  41.753  42.714  0.00  0.00    +0.000 A 
ATOM     29  C   UNL     1      16.123  40.727  43.619  0.00  0.00    +0.000 A 
ENDBRANCH  22  23
ENDBRANCH   1  22
TORSDOF 4
ENDMDL
