MODEL 1
REMARK VINA RESULT:    -7.030      0.000      0.000
REMARK INTER + INTRA:         -10.448
REMARK INTER:                  -9.199
REMARK INTRA:                  -1.249
REMARK UNBOUND:                -1.158
REMARK  Name = 
REMARK  7 active torsions:
REMARK  status: ('A' for Active; 'I' for Inactive)
REMARK    1  A    between atoms: C_1  and  C_2
REMARK    2  A    between atoms: C_4  and  C_5
REMARK    3  A    between atoms: N_7  and  C_8
REMARK    4  A    between atoms: C_11  and  C_12
REMARK    5  A    between atoms: C_17  and  S_18
REMARK    6  A    between atoms: S_18  and  N_19
REMARK    7  A    between atoms: N_24  and  C_25
REMARK                            x       y       z     vdW  Elec       q    Type
REMARK                         _______ _______ _______ _____ _____    ______ ____
ROOT
ATOM      1  C   UNL     1      16.054  38.751  48.833  0.00  0.00    +0.000 C 
ATOM      2  O   UNL     1      14.838  38.680  48.955  0.00  0.00    +0.000 OA
ATOM      3  N   UNL     1      16.723  39.193  47.706  0.00  0.00    +0.000 N 
ATOM      4  H   UNL     1      17.720  39.011  47.668  0.00  0.00    +0.000 HD
ENDROOT
BRANCH   1   8
ATOM      5  C   UNL     1      19.668  36.567  51.593  0.00  0.00    +0.000 C 
ATOM      6  C   UNL     1      18.545  37.403  51.102  0.00  0.00    +0.000 A 
ATOM      7  C   UNL     1      17.853  37.303  49.884  0.00  0.00    +0.000 A 
ATOM      8  C   UNL     1      16.943  38.342  49.895  0.00  0.00    +0.000 A 
ATOM      9  N   UNL     1      17.036  38.913  51.156  0.00  0.00    +0.000 N 
ATOM     10  N   UNL     1      18.085  38.410  51.848  0.00  0.00    +0.000 NA
BRANCH   9  11
ATOM     11  C   UNL     1      16.142  39.845  51.759  0.00  0.00    +0.000 A 
ATOM     12  C   UNL     1      16.566  41.183  51.886  0.00  0.00    +0.000 A 
ATOM     13  C   UNL     1      15.758  42.151  52.503  0.00  0.00    +0.000 A 
ATOM     14  C   UNL     1      16.188  43.480  52.645  0.00  0.00    +0.000 A 
ATOM     15  C   UNL     1      15.377  44.429  53.268  0.00  0.00    +0.000 A 
ATOM     16  C   UNL     1      14.132  44.059  53.762  0.00  0.00    +0.000 A 
ATOM     17  C   UNL     1      13.690  42.743  53.625  0.00  0.00    +0.000 A 
ATOM     18  C   UNL     1      14.491  41.779  52.993  0.00  0.00    +0.000 A 
ATOM     19  C   UNL     1      14.062  40.449  52.844  0.00  0.00    +0.000 A 
ATOM     20  C   UNL     1      14.876  39.481  52.233  0.00  0.00    +0.000 A 
ATOM     21 BR   UNL     1      14.204  37.701  52.284  0.00  0.00    +0.000 Br
ENDBRANCH   9  11
ENDBRANCH   1   8
BRANCH   3  22
ATOM     22  C   UNL     1      16.199  39.927  46.626  0.00  0.00    +0.000 A 
ATOM     23  C   UNL     1      16.546  39.499  45.340  0.00  0.00    +0.000 A 
ATOM     24  C   UNL     1      16.131  40.214  44.213  0.00  0.00    +0.000 A 
ATOM     25  C   UNL     1      15.376  41.385  44.347  0.00  0.00    +0.000 A 
ATOM     26  C   UNL     1      15.011  41.792  45.639  0.00  0.00    +0.000 A 
ATOM     27  C   UNL     1      15.419  41.073  46.767  0.00  0.00    +0.000 A 
BRANCH  25  28
ATOM     28  C   UNL     1      14.952  42.159  43.173  0.00  0.00    +0.000 A 
ATOM     29  C   UNL     1      15.792  43.205  42.736  0.00  0.00    +0.000 A 
ATOM     30  C   UNL     1      15.473  43.985  41.623  0.00  0.00    +0.000 A 
ATOM     31  C   UNL     1      14.303  43.737  40.914  0.00  0.00    +0.000 A 
ATOM     32  C   UNL     1      13.451  42.711  41.322  0.00  0.00    +0.000 A 
ATOM     33  C   UNL     1      13.769  41.925  42.444  0.00  0.00    +0.000 A 
BRANCH  33  34
ATOM     34  S   UNL     1      12.623  40.641  42.880  0.00  0.00    +0.000 S 
ATOM     35  O   UNL     1      12.034  40.956  44.165  0.00  0.00    +0.000 OA
ATOM     36  O   UNL     1      13.228  39.356  42.626  0.00  0.00    +0.000 OA
BRANCH  34  37
ATOM     37  N   UNL     1      11.360  40.825  41.793  0.00  0.00    +0.000 NA
ATOM     38  H   UNL     1      10.530  40.334  42.136  0.00  0.00    +0.000 HD
ATOM     39  H   UNL     1      11.208  41.817  41.610  0.00  0.00    +0.000 HD
ENDBRANCH  34  37
ENDBRANCH  33  34
ENDBRANCH  25  28
ENDBRANCH   3  22
TORSDOF 6
ENDMDL
MODEL 2
REMARK VINA RESULT:    -6.852      6.544     11.990
REMARK INTER + INTRA:         -10.213
REMARK INTER:                  -8.694
REMARK INTRA:                  -1.520
REMARK UNBOUND:                -1.158
REMARK  Name = 
REMARK  7 active torsions:
REMARK  status: ('A' for Active; 'I' for Inactive)
REMARK    1  A    between atoms: C_1  and  C_2
REMARK    2  A    between atoms: C_4  and  C_5
REMARK    3  A    between atoms: N_7  and  C_8
REMARK    4  A    between atoms: C_11  and  C_12
REMARK    5  A    between atoms: C_17  and  S_18
REMARK    6  A    between atoms: S_18  and  N_19
REMARK    7  A    between atoms: N_24  and  C_25
REMARK                            x       y       z     vdW  Elec       q    Type
REMARK                         _______ _______ _______ _____ _____    ______ ____
ROOT
ATOM      1  C   UNL     1      15.912  39.255  54.708  0.00  0.00    +0.000 C 
ATOM      2  O   UNL     1      14.837  38.702  54.902  0.00  0.00    +0.000 OA
ATOM      3  N   UNL     1      17.131  38.844  55.217  0.00  0.00    +0.000 N 
ATOM      4  H   UNL     1      17.900  39.500  55.144  0.00  0.00    +0.000 HD
ENDROOT
BRANCH   1   8
ATOM      5  C   UNL     1      15.825  44.010  53.025  0.00  0.00    +0.000 C 
ATOM      6  C   UNL     1      15.996  42.544  53.175  0.00  0.00    +0.000 A 
ATOM      7  C   UNL     1      15.549  41.718  54.220  0.00  0.00    +0.000 A 
ATOM      8  C   UNL     1      16.009  40.454  53.909  0.00  0.00    +0.000 A 
ATOM      9  N   UNL     1      16.573  40.557  52.645  0.00  0.00    +0.000 N 
ATOM     10  N   UNL     1      16.660  41.848  52.249  0.00  0.00    +0.000 NA
BRANCH   9  11
ATOM     11  C   UNL     1      16.957  39.498  51.772  0.00  0.00    +0.000 A 
ATOM     12  C   UNL     1      18.139  38.791  52.068  0.00  0.00    +0.000 A 
ATOM     13  C   UNL     1      18.604  37.760  51.236  0.00  0.00    +0.000 A 
ATOM     14  C   UNL     1      19.791  37.068  51.522  0.00  0.00    +0.000 A 
ATOM     15  C   UNL     1      20.244  36.052  50.681  0.00  0.00    +0.000 A 
ATOM     16  C   UNL     1      19.519  35.721  49.542  0.00  0.00    +0.000 A 
ATOM     17  C   UNL     1      18.335  36.397  49.247  0.00  0.00    +0.000 A 
ATOM     18  C   UNL     1      17.863  37.417  50.088  0.00  0.00    +0.000 A 
ATOM     19  C   UNL     1      16.672  38.109  49.808  0.00  0.00    +0.000 A 
ATOM     20  C   UNL     1      16.215  39.144  50.639  0.00  0.00    +0.000 A 
ATOM     21 BR   UNL     1      14.686  40.083  50.004  0.00  0.00    +0.000 Br
ENDBRANCH   9  11
ENDBRANCH   1   8
BRANCH   3  22
ATOM     22  C   UNL     1      17.454  37.591  55.771  0.00  0.00    +0.000 A 
ATOM     23  C   UNL     1      17.501  36.503  54.892  0.00  0.00    +0.000 A 
ATOM     24  C   UNL     1      17.741  35.210  55.369  0.00  0.00    +0.000 A 
ATOM     25  C   UNL     1      17.919  34.975  56.737  0.00  0.00    +0.000 A 
ATOM     26  C   UNL     1      17.896  36.075  57.607  0.00  0.00    +0.000 A 
ATOM     27  C   UNL     1      17.663  37.370  57.131  0.00  0.00    +0.000 A 
BRANCH  25  28
ATOM     28  C   UNL     1      18.150  33.620  57.255  0.00  0.00    +0.000 A 
ATOM     29  C   UNL     1      17.060  32.949  57.850  0.00  0.00    +0.000 A 
ATOM     30  C   UNL     1      17.185  31.654  58.359  0.00  0.00    +0.000 A 
ATOM     31  C   UNL     1      18.407  30.994  58.283  0.00  0.00    +0.000 A 
ATOM     32  C   UNL     1      19.503  31.631  57.702  0.00  0.00    +0.000 A 
ATOM     33  C   UNL     1      19.380  32.936  57.190  0.00  0.00    +0.000 A 
BRANCH  33  34
ATOM     34  S   UNL     1      20.831  33.657  56.465  0.00  0.00    +0.000 S 
ATOM     35  O   UNL     1      21.121  34.904  57.143  0.00  0.00    +0.000 OA
ATOM     36  O   UNL     1      20.728  33.590  55.028  0.00  0.00    +0.000 OA
BRANCH  34  37
ATOM     37  N   UNL     1      22.078  32.638  56.928  0.00  0.00    +0.000 NA
ATOM     38  H   UNL     1      22.707  33.125  57.572  0.00  0.00    +0.000 HD
ATOM     39  H   UNL     1      21.690  31.773  57.304  0.00  0.00    +0.000 HD
ENDBRANCH  34  37
ENDBRANCH  33  34
ENDBRANCH  25  28
ENDBRANCH   3  22
TORSDOF 6
ENDMDL
MODEL 3
REMARK VINA RESULT:    -6.842      5.998      9.495
REMARK INTER + INTRA:         -10.200
REMARK INTER:                  -9.042
REMARK INTRA:                  -1.158
REMARK UNBOUND:                -1.158
REMARK  Name = 
REMARK  7 active torsions:
REMARK  status: ('A' for Active; 'I' for Inactive)
REMARK    1  A    between atoms: C_1  and  C_2
REMARK    2  A    between atoms: C_4  and  C_5
REMARK    3  A    between atoms: N_7  and  C_8
REMARK    4  A    between atoms: C_11  and  C_12
REMARK    5  A    between atoms: C_17  and  S_18
REMARK    6  A    between atoms: S_18  and  N_19
REMARK    7  A    between atoms: N_24  and  C_25
REMARK                            x       y       z     vdW  Elec       q    Type
REMARK                         _______ _______ _______ _____ _____    ______ ____
ROOT
ATOM      1  C   UNL     1      17.272  39.140  50.998  0.00  0.00    +0.000 C 
ATOM      2  O   UNL     1      18.199  39.909  51.215  0.00  0.00    +0.000 OA
ATOM      3  N   UNL     1      17.395  37.847  50.521  0.00  0.00    +0.000 N 
ATOM      4  H   UNL     1      16.546  37.397  50.200  0.00  0.00    +0.000 HD
ENDROOT
BRANCH   1   8
ATOM      5  C   UNL     1      12.442  40.478  50.422  0.00  0.00    +0.000 C 
ATOM      6  C   UNL     1      13.771  40.099  50.960  0.00  0.00    +0.000 A 
ATOM      7  C   UNL     1      14.982  39.949  50.263  0.00  0.00    +0.000 A 
ATOM      8  C   UNL     1      15.899  39.535  51.209  0.00  0.00    +0.000 A 
ATOM      9  N   UNL     1      15.239  39.596  52.428  0.00  0.00    +0.000 N 
ATOM     10  N   UNL     1      13.917  39.834  52.260  0.00  0.00    +0.000 NA
BRANCH   9  11
ATOM     11  C   UNL     1      15.807  39.519  53.732  0.00  0.00    +0.000 A 
ATOM     12  C   UNL     1      16.276  38.266  54.178  0.00  0.00    +0.000 A 
ATOM     13  C   UNL     1      16.814  38.101  55.464  0.00  0.00    +0.000 A 
ATOM     14  C   UNL     1      17.265  36.849  55.913  0.00  0.00    +0.000 A 
ATOM     15  C   UNL     1      17.789  36.700  57.197  0.00  0.00    +0.000 A 
ATOM     16  C   UNL     1      17.863  37.796  58.048  0.00  0.00    +0.000 A 
ATOM     17  C   UNL     1      17.422  39.047  57.613  0.00  0.00    +0.000 A 
ATOM     18  C   UNL     1      16.900  39.215  56.321  0.00  0.00    +0.000 A 
ATOM     19  C   UNL     1      16.452  40.467  55.866  0.00  0.00    +0.000 A 
ATOM     20  C   UNL     1      15.908  40.627  54.582  0.00  0.00    +0.000 A 
ATOM     21 BR   UNL     1      15.192  42.351  54.209  0.00  0.00    +0.000 Br
ENDBRANCH   9  11
ENDBRANCH   1   8
BRANCH   3  22
ATOM     22  C   UNL     1      18.555  37.049  50.488  0.00  0.00    +0.000 A 
ATOM     23  C   UNL     1      19.432  37.160  51.572  0.00  0.00    +0.000 A 
ATOM     24  C   UNL     1      20.642  36.459  51.585  0.00  0.00    +0.000 A 
ATOM     25  C   UNL     1      21.011  35.648  50.506  0.00  0.00    +0.000 A 
ATOM     26  C   UNL     1      20.113  35.523  49.435  0.00  0.00    +0.000 A 
ATOM     27  C   UNL     1      18.898  36.218  49.424  0.00  0.00    +0.000 A 
BRANCH  25  28
ATOM     28  C   UNL     1      22.289  34.925  50.495  0.00  0.00    +0.000 A 
ATOM     29  C   UNL     1      23.368  35.507  49.798  0.00  0.00    +0.000 A 
ATOM     30  C   UNL     1      24.623  34.894  49.745  0.00  0.00    +0.000 A 
ATOM     31  C   UNL     1      24.830  33.682  50.393  0.00  0.00    +0.000 A 
ATOM     32  C   UNL     1      23.782  33.080  51.089  0.00  0.00    +0.000 A 
ATOM     33  C   UNL     1      22.517  33.694  51.142  0.00  0.00    +0.000 A 
BRANCH  33  34
ATOM     34  S   UNL     1      21.251  32.852  52.058  0.00  0.00    +0.000 S 
ATOM     35  O   UNL     1      20.174  32.504  51.155  0.00  0.00    +0.000 OA
ATOM     36  O   UNL     1      20.999  33.564  53.287  0.00  0.00    +0.000 OA
BRANCH  34  37
ATOM     37  N   UNL     1      21.939  31.379  52.463  0.00  0.00    +0.000 NA
ATOM     38  H   UNL     1      22.107  30.828  51.617  0.00  0.00    +0.000 HD
ATOM     39  H   UNL     1      22.775  31.535  53.027  0.00  0.00    +0.000 HD
ENDBRANCH  34  37
ENDBRANCH  33  34
ENDBRANCH  25  28
ENDBRANCH   3  22
TORSDOF 6
ENDMDL
