MODEL 1
REMARK VINA RESULT:    -7.143      0.000      0.000
REMARK INTER + INTRA:         -11.560
REMARK INTER:                 -10.436
REMARK INTRA:                  -1.124
REMARK UNBOUND:                -1.076
REMARK  Name = 
REMARK  9 active torsions:
REMARK  status: ('A' for Active; 'I' for Inactive)
REMARK    1  A    between atoms: C_2  and  O_3
REMARK    2  A    between atoms: C_2  and  C_4
REMARK    3  A    between atoms: C_8  and  O_9
REMARK    4  A    between atoms: C_10  and  C_11
REMARK    5  A    between atoms: C_11  and  C_13
REMARK    6  A    between atoms: C_14  and  C_15
REMARK    7  A    between atoms: C_18  and  O_19
REMARK    8  A    between atoms: O_19  and  C_20
REMARK    9  A    between atoms: C_20  and  C_21
REMARK                            x       y       z     vdW  Elec       q    Type
REMARK                         _______ _______ _______ _____ _____    ______ ____
ROOT
ATOM      1  C   UNL     1      13.234  45.196  46.082  0.00  0.00    +0.000 A 
ATOM      2  C   UNL     1      12.193  45.966  46.614  0.00  0.00    +0.000 A 
ATOM      3  C   UNL     1      12.185  47.360  46.469  0.00  0.00    +0.000 A 
ATOM      4  C   UNL     1      13.216  47.998  45.780  0.00  0.00    +0.000 A 
ATOM      5  C   UNL     1      14.251  47.231  45.241  0.00  0.00    +0.000 A 
ATOM      6  C   UNL     1      14.259  45.841  45.380  0.00  0.00    +0.000 A 
ENDROOT
BRANCH   1   8
ATOM      7  C   UNL     1      14.390  43.032  46.341  0.00  0.00    +0.000 C 
ATOM      8  C   UNL     1      13.256  43.733  46.194  0.00  0.00    +0.000 C 
BRANCH   7   9
ATOM      9  C   UNL     1      14.450  41.558  46.500  0.00  0.00    +0.000 C 
ATOM     10  O   UNL     1      13.810  41.023  47.406  0.00  0.00    +0.000 OA
BRANCH   9  16
ATOM     11  C   UNL     1      15.882  39.998  43.346  0.00  0.00    +0.000 A 
ATOM     12  C   UNL     1      16.753  39.048  43.888  0.00  0.00    +0.000 A 
ATOM     13  C   UNL     1      16.889  38.941  45.275  0.00  0.00    +0.000 A 
ATOM     14 CL   UNL     1      17.999  37.773  45.897  0.00  0.00    +0.000 Cl
ATOM     15  C   UNL     1      16.147  39.770  46.125  0.00  0.00    +0.000 A 
ATOM     16  C   UNL     1      15.241  40.698  45.585  0.00  0.00    +0.000 A 
ATOM     17  C   UNL     1      15.134  40.826  44.194  0.00  0.00    +0.000 A 
BRANCH  11  19
ATOM     18  O   UNL     1      15.486  39.263  41.096  0.00  0.00    +0.000 OA
ATOM     19  C   UNL     1      15.715  40.162  41.882  0.00  0.00    +0.000 C 
BRANCH  19  20
ATOM     20  O   UNL     1      15.833  41.439  41.484  0.00  0.00    +0.000 OA
ATOM     21  H   UNL     1      14.927  41.692  41.206  0.00  0.00    +0.000 HD
ENDBRANCH  19  20
ENDBRANCH  11  19
BRANCH  15  22
ATOM     22  O   UNL     1      16.332  39.653  47.481  0.00  0.00    +0.000 OA
ATOM     23  H   UNL     1      15.468  39.787  47.934  0.00  0.00    +0.000 HD
ENDBRANCH  15  22
ENDBRANCH   9  16
ENDBRANCH   7   9
ENDBRANCH   1   8
BRANCH   4  24
ATOM     24  O   UNL     1      13.332  49.344  45.569  0.00  0.00    +0.000 OA
BRANCH  24  25
ATOM     25  C   UNL     1      13.935  49.757  44.340  0.00  0.00    +0.000 C 
BRANCH  25  26
ATOM     26  C   UNL     1      15.119  50.664  44.609  0.00  0.00    +0.000 A 
ATOM     27  C   UNL     1      15.110  51.548  45.684  0.00  0.00    +0.000 A 
ATOM     28  C   UNL     1      16.235  52.333  45.914  0.00  0.00    +0.000 A 
ATOM     29  C   UNL     1      17.350  52.214  45.076  0.00  0.00    +0.000 A 
ATOM     30  C   UNL     1      18.507  52.988  45.272  0.00  0.00    +0.000 A 
ATOM     31  C   UNL     1      19.603  52.841  44.424  0.00  0.00    +0.000 A 
ATOM     32  C   UNL     1      19.544  51.926  43.377  0.00  0.00    +0.000 A 
ATOM     33  C   UNL     1      18.390  51.160  43.186  0.00  0.00    +0.000 A 
ATOM     34  C   UNL     1      17.284  51.284  44.017  0.00  0.00    +0.000 A 
ATOM     35  N   UNL     1      16.197  50.522  43.794  0.00  0.00    +0.000 NA
ENDBRANCH  25  26
ENDBRANCH  24  25
ENDBRANCH   4  24
TORSDOF 9
ENDMDL
MODEL 2
REMARK VINA RESULT:    -7.116     12.252     16.827
REMARK INTER + INTRA:         -11.521
REMARK INTER:                 -10.408
REMARK INTRA:                  -1.112
REMARK UNBOUND:                -1.076
REMARK  Name = 
REMARK  9 active torsions:
REMARK  status: ('A' for Active; 'I' for Inactive)
REMARK    1  A    between atoms: C_2  and  O_3
REMARK    2  A    between atoms: C_2  and  C_4
REMARK    3  A    between atoms: C_8  and  O_9
REMARK    4  A    between atoms: C_10  and  C_11
REMARK    5  A    between atoms: C_11  and  C_13
REMARK    6  A    between atoms: C_14  and  C_15
REMARK    7  A    between atoms: C_18  and  O_19
REMARK    8  A    between atoms: O_19  and  C_20
REMARK    9  A    between atoms: C_20  and  C_21
REMARK                            x       y       z     vdW  Elec       q    Type
REMARK                         _______ _______ _______ _____ _____    ______ ____
ROOT
ATOM      1  C   UNL     1      21.322  34.533  55.828  0.00  0.00    +0.000 A 
ATOM      2  C   UNL     1      22.522  34.300  56.509  0.00  0.00    +0.000 A 
ATOM      3  C   UNL     1      23.639  33.785  55.837  0.00  0.00    +0.000 A 
ATOM      4  C   UNL     1      23.570  33.506  54.473  0.00  0.00    +0.000 A 
ATOM      5  C   UNL     1      22.375  33.746  53.790  0.00  0.00    +0.000 A 
ATOM      6  C   UNL     1      21.261  34.264  54.456  0.00  0.00    +0.000 A 
ENDROOT
BRANCH   1   8
ATOM      7  C   UNL     1      19.043  35.478  55.834  0.00  0.00    +0.000 C 
ATOM      8  C   UNL     1      20.144  35.096  56.497  0.00  0.00    +0.000 C 
BRANCH   7   9
ATOM      9  C   UNL     1      17.817  36.013  56.477  0.00  0.00    +0.000 C 
ATOM     10  O   UNL     1      17.053  35.238  57.053  0.00  0.00    +0.000 OA
BRANCH   9  16
ATOM     11  C   UNL     1      17.114  39.553  55.292  0.00  0.00    +0.000 A 
ATOM     12  C   UNL     1      16.873  40.200  56.508  0.00  0.00    +0.000 A 
ATOM     13  C   UNL     1      16.913  39.474  57.701  0.00  0.00    +0.000 A 
ATOM     14 CL   UNL     1      16.579  40.310  59.176  0.00  0.00    +0.000 Cl
ATOM     15  C   UNL     1      17.207  38.105  57.688  0.00  0.00    +0.000 A 
ATOM     16  C   UNL     1      17.491  37.460  56.473  0.00  0.00    +0.000 A 
ATOM     17  C   UNL     1      17.414  38.184  55.275  0.00  0.00    +0.000 A 
BRANCH  11  19
ATOM     18  O   UNL     1      16.066  40.457  53.331  0.00  0.00    +0.000 OA
ATOM     19  C   UNL     1      17.067  40.275  53.998  0.00  0.00    +0.000 C 
BRANCH  19  20
ATOM     20  O   UNL     1      18.268  40.736  53.614  0.00  0.00    +0.000 OA
ATOM     21  H   UNL     1      18.701  41.013  54.450  0.00  0.00    +0.000 HD
ENDBRANCH  19  20
ENDBRANCH  11  19
BRANCH  15  22
ATOM     22  O   UNL     1      17.207  37.422  58.880  0.00  0.00    +0.000 OA
ATOM     23  H   UNL     1      17.214  36.455  58.694  0.00  0.00    +0.000 HD
ENDBRANCH  15  22
ENDBRANCH   9  16
ENDBRANCH   7   9
ENDBRANCH   1   8
BRANCH   4  24
ATOM     24  O   UNL     1      24.579  33.001  53.701  0.00  0.00    +0.000 OA
BRANCH  24  25
ATOM     25  C   UNL     1      24.208  32.433  52.442  0.00  0.00    +0.000 C 
BRANCH  25  26
ATOM     26  C   UNL     1      25.078  32.990  51.333  0.00  0.00    +0.000 A 
ATOM     27  C   UNL     1      26.378  32.529  51.148  0.00  0.00    +0.000 A 
ATOM     28  C   UNL     1      27.126  33.043  50.094  0.00  0.00    +0.000 A 
ATOM     29  C   UNL     1      26.561  33.996  49.239  0.00  0.00    +0.000 A 
ATOM     30  C   UNL     1      27.280  34.542  48.161  0.00  0.00    +0.000 A 
ATOM     31  C   UNL     1      26.686  35.485  47.324  0.00  0.00    +0.000 A 
ATOM     32  C   UNL     1      25.376  35.887  47.564  0.00  0.00    +0.000 A 
ATOM     33  C   UNL     1      24.665  35.343  48.638  0.00  0.00    +0.000 A 
ATOM     34  C   UNL     1      25.232  34.400  49.486  0.00  0.00    +0.000 A 
ATOM     35  N   UNL     1      24.506  33.903  50.505  0.00  0.00    +0.000 NA
ENDBRANCH  25  26
ENDBRANCH  24  25
ENDBRANCH   4  24
TORSDOF 9
ENDMDL
MODEL 3
REMARK VINA RESULT:    -6.928      4.299     11.121
REMARK INTER + INTRA:         -11.244
REMARK INTER:                 -10.168
REMARK INTRA:                  -1.076
REMARK UNBOUND:                -1.076
REMARK  Name = 
REMARK  9 active torsions:
REMARK  status: ('A' for Active; 'I' for Inactive)
REMARK    1  A    between atoms: C_2  and  O_3
REMARK    2  A    between atoms: C_2  and  C_4
REMARK    3  A    between atoms: C_8  and  O_9
REMARK    4  A    between atoms: C_10  and  C_11
REMARK    5  A    between atoms: C_11  and  C_13
REMARK    6  A    between atoms: C_14  and  C_15
REMARK    7  A    between atoms: C_18  and  O_19
REMARK    8  A    between atoms: O_19  and  C_20
REMARK    9  A    between atoms: C_20  and  C_21
REMARK                            x       y       z     vdW  Elec       q    Type
REMARK                         _______ _______ _______ _____ _____    ______ ____
ROOT
ATOM      1  C   UNL     1      14.469  44.654  44.754  0.00  0.00    +0.000 A 
ATOM      2  C   UNL     1      14.389  43.808  45.866  0.00  0.00    +0.000 A 
ATOM      3  C   UNL     1      14.984  42.539  45.845  0.00  0.00    +0.000 A 
ATOM      4  C   UNL     1      15.674  42.107  44.714  0.00  0.00    +0.000 A 
ATOM      5  C   UNL     1      15.763  42.953  43.606  0.00  0.00    +0.000 A 
ATOM      6  C   UNL     1      15.174  44.221  43.626  0.00  0.00    +0.000 A 
ENDROOT
BRANCH   1   8
ATOM      7  C   UNL     1      14.379  47.011  45.479  0.00  0.00    +0.000 C 
ATOM      8  C   UNL     1      13.880  45.999  44.755  0.00  0.00    +0.000 C 
BRANCH   7   9
ATOM      9  C   UNL     1      13.839  48.393  45.475  0.00  0.00    +0.000 C 
ATOM     10  O   UNL     1      12.808  48.638  46.101  0.00  0.00    +0.000 OA
BRANCH   9  16
ATOM     11  C   UNL     1      16.533  50.683  44.085  0.00  0.00    +0.000 A 
ATOM     12  C   UNL     1      15.758  51.618  43.392  0.00  0.00    +0.000 A 
ATOM     13  C   UNL     1      14.368  51.481  43.358  0.00  0.00    +0.000 A 
ATOM     14 CL   UNL     1      13.456  52.644  42.464  0.00  0.00    +0.000 Cl
ATOM     15  C   UNL     1      13.745  50.420  44.026  0.00  0.00    +0.000 A 
ATOM     16  C   UNL     1      14.516  49.502  44.758  0.00  0.00    +0.000 A 
ATOM     17  C   UNL     1      15.912  49.623  44.760  0.00  0.00    +0.000 A 
BRANCH  11  19
ATOM     18  O   UNL     1      18.696  51.493  43.433  0.00  0.00    +0.000 OA
ATOM     19  C   UNL     1      18.012  50.775  44.137  0.00  0.00    +0.000 C 
BRANCH  19  20
ATOM     20  O   UNL     1      18.552  49.974  45.069  0.00  0.00    +0.000 OA
ATOM     21  H   UNL     1      19.121  49.357  44.560  0.00  0.00    +0.000 HD
ENDBRANCH  19  20
ENDBRANCH  11  19
BRANCH  15  22
ATOM     22  O   UNL     1      12.378  50.305  43.944  0.00  0.00    +0.000 OA
ATOM     23  H   UNL     1      12.017  51.107  43.502  0.00  0.00    +0.000 HD
ENDBRANCH  15  22
ENDBRANCH   9  16
ENDBRANCH   7   9
ENDBRANCH   1   8
BRANCH   4  24
ATOM     24  O   UNL     1      16.295  40.898  44.560  0.00  0.00    +0.000 OA
BRANCH  24  25
ATOM     25  C   UNL     1      15.518  39.731  44.840  0.00  0.00    +0.000 C 
BRANCH  25  26
ATOM     26  C   UNL     1      16.264  38.814  45.788  0.00  0.00    +0.000 A 
ATOM     27  C   UNL     1      17.016  37.748  45.305  0.00  0.00    +0.000 A 
ATOM     28  C   UNL     1      17.714  36.956  46.211  0.00  0.00    +0.000 A 
ATOM     29  C   UNL     1      17.657  37.249  47.579  0.00  0.00    +0.000 A 
ATOM     30  C   UNL     1      18.347  36.476  48.529  0.00  0.00    +0.000 A 
ATOM     31  C   UNL     1      18.276  36.798  49.883  0.00  0.00    +0.000 A 
ATOM     32  C   UNL     1      17.513  37.888  50.291  0.00  0.00    +0.000 A 
ATOM     33  C   UNL     1      16.828  38.653  49.342  0.00  0.00    +0.000 A 
ATOM     34  C   UNL     1      16.884  38.356  47.986  0.00  0.00    +0.000 A 
ATOM     35  N   UNL     1      16.208  39.124  47.111  0.00  0.00    +0.000 NA
ENDBRANCH  25  26
ENDBRANCH  24  25
ENDBRANCH   4  24
TORSDOF 9
ENDMDL
