MODEL 1
REMARK VINA RESULT:    -6.336      0.000      0.000
REMARK INTER + INTRA:          -9.502
REMARK INTER:                  -8.842
REMARK INTRA:                  -0.660
REMARK UNBOUND:                -0.759
REMARK  Name = 
REMARK  8 active torsions:
REMARK  status: ('A' for Active; 'I' for Inactive)
REMARK    1  A    between atoms: C_1  and  N_2
REMARK    2  A    between atoms: C_4  and  C_5
REMARK    3  A    between atoms: C_5  and  O_7
REMARK    4  A    between atoms: O_7  and  C_8
REMARK    5  A    between atoms: C_8  and  C_9
REMARK    6  A    between atoms: C_9  and  O_10
REMARK    7  A    between atoms: N_21  and  C_22
REMARK    8  A    between atoms: C_22  and  C_23
REMARK                            x       y       z     vdW  Elec       q    Type
REMARK                         _______ _______ _______ _____ _____    ______ ____
ROOT
ATOM      1  C   UNL     1      10.577  48.604  45.296  0.00  0.00    +0.000 C 
ATOM      2  N   UNL     1      11.970  48.271  45.599  0.00  0.00    +0.000 NA
ATOM      3  C   UNL     1      12.890  49.198  44.934  0.00  0.00    +0.000 C 
ATOM      4  C   UNL     1      14.337  48.958  45.384  0.00  0.00    +0.000 C 
ATOM      5  C   UNL     1      14.737  47.474  45.417  0.00  0.00    +0.000 C 
ATOM      6  C   UNL     1      13.707  46.618  44.673  0.00  0.00    +0.000 C 
ATOM      7  C   UNL     1      14.104  45.159  44.650  0.00  0.00    +0.000 A 
ATOM      8  C   UNL     1      15.081  44.609  43.812  0.00  0.00    +0.000 A 
ATOM      9  C   UNL     1      15.380  43.241  43.870  0.00  0.00    +0.000 A 
ATOM     10  C   UNL     1      14.724  42.377  44.763  0.00  0.00    +0.000 A 
ATOM     11  C   UNL     1      13.752  42.938  45.600  0.00  0.00    +0.000 A 
ATOM     12  C   UNL     1      13.465  44.290  45.540  0.00  0.00    +0.000 A 
ATOM     13  C   UNL     1      12.467  44.606  46.479  0.00  0.00    +0.000 A 
ATOM     14  C   UNL     1      12.142  43.435  47.122  0.00  0.00    +0.000 A 
ATOM     15  N   UNL     1      12.916  42.424  46.576  0.00  0.00    +0.000 N 
ATOM     16  C   UNL     1      11.998  46.014  46.618  0.00  0.00    +0.000 C 
ATOM     17  C   UNL     1      12.263  46.840  45.304  0.00  0.00    +0.000 C 
ENDROOT
BRANCH   4  18
ATOM     18  C   UNL     1      15.250  49.772  44.492  0.00  0.00    +0.000 C 
ATOM     19  O   UNL     1      14.854  50.476  43.572  0.00  0.00    +0.000 OA
BRANCH  18  20
ATOM     20  O   UNL     1      16.560  49.579  44.806  0.00  0.00    +0.000 OA
BRANCH  20  21
ATOM     21  C   UNL     1      17.368  50.764  44.831  0.00  0.00    +0.000 C 
BRANCH  21  22
ATOM     22  C   UNL     1      18.431  50.734  43.738  0.00  0.00    +0.000 C 
BRANCH  22  23
ATOM     23  O   UNL     1      19.601  50.066  44.190  0.00  0.00    +0.000 OA
ATOM     24  H   UNL     1      20.248  50.095  43.462  0.00  0.00    +0.000 HD
ENDBRANCH  22  23
ENDBRANCH  21  22
ENDBRANCH  20  21
ENDBRANCH  18  20
ENDBRANCH   4  18
BRANCH  15  25
ATOM     25  C   UNL     1      12.880  41.037  47.025  0.00  0.00    +0.000 C 
BRANCH  25  26
ATOM     26  C   UNL     1      13.206  40.905  48.493  0.00  0.00    +0.000 A 
ATOM     27  C   UNL     1      12.187  40.979  49.454  0.00  0.00    +0.000 A 
ATOM     28  C   UNL     1      12.484  40.871  50.813  0.00  0.00    +0.000 A 
ATOM     29  C   UNL     1      13.802  40.689  51.228  0.00  0.00    +0.000 A 
ATOM     30  C   UNL     1      14.823  40.615  50.284  0.00  0.00    +0.000 A 
ATOM     31  C   UNL     1      14.529  40.724  48.924  0.00  0.00    +0.000 A 
ENDBRANCH  25  26
ENDBRANCH  15  25
TORSDOF 7
ENDMDL
MODEL 2
REMARK VINA RESULT:    -6.099      8.519     11.630
REMARK INTER + INTRA:          -9.175
REMARK INTER:                  -8.417
REMARK INTRA:                  -0.759
REMARK UNBOUND:                -0.759
REMARK  Name = 
REMARK  8 active torsions:
REMARK  status: ('A' for Active; 'I' for Inactive)
REMARK    1  A    between atoms: C_1  and  N_2
REMARK    2  A    between atoms: C_4  and  C_5
REMARK    3  A    between atoms: C_5  and  O_7
REMARK    4  A    between atoms: O_7  and  C_8
REMARK    5  A    between atoms: C_8  and  C_9
REMARK    6  A    between atoms: C_9  and  O_10
REMARK    7  A    between atoms: N_21  and  C_22
REMARK    8  A    between atoms: C_22  and  C_23
REMARK                            x       y       z     vdW  Elec       q    Type
REMARK                         _______ _______ _______ _____ _____    ______ ____
ROOT
ATOM      1  C   UNL     1      16.593  37.247  54.902  0.00  0.00    +0.000 C 
ATOM      2  N   UNL     1      17.254  38.061  53.880  0.00  0.00    +0.000 NA
ATOM      3  C   UNL     1      16.532  39.316  53.658  0.00  0.00    +0.000 C 
ATOM      4  C   UNL     1      17.314  40.243  52.716  0.00  0.00    +0.000 C 
ATOM      5  C   UNL     1      17.883  39.531  51.478  0.00  0.00    +0.000 C 
ATOM      6  C   UNL     1      17.251  38.145  51.312  0.00  0.00    +0.000 C 
ATOM      7  C   UNL     1      17.760  37.443  50.072  0.00  0.00    +0.000 A 
ATOM      8  C   UNL     1      17.346  37.726  48.766  0.00  0.00    +0.000 A 
ATOM      9  C   UNL     1      17.883  37.021  47.681  0.00  0.00    +0.000 A 
ATOM     10  C   UNL     1      18.850  36.016  47.856  0.00  0.00    +0.000 A 
ATOM     11  C   UNL     1      19.262  35.745  49.166  0.00  0.00    +0.000 A 
ATOM     12  C   UNL     1      18.730  36.449  50.233  0.00  0.00    +0.000 A 
ATOM     13  C   UNL     1      19.307  35.998  51.434  0.00  0.00    +0.000 A 
ATOM     14  C   UNL     1      20.202  35.011  51.098  0.00  0.00    +0.000 A 
ATOM     15  N   UNL     1      20.162  34.852  49.722  0.00  0.00    +0.000 N 
ATOM     16  C   UNL     1      18.907  36.621  52.728  0.00  0.00    +0.000 C 
ATOM     17  C   UNL     1      17.482  37.284  52.630  0.00  0.00    +0.000 C 
ENDROOT
BRANCH   4  18
ATOM     18  C   UNL     1      16.413  41.401  52.339  0.00  0.00    +0.000 C 
ATOM     19  O   UNL     1      15.648  41.387  51.383  0.00  0.00    +0.000 OA
BRANCH  18  20
ATOM     20  O   UNL     1      16.601  42.468  53.162  0.00  0.00    +0.000 OA
BRANCH  20  21
ATOM     21  C   UNL     1      16.081  43.715  52.679  0.00  0.00    +0.000 C 
BRANCH  21  22
ATOM     22  C   UNL     1      15.125  44.346  53.688  0.00  0.00    +0.000 C 
BRANCH  22  23
ATOM     23  O   UNL     1      15.504  45.686  53.972  0.00  0.00    +0.000 OA
ATOM     24  H   UNL     1      16.249  45.647  54.598  0.00  0.00    +0.000 HD
ENDBRANCH  22  23
ENDBRANCH  21  22
ENDBRANCH  20  21
ENDBRANCH  18  20
ENDBRANCH   4  18
BRANCH  15  25
ATOM     25  C   UNL     1      21.001  33.916  48.984  0.00  0.00    +0.000 C 
BRANCH  25  26
ATOM     26  C   UNL     1      22.346  34.508  48.638  0.00  0.00    +0.000 A 
ATOM     27  C   UNL     1      22.637  34.882  47.318  0.00  0.00    +0.000 A 
ATOM     28  C   UNL     1      23.883  35.419  46.991  0.00  0.00    +0.000 A 
ATOM     29  C   UNL     1      24.852  35.587  47.977  0.00  0.00    +0.000 A 
ATOM     30  C   UNL     1      24.577  35.219  49.292  0.00  0.00    +0.000 A 
ATOM     31  C   UNL     1      23.332  34.681  49.623  0.00  0.00    +0.000 A 
ENDBRANCH  25  26
ENDBRANCH  15  25
TORSDOF 7
ENDMDL
MODEL 3
REMARK VINA RESULT:    -6.028      1.674      2.188
REMARK INTER + INTRA:          -9.078
REMARK INTER:                  -8.209
REMARK INTRA:                  -0.869
REMARK UNBOUND:                -0.759
REMARK  Name = 
REMARK  8 active torsions:
REMARK  status: ('A' for Active; 'I' for Inactive)
REMARK    1  A    between atoms: C_1  and  N_2
REMARK    2  A    between atoms: C_4  and  C_5
REMARK    3  A    between atoms: C_5  and  O_7
REMARK    4  A    between atoms: O_7  and  C_8
REMARK    5  A    between atoms: C_8  and  C_9
REMARK    6  A    between atoms: C_9  and  O_10
REMARK    7  A    between atoms: N_21  and  C_22
REMARK    8  A    between atoms: C_22  and  C_23
REMARK                            x       y       z     vdW  Elec       q    Type
REMARK                         _______ _______ _______ _____ _____    ______ ____
ROOT
ATOM      1  C   UNL     1      10.950  48.068  46.529  0.00  0.00    +0.000 C 
ATOM      2  N   UNL     1      12.345  47.694  46.286  0.00  0.00    +0.000 NA
ATOM      3  C   UNL     1      13.070  48.776  45.614  0.00  0.00    +0.000 C 
ATOM      4  C   UNL     1      14.568  48.455  45.513  0.00  0.00    +0.000 C 
ATOM      5  C   UNL     1      14.865  47.019  45.053  0.00  0.00    +0.000 C 
ATOM      6  C   UNL     1      13.603  46.360  44.486  0.00  0.00    +0.000 C 
ATOM      7  C   UNL     1      13.881  44.961  43.982  0.00  0.00    +0.000 A 
ATOM      8  C   UNL     1      14.514  44.658  42.771  0.00  0.00    +0.000 A 
ATOM      9  C   UNL     1      14.730  43.326  42.396  0.00  0.00    +0.000 A 
ATOM     10  C   UNL     1      14.329  42.252  43.209  0.00  0.00    +0.000 A 
ATOM     11  C   UNL     1      13.701  42.566  44.421  0.00  0.00    +0.000 A 
ATOM     12  C   UNL     1      13.495  43.885  44.787  0.00  0.00    +0.000 A 
ATOM     13  C   UNL     1      12.858  43.935  46.040  0.00  0.00    +0.000 A 
ATOM     14  C   UNL     1      12.675  42.634  46.445  0.00  0.00    +0.000 A 
ATOM     15  N   UNL     1      13.177  41.808  45.453  0.00  0.00    +0.000 N 
ATOM     16  C   UNL     1      12.544  45.254  46.660  0.00  0.00    +0.000 C 
ATOM     17  C   UNL     1      12.442  46.390  45.573  0.00  0.00    +0.000 C 
ENDROOT
BRANCH   4  18
ATOM     18  C   UNL     1      15.210  49.485  44.606  0.00  0.00    +0.000 C 
ATOM     19  O   UNL     1      14.603  50.104  43.741  0.00  0.00    +0.000 OA
BRANCH  18  20
ATOM     20  O   UNL     1      16.546  49.592  44.838  0.00  0.00    +0.000 OA
BRANCH  20  21
ATOM     21  C   UNL     1      17.091  50.912  44.694  0.00  0.00    +0.000 C 
BRANCH  21  22
ATOM     22  C   UNL     1      18.329  50.907  43.802  0.00  0.00    +0.000 C 
BRANCH  22  23
ATOM     23  O   UNL     1      19.324  50.035  44.324  0.00  0.00    +0.000 OA
ATOM     24  H   UNL     1      18.893  49.179  44.497  0.00  0.00    +0.000 HD
ENDBRANCH  22  23
ENDBRANCH  21  22
ENDBRANCH  20  21
ENDBRANCH  18  20
ENDBRANCH   4  18
BRANCH  15  25
ATOM     25  C   UNL     1      13.194  40.352  45.536  0.00  0.00    +0.000 C 
BRANCH  25  26
ATOM     26  C   UNL     1      14.517  39.827  46.037  0.00  0.00    +0.000 A 
ATOM     27  C   UNL     1      14.770  39.742  47.414  0.00  0.00    +0.000 A 
ATOM     28  C   UNL     1      15.997  39.269  47.883  0.00  0.00    +0.000 A 
ATOM     29  C   UNL     1      16.985  38.876  46.982  0.00  0.00    +0.000 A 
ATOM     30  C   UNL     1      16.747  38.956  45.612  0.00  0.00    +0.000 A 
ATOM     31  C   UNL     1      15.521  39.430  45.140  0.00  0.00    +0.000 A 
ENDBRANCH  25  26
ENDBRANCH  15  25
TORSDOF 7
ENDMDL
