MODEL 1
REMARK VINA RESULT:    -7.245      0.000      0.000
REMARK INTER + INTRA:          -9.551
REMARK INTER:                  -8.513
REMARK INTRA:                  -1.038
REMARK UNBOUND:                -0.399
REMARK  Name = 
REMARK  8 active torsions:
REMARK  status: ('A' for Active; 'I' for Inactive)
REMARK    1  A    between atoms: C_1  and  C_2
REMARK    2  A    between atoms: C_2  and  C_3
REMARK    3  A    between atoms: C_2  and  C_4
REMARK    4  A    between atoms: C_2  and  C_5
REMARK    5  A    between atoms: C_8  and  C_9
REMARK    6  A    between atoms: C_14  and  N_15
REMARK    7  A    between atoms: C_16  and  S_17
REMARK    8  A    between atoms: N_18  and  C_19
REMARK                            x       y       z     vdW  Elec       q    Type
REMARK                         _______ _______ _______ _____ _____    ______ ____
ROOT
ATOM      1  C   UNL     1      17.807  38.023  50.971  0.00  0.00    +0.000 C 
ATOM      2  C   UNL     1      18.864  37.578  51.672  0.00  0.00    +0.000 C 
ATOM      3  C   UNL     1      19.726  36.554  51.088  0.00  0.00    +0.000 A 
ATOM      4  C   UNL     1      20.811  36.048  51.805  0.00  0.00    +0.000 A 
ATOM      5  C   UNL     1      21.644  35.076  51.235  0.00  0.00    +0.000 A 
ATOM      6  C   UNL     1      21.420  34.586  49.944  0.00  0.00    +0.000 A 
ATOM      7  C   UNL     1      20.325  35.104  49.233  0.00  0.00    +0.000 A 
ATOM      8  C   UNL     1      19.484  36.075  49.797  0.00  0.00    +0.000 A 
ATOM      9  C   UNL     1      18.307  36.624  49.033  0.00  0.00    +0.000 C 
ATOM     10  N   UNL     1      18.153  36.187  47.822  0.00  0.00    +0.000 NA
ATOM     11  C   UNL     1      17.038  36.711  47.042  0.00  0.00    +0.000 C 
ATOM     12  C   UNL     1      15.856  37.048  47.924  0.00  0.00    +0.000 C 
ATOM     13  C   UNL     1      16.308  38.055  48.963  0.00  0.00    +0.000 C 
ATOM     14  N   UNL     1      17.478  37.549  49.690  0.00  0.00    +0.000 N 
ENDROOT
BRANCH   1  18
ATOM     15  C   UNL     1      15.457  41.083  52.903  0.00  0.00    +0.000 A 
ATOM     16  C   UNL     1      15.026  39.746  52.865  0.00  0.00    +0.000 A 
ATOM     17  C   UNL     1      15.782  38.755  52.230  0.00  0.00    +0.000 A 
ATOM     18  C   UNL     1      16.993  39.073  51.610  0.00  0.00    +0.000 A 
ATOM     19  C   UNL     1      17.441  40.396  51.639  0.00  0.00    +0.000 A 
ATOM     20  C   UNL     1      16.681  41.384  52.273  0.00  0.00    +0.000 A 
BRANCH  15  22
ATOM     21  C   UNL     1      14.505  41.862  55.102  0.00  0.00    +0.000 C 
ATOM     22  C   UNL     1      14.655  42.195  53.601  0.00  0.00    +0.000 C 
ATOM     23  C   UNL     1      13.232  42.389  53.032  0.00  0.00    +0.000 C 
ATOM     24  C   UNL     1      15.394  43.542  53.451  0.00  0.00    +0.000 C 
ENDBRANCH  15  22
ENDBRANCH   1  18
BRANCH   6  25
ATOM     25  N   UNL     1      22.231  33.623  49.318  0.00  0.00    +0.000 N 
ATOM     26  C   UNL     1      23.132  33.767  48.294  0.00  0.00    +0.000 C 
ATOM     27  N   UNL     1      23.504  34.877  47.771  0.00  0.00    +0.000 NA
ATOM     28  H   UNL     1      22.232  32.719  49.767  0.00  0.00    +0.000 HD
BRANCH  27  29
ATOM     29  C   UNL     1      24.463  34.993  46.672  0.00  0.00    +0.000 C 
ATOM     30  C   UNL     1      25.338  36.242  46.889  0.00  0.00    +0.000 C 
ATOM     31  C   UNL     1      25.706  36.923  45.577  0.00  0.00    +0.000 C 
ATOM     32  C   UNL     1      24.464  37.404  44.825  0.00  0.00    +0.000 C 
ATOM     33  C   UNL     1      23.245  36.502  45.029  0.00  0.00    +0.000 C 
ATOM     34  C   UNL     1      23.648  35.070  45.364  0.00  0.00    +0.000 C 
ENDBRANCH  27  29
BRANCH  26  35
ATOM     35  S   UNL     1      23.754  32.199  47.778  0.00  0.00    +0.000 S 
ATOM     36  H   UNL     1      25.019  32.409  48.155  0.00  0.00    +0.000 HD
ENDBRANCH  26  35
ENDBRANCH   6  25
TORSDOF 5
ENDMDL
MODEL 2
REMARK VINA RESULT:    -6.995      5.164      6.489
REMARK INTER + INTRA:          -9.235
REMARK INTER:                  -8.764
REMARK INTRA:                  -0.471
REMARK UNBOUND:                -0.399
REMARK  Name = 
REMARK  8 active torsions:
REMARK  status: ('A' for Active; 'I' for Inactive)
REMARK    1  A    between atoms: C_1  and  C_2
REMARK    2  A    between atoms: C_2  and  C_3
REMARK    3  A    between atoms: C_2  and  C_4
REMARK    4  A    between atoms: C_2  and  C_5
REMARK    5  A    between atoms: C_8  and  C_9
REMARK    6  A    between atoms: C_14  and  N_15
REMARK    7  A    between atoms: C_16  and  S_17
REMARK    8  A    between atoms: N_18  and  C_19
REMARK                            x       y       z     vdW  Elec       q    Type
REMARK                         _______ _______ _______ _____ _____    ______ ____
ROOT
ATOM      1  C   UNL     1      16.084  40.573  44.775  0.00  0.00    +0.000 C 
ATOM      2  C   UNL     1      16.459  39.984  45.924  0.00  0.00    +0.000 C 
ATOM      3  C   UNL     1      17.083  38.664  45.877  0.00  0.00    +0.000 A 
ATOM      4  C   UNL     1      17.453  38.012  47.054  0.00  0.00    +0.000 A 
ATOM      5  C   UNL     1      18.065  36.753  47.003  0.00  0.00    +0.000 A 
ATOM      6  C   UNL     1      18.324  36.114  45.786  0.00  0.00    +0.000 A 
ATOM      7  C   UNL     1      17.948  36.780  44.608  0.00  0.00    +0.000 A 
ATOM      8  C   UNL     1      17.332  38.041  44.650  0.00  0.00    +0.000 A 
ATOM      9  C   UNL     1      16.925  38.751  43.385  0.00  0.00    +0.000 C 
ATOM     10  N   UNL     1      17.221  38.157  42.272  0.00  0.00    +0.000 NA
ATOM     11  C   UNL     1      16.864  38.822  41.024  0.00  0.00    +0.000 C 
ATOM     12  C   UNL     1      15.603  39.644  41.177  0.00  0.00    +0.000 C 
ATOM     13  C   UNL     1      15.825  40.655  42.284  0.00  0.00    +0.000 C 
ATOM     14  N   UNL     1      16.259  39.981  43.514  0.00  0.00    +0.000 N 
ENDROOT
BRANCH   1  18
ATOM     15  C   UNL     1      14.272  44.477  45.077  0.00  0.00    +0.000 A 
ATOM     16  C   UNL     1      15.246  44.198  44.104  0.00  0.00    +0.000 A 
ATOM     17  C   UNL     1      15.842  42.935  44.012  0.00  0.00    +0.000 A 
ATOM     18  C   UNL     1      15.481  41.913  44.894  0.00  0.00    +0.000 A 
ATOM     19  C   UNL     1      14.512  42.169  45.867  0.00  0.00    +0.000 A 
ATOM     20  C   UNL     1      13.921  43.434  45.957  0.00  0.00    +0.000 A 
BRANCH  15  22
ATOM     21  C   UNL     1      12.854  46.183  43.883  0.00  0.00    +0.000 C 
ATOM     22  C   UNL     1      13.589  45.851  45.199  0.00  0.00    +0.000 C 
ATOM     23  C   UNL     1      14.570  47.011  45.481  0.00  0.00    +0.000 C 
ATOM     24  C   UNL     1      12.570  45.824  46.359  0.00  0.00    +0.000 C 
ENDBRANCH  15  22
ENDBRANCH   1  18
BRANCH   6  25
ATOM     25  N   UNL     1      18.948  34.859  45.676  0.00  0.00    +0.000 N 
ATOM     26  C   UNL     1      20.279  34.548  45.567  0.00  0.00    +0.000 C 
ATOM     27  N   UNL     1      21.254  35.375  45.667  0.00  0.00    +0.000 NA
ATOM     28  H   UNL     1      18.332  34.071  45.812  0.00  0.00    +0.000 HD
BRANCH  27  29
ATOM     29  C   UNL     1      22.665  35.008  45.537  0.00  0.00    +0.000 C 
ATOM     30  C   UNL     1      23.351  35.132  46.911  0.00  0.00    +0.000 C 
ATOM     31  C   UNL     1      24.793  35.610  46.794  0.00  0.00    +0.000 C 
ATOM     32  C   UNL     1      24.876  36.997  46.155  0.00  0.00    +0.000 C 
ATOM     33  C   UNL     1      23.784  37.250  45.113  0.00  0.00    +0.000 C 
ATOM     34  C   UNL     1      23.285  35.953  44.487  0.00  0.00    +0.000 C 
ENDBRANCH  27  29
BRANCH  26  35
ATOM     35  S   UNL     1      20.502  32.821  45.286  0.00  0.00    +0.000 S 
ATOM     36  H   UNL     1      19.515  32.410  46.089  0.00  0.00    +0.000 HD
ENDBRANCH  26  35
ENDBRANCH   6  25
TORSDOF 5
ENDMDL
MODEL 3
REMARK VINA RESULT:    -6.905      5.112      7.092
REMARK INTER + INTRA:          -9.121
REMARK INTER:                  -8.721
REMARK INTRA:                  -0.399
REMARK UNBOUND:                -0.399
REMARK  Name = 
REMARK  8 active torsions:
REMARK  status: ('A' for Active; 'I' for Inactive)
REMARK    1  A    between atoms: C_1  and  C_2
REMARK    2  A    between atoms: C_2  and  C_3
REMARK    3  A    between atoms: C_2  and  C_4
REMARK    4  A    between atoms: C_2  and  C_5
REMARK    5  A    between atoms: C_8  and  C_9
REMARK    6  A    between atoms: C_14  and  N_15
REMARK    7  A    between atoms: C_16  and  S_17
REMARK    8  A    between atoms: N_18  and  C_19
REMARK                            x       y       z     vdW  Elec       q    Type
REMARK                         _______ _______ _______ _____ _____    ______ ____
ROOT
ATOM      1  C   UNL     1      15.102  41.406  45.595  0.00  0.00    +0.000 C 
ATOM      2  C   UNL     1      15.443  40.744  46.715  0.00  0.00    +0.000 C 
ATOM      3  C   UNL     1      16.275  39.549  46.611  0.00  0.00    +0.000 A 
ATOM      4  C   UNL     1      16.617  38.822  47.751  0.00  0.00    +0.000 A 
ATOM      5  C   UNL     1      17.429  37.684  47.648  0.00  0.00    +0.000 A 
ATOM      6  C   UNL     1      17.920  37.245  46.414  0.00  0.00    +0.000 A 
ATOM      7  C   UNL     1      17.569  37.986  45.273  0.00  0.00    +0.000 A 
ATOM      8  C   UNL     1      16.754  39.125  45.368  0.00  0.00    +0.000 A 
ATOM      9  C   UNL     1      16.375  39.914  44.142  0.00  0.00    +0.000 C 
ATOM     10  N   UNL     1      16.884  39.512  43.019  0.00  0.00    +0.000 NA
ATOM     11  C   UNL     1      16.559  40.263  41.812  0.00  0.00    +0.000 C 
ATOM     12  C   UNL     1      15.172  40.862  41.889  0.00  0.00    +0.000 C 
ATOM     13  C   UNL     1      15.105  41.752  43.114  0.00  0.00    +0.000 C 
ATOM     14  N   UNL     1      15.507  41.006  44.312  0.00  0.00    +0.000 N 
ENDROOT
BRANCH   1  18
ATOM     15  C   UNL     1      12.676  44.945  46.055  0.00  0.00    +0.000 A 
ATOM     16  C   UNL     1      14.018  45.028  45.648  0.00  0.00    +0.000 A 
ATOM     17  C   UNL     1      14.809  43.881  45.509  0.00  0.00    +0.000 A 
ATOM     18  C   UNL     1      14.279  42.616  45.776  0.00  0.00    +0.000 A 
ATOM     19  C   UNL     1      12.946  42.511  46.179  0.00  0.00    +0.000 A 
ATOM     20  C   UNL     1      12.160  43.660  46.319  0.00  0.00    +0.000 A 
BRANCH  15  22
ATOM     21  C   UNL     1      10.883  46.333  44.958  0.00  0.00    +0.000 C 
ATOM     22  C   UNL     1      11.776  46.183  46.209  0.00  0.00    +0.000 C 
ATOM     23  C   UNL     1      12.558  47.506  46.373  0.00  0.00    +0.000 C 
ATOM     24  C   UNL     1      10.881  46.025  47.457  0.00  0.00    +0.000 C 
ENDBRANCH  15  22
ENDBRANCH   1  18
BRANCH   6  25
ATOM     25  N   UNL     1      18.749  36.120  46.254  0.00  0.00    +0.000 N 
ATOM     26  C   UNL     1      19.396  35.368  47.199  0.00  0.00    +0.000 C 
ATOM     27  N   UNL     1      19.268  35.483  48.469  0.00  0.00    +0.000 NA
ATOM     28  H   UNL     1      18.774  35.749  45.315  0.00  0.00    +0.000 HD
BRANCH  27  29
ATOM     29  C   UNL     1      19.983  34.666  49.450  0.00  0.00    +0.000 C 
ATOM     30  C   UNL     1      19.027  34.302  50.603  0.00  0.00    +0.000 C 
ATOM     31  C   UNL     1      19.740  34.248  51.948  0.00  0.00    +0.000 C 
ATOM     32  C   UNL     1      20.350  35.602  52.316  0.00  0.00    +0.000 C 
ATOM     33  C   UNL     1      20.832  36.400  51.103  0.00  0.00    +0.000 C 
ATOM     34  C   UNL     1      21.193  35.492  49.933  0.00  0.00    +0.000 C 
ENDBRANCH  27  29
BRANCH  26  35
ATOM     35  S   UNL     1      20.444  34.169  46.439  0.00  0.00    +0.000 S 
ATOM     36  H   UNL     1      19.565  33.765  45.517  0.00  0.00    +0.000 HD
ENDBRANCH  26  35
ENDBRANCH   6  25
TORSDOF 5
ENDMDL
