MODEL 1
REMARK VINA RESULT:    -6.725      0.000      0.000
REMARK INTER + INTRA:          -9.695
REMARK INTER:                  -8.624
REMARK INTRA:                  -1.071
REMARK UNBOUND:                -1.004
REMARK  Name = 
REMARK  6 active torsions:
REMARK  status: ('A' for Active; 'I' for Inactive)
REMARK    1  A    between atoms: C_1  and  C_2
REMARK    2  A    between atoms: N_8  and  C_9
REMARK    3  A    between atoms: C_9  and  C_10
REMARK    4  A    between atoms: C_20  and  O_22
REMARK    5  A    between atoms: O_22  and  C_23
REMARK    6  A    between atoms: C_23  and  C_24
REMARK                            x       y       z     vdW  Elec       q    Type
REMARK                         _______ _______ _______ _____ _____    ______ ____
ROOT
ATOM      1  C   UNL     1      17.724  39.805  54.236  0.00  0.00    +0.000 C 
ATOM      2  C   UNL     1      16.744  38.756  54.734  0.00  0.00    +0.000 C 
ATOM      3  C   UNL     1      17.263  38.063  56.012  0.00  0.00    +0.000 C 
ATOM      4  O   UNL     1      17.247  38.594  57.111  0.00  0.00    +0.000 OA
ATOM      5  N   UNL     1      17.775  36.780  55.663  0.00  0.00    +0.000 N 
ATOM      6  C   UNL     1      18.500  36.004  56.539  0.00  0.00    +0.000 C 
ATOM      7  O   UNL     1      18.248  35.925  57.738  0.00  0.00    +0.000 OA
ATOM      8  N   UNL     1      19.459  35.212  55.945  0.00  0.00    +0.000 N 
ATOM      9  C   UNL     1      17.815  36.725  54.238  0.00  0.00    +0.000 C 
ATOM     10  C   UNL     1      17.617  35.493  53.375  0.00  0.00    +0.000 C 
ATOM     11  C   UNL     1      17.199  36.163  52.042  0.00  0.00    +0.000 C 
ATOM     12  N   UNL     1      16.588  37.436  52.434  0.00  0.00    +0.000 N 
ATOM     13  C   UNL     1      15.766  38.129  51.585  0.00  0.00    +0.000 C 
ATOM     14  O   UNL     1      15.655  37.883  50.392  0.00  0.00    +0.000 OA
ATOM     15  C   UNL     1      16.581  37.523  53.866  0.00  0.00    +0.000 C 
ATOM     16  H   UNL     1      19.917  35.609  55.142  0.00  0.00    +0.000 HD
ENDROOT
BRANCH   8  17
ATOM     17  C   UNL     1      20.319  34.371  56.756  0.00  0.00    +0.000 C 
BRANCH  17  18
ATOM     18  C   UNL     1      21.615  34.088  56.040  0.00  0.00    +0.000 A 
ATOM     19  C   UNL     1      21.674  34.079  54.639  0.00  0.00    +0.000 A 
ATOM     20  C   UNL     1      22.884  33.842  53.984  0.00  0.00    +0.000 A 
ATOM     21  C   UNL     1      24.046  33.620  54.720  0.00  0.00    +0.000 A 
ATOM     22  C   UNL     1      24.001  33.634  56.113  0.00  0.00    +0.000 A 
ATOM     23  C   UNL     1      22.793  33.869  56.770  0.00  0.00    +0.000 A 
ENDBRANCH  17  18
ENDBRANCH   8  17
BRANCH  13  24
ATOM     24  O   UNL     1      15.099  39.113  52.232  0.00  0.00    +0.000 OA
BRANCH  24  25
ATOM     25  C   UNL     1      14.701  40.200  51.396  0.00  0.00    +0.000 C 
BRANCH  25  26
ATOM     26  C   UNL     1      14.856  41.465  52.199  0.00  0.00    +0.000 A 
ATOM     27  C   UNL     1      13.788  41.949  52.969  0.00  0.00    +0.000 A 
ATOM     28  C   UNL     1      13.918  43.134  53.694  0.00  0.00    +0.000 A 
ATOM     29  C   UNL     1      15.112  43.851  53.651  0.00  0.00    +0.000 A 
ATOM     30  C   UNL     1      16.177  43.384  52.880  0.00  0.00    +0.000 A 
ATOM     31  C   UNL     1      16.049  42.199  52.154  0.00  0.00    +0.000 A 
ENDBRANCH  25  26
ENDBRANCH  24  25
ENDBRANCH  13  24
TORSDOF 5
ENDMDL
MODEL 2
REMARK VINA RESULT:    -6.453      4.006      8.843
REMARK INTER + INTRA:          -9.343
REMARK INTER:                  -8.472
REMARK INTRA:                  -0.871
REMARK UNBOUND:                -1.004
REMARK  Name = 
REMARK  6 active torsions:
REMARK  status: ('A' for Active; 'I' for Inactive)
REMARK    1  A    between atoms: C_1  and  C_2
REMARK    2  A    between atoms: N_8  and  C_9
REMARK    3  A    between atoms: C_9  and  C_10
REMARK    4  A    between atoms: C_20  and  O_22
REMARK    5  A    between atoms: O_22  and  C_23
REMARK    6  A    between atoms: C_23  and  C_24
REMARK                            x       y       z     vdW  Elec       q    Type
REMARK                         _______ _______ _______ _____ _____    ______ ____
ROOT
ATOM      1  C   UNL     1      18.540  40.331  52.741  0.00  0.00    +0.000 C 
ATOM      2  C   UNL     1      17.386  39.341  52.729  0.00  0.00    +0.000 C 
ATOM      3  C   UNL     1      17.380  38.500  51.434  0.00  0.00    +0.000 C 
ATOM      4  O   UNL     1      18.163  37.585  51.231  0.00  0.00    +0.000 OA
ATOM      5  N   UNL     1      16.374  39.006  50.562  0.00  0.00    +0.000 N 
ATOM      6  C   UNL     1      16.259  38.610  49.248  0.00  0.00    +0.000 C 
ATOM      7  O   UNL     1      16.449  37.457  48.872  0.00  0.00    +0.000 OA
ATOM      8  N   UNL     1      15.784  39.584  48.396  0.00  0.00    +0.000 N 
ATOM      9  C   UNL     1      15.915  40.232  51.129  0.00  0.00    +0.000 C 
ATOM     10  C   UNL     1      14.511  40.800  51.037  0.00  0.00    +0.000 C 
ATOM     11  C   UNL     1      14.521  41.741  52.269  0.00  0.00    +0.000 C 
ATOM     12  N   UNL     1      15.492  41.146  53.191  0.00  0.00    +0.000 N 
ATOM     13  C   UNL     1      15.504  41.463  54.524  0.00  0.00    +0.000 C 
ATOM     14  O   UNL     1      14.889  42.403  55.006  0.00  0.00    +0.000 OA
ATOM     15  C   UNL     1      15.995  39.932  52.613  0.00  0.00    +0.000 C 
ATOM     16  H   UNL     1      16.071  40.526  48.605  0.00  0.00    +0.000 HD
ENDROOT
BRANCH   8  17
ATOM     17  C   UNL     1      15.648  39.312  46.977  0.00  0.00    +0.000 C 
BRANCH  17  18
ATOM     18  C   UNL     1      15.572  40.598  46.194  0.00  0.00    +0.000 A 
ATOM     19  C   UNL     1      16.036  40.661  44.872  0.00  0.00    +0.000 A 
ATOM     20  C   UNL     1      15.936  41.848  44.144  0.00  0.00    +0.000 A 
ATOM     21  C   UNL     1      15.368  42.979  44.727  0.00  0.00    +0.000 A 
ATOM     22  C   UNL     1      14.897  42.926  46.037  0.00  0.00    +0.000 A 
ATOM     23  C   UNL     1      14.996  41.741  46.767  0.00  0.00    +0.000 A 
ENDBRANCH  17  18
ENDBRANCH   8  17
BRANCH  13  24
ATOM     24  O   UNL     1      16.280  40.608  55.231  0.00  0.00    +0.000 OA
BRANCH  24  25
ATOM     25  C   UNL     1      16.143  40.727  56.647  0.00  0.00    +0.000 C 
BRANCH  25  26
ATOM     26  C   UNL     1      16.902  39.584  57.269  0.00  0.00    +0.000 A 
ATOM     27  C   UNL     1      17.083  38.387  56.561  0.00  0.00    +0.000 A 
ATOM     28  C   UNL     1      17.763  37.316  57.143  0.00  0.00    +0.000 A 
ATOM     29  C   UNL     1      18.261  37.428  58.439  0.00  0.00    +0.000 A 
ATOM     30  C   UNL     1      18.078  38.610  59.156  0.00  0.00    +0.000 A 
ATOM     31  C   UNL     1      17.398  39.682  58.576  0.00  0.00    +0.000 A 
ENDBRANCH  25  26
ENDBRANCH  24  25
ENDBRANCH  13  24
TORSDOF 5
ENDMDL
MODEL 3
REMARK VINA RESULT:    -6.290      3.828      9.377
REMARK INTER + INTRA:          -9.133
REMARK INTER:                  -8.129
REMARK INTRA:                  -1.004
REMARK UNBOUND:                -1.004
REMARK  Name = 
REMARK  6 active torsions:
REMARK  status: ('A' for Active; 'I' for Inactive)
REMARK    1  A    between atoms: C_1  and  C_2
REMARK    2  A    between atoms: N_8  and  C_9
REMARK    3  A    between atoms: C_9  and  C_10
REMARK    4  A    between atoms: C_20  and  O_22
REMARK    5  A    between atoms: O_22  and  C_23
REMARK    6  A    between atoms: C_23  and  C_24
REMARK                            x       y       z     vdW  Elec       q    Type
REMARK                         _______ _______ _______ _____ _____    ______ ____
ROOT
ATOM      1  C   UNL     1      17.327  37.813  52.650  0.00  0.00    +0.000 C 
ATOM      2  C   UNL     1      17.713  39.018  51.807  0.00  0.00    +0.000 C 
ATOM      3  C   UNL     1      17.643  40.323  52.628  0.00  0.00    +0.000 C 
ATOM      4  O   UNL     1      18.485  40.636  53.456  0.00  0.00    +0.000 OA
ATOM      5  N   UNL     1      16.450  41.020  52.283  0.00  0.00    +0.000 N 
ATOM      6  C   UNL     1      15.992  42.110  52.990  0.00  0.00    +0.000 C 
ATOM      7  O   UNL     1      16.732  42.969  53.459  0.00  0.00    +0.000 OA
ATOM      8  N   UNL     1      14.620  42.236  53.022  0.00  0.00    +0.000 N 
ATOM      9  C   UNL     1      15.673  40.135  51.479  0.00  0.00    +0.000 C 
ATOM     10  C   UNL     1      14.736  40.525  50.351  0.00  0.00    +0.000 C 
ATOM     11  C   UNL     1      14.696  39.192  49.561  0.00  0.00    +0.000 C 
ATOM     12  N   UNL     1      15.974  38.539  49.858  0.00  0.00    +0.000 N 
ATOM     13  C   UNL     1      16.470  37.540  49.062  0.00  0.00    +0.000 C 
ATOM     14  O   UNL     1      15.816  36.963  48.205  0.00  0.00    +0.000 OA
ATOM     15  C   UNL     1      16.749  39.402  50.702  0.00  0.00    +0.000 C 
ATOM     16  H   UNL     1      14.102  41.373  53.053  0.00  0.00    +0.000 HD
ENDROOT
BRANCH   8  17
ATOM     17  C   UNL     1      14.002  43.319  53.764  0.00  0.00    +0.000 C 
BRANCH  17  18
ATOM     18  C   UNL     1      12.551  43.467  53.380  0.00  0.00    +0.000 A 
ATOM     19  C   UNL     1      11.817  44.596  53.771  0.00  0.00    +0.000 A 
ATOM     20  C   UNL     1      10.482  44.738  53.388  0.00  0.00    +0.000 A 
ATOM     21  C   UNL     1       9.871  43.760  52.607  0.00  0.00    +0.000 A 
ATOM     22  C   UNL     1      10.593  42.638  52.206  0.00  0.00    +0.000 A 
ATOM     23  C   UNL     1      11.927  42.492  52.588  0.00  0.00    +0.000 A 
ENDBRANCH  17  18
ENDBRANCH   8  17
BRANCH  13  24
ATOM     24  O   UNL     1      17.767  37.276  49.348  0.00  0.00    +0.000 OA
BRANCH  24  25
ATOM     25  C   UNL     1      18.161  35.928  49.090  0.00  0.00    +0.000 C 
BRANCH  25  26
ATOM     26  C   UNL     1      19.591  35.784  49.544  0.00  0.00    +0.000 A 
ATOM     27  C   UNL     1      20.516  35.083  48.756  0.00  0.00    +0.000 A 
ATOM     28  C   UNL     1      21.834  34.925  49.186  0.00  0.00    +0.000 A 
ATOM     29  C   UNL     1      22.238  35.458  50.408  0.00  0.00    +0.000 A 
ATOM     30  C   UNL     1      21.324  36.147  51.204  0.00  0.00    +0.000 A 
ATOM     31  C   UNL     1      20.005  36.306  50.776  0.00  0.00    +0.000 A 
ENDBRANCH  25  26
ENDBRANCH  24  25
ENDBRANCH  13  24
TORSDOF 5
ENDMDL
