MODEL 1
REMARK VINA RESULT:    -6.373      0.000      0.000
REMARK INTER + INTRA:          -8.443
REMARK INTER:                  -5.966
REMARK INTRA:                  -2.477
REMARK UNBOUND:                -0.580
REMARK  Name = 
REMARK  4 active torsions:
REMARK  status: ('A' for Active; 'I' for Inactive)
REMARK    1  A    between atoms: C_8  and  C_9
REMARK    2  A    between atoms: C_9  and  C_10
REMARK    3  A    between atoms: C_10  and  C_11
REMARK    4  A    between atoms: C_11  and  N_12
REMARK                            x       y       z     vdW  Elec       q    Type
REMARK                         _______ _______ _______ _____ _____    ______ ____
ROOT
ATOM      1  C   UNL     1      15.227  42.646  45.455  0.00  0.00    +0.000 C 
ENDROOT
BRANCH   1   9
ATOM      2  F   UNL     1      14.421  48.182  45.063  0.00  0.00    +0.000 F 
ATOM      3  C   UNL     1      13.784  47.107  45.548  0.00  0.00    +0.000 A 
ATOM      4  C   UNL     1      12.550  47.272  46.162  0.00  0.00    +0.000 A 
ATOM      5  C   UNL     1      11.861  46.172  46.678  0.00  0.00    +0.000 A 
ATOM      6  C   UNL     1      12.465  44.914  46.550  0.00  0.00    +0.000 A 
ATOM      7  N   UNL     1      12.026  43.676  46.958  0.00  0.00    +0.000 N 
ATOM      8  C   UNL     1      12.942  42.715  46.626  0.00  0.00    +0.000 A 
ATOM      9  C   UNL     1      14.003  43.326  45.987  0.00  0.00    +0.000 A 
ATOM     10  C   UNL     1      13.705  44.726  45.936  0.00  0.00    +0.000 A 
ATOM     11  C   UNL     1      14.379  45.852  45.423  0.00  0.00    +0.000 A 
ATOM     12  H   UNL     1      11.153  43.507  47.437  0.00  0.00    +0.000 HD
ENDBRANCH   1   9
BRANCH   1  13
ATOM     13  C   UNL     1      14.910  41.741  44.265  0.00  0.00    +0.000 C 
BRANCH  13  14
ATOM     14  C   UNL     1      15.510  42.214  42.934  0.00  0.00    +0.000 C 
BRANCH  14  15
ATOM     15  N   UNL     1      14.600  41.982  41.802  0.00  0.00    +0.000 NA
ATOM     16  C   UNL     1      14.702  43.030  40.771  0.00  0.00    +0.000 C 
ATOM     17  C   UNL     1      14.262  44.425  41.242  0.00  0.00    +0.000 C 
ATOM     18  C   UNL     1      12.985  44.391  42.042  0.00  0.00    +0.000 A 
ATOM     19  C   UNL     1      12.309  45.585  42.333  0.00  0.00    +0.000 A 
ATOM     20  C   UNL     1      11.145  45.566  43.100  0.00  0.00    +0.000 A 
ATOM     21  C   UNL     1      10.650  44.358  43.586  0.00  0.00    +0.000 A 
ATOM     22  C   UNL     1      11.321  43.167  43.308  0.00  0.00    +0.000 A 
ATOM     23  C   UNL     1      12.499  43.173  42.546  0.00  0.00    +0.000 A 
ATOM     24  C   UNL     1      13.188  41.863  42.222  0.00  0.00    +0.000 C 
ENDBRANCH  14  15
ENDBRANCH  13  14
ENDBRANCH   1  13
TORSDOF 4
ENDMDL
MODEL 2
REMARK VINA RESULT:    -6.181      6.630      9.593
REMARK INTER + INTRA:          -8.205
REMARK INTER:                  -7.626
REMARK INTRA:                  -0.580
REMARK UNBOUND:                -0.580
REMARK  Name = 
REMARK  4 active torsions:
REMARK  status: ('A' for Active; 'I' for Inactive)
REMARK    1  A    between atoms: C_8  and  C_9
REMARK    2  A    between atoms: C_9  and  C_10
REMARK    3  A    between atoms: C_10  and  C_11
REMARK    4  A    between atoms: C_11  and  N_12
REMARK                            x       y       z     vdW  Elec       q    Type
REMARK                         _______ _______ _______ _____ _____    ______ ____
ROOT
ATOM      1  C   UNL     1      15.652  38.853  46.867  0.00  0.00    +0.000 C 
ENDROOT
BRANCH   1   9
ATOM      2  F   UNL     1      17.245  40.501  41.749  0.00  0.00    +0.000 F 
ATOM      3  C   UNL     1      16.689  41.032  42.847  0.00  0.00    +0.000 A 
ATOM      4  C   UNL     1      16.360  42.381  42.853  0.00  0.00    +0.000 A 
ATOM      5  C   UNL     1      15.780  42.965  43.981  0.00  0.00    +0.000 A 
ATOM      6  C   UNL     1      15.550  42.139  45.089  0.00  0.00    +0.000 A 
ATOM      7  N   UNL     1      15.001  42.435  46.316  0.00  0.00    +0.000 N 
ATOM      8  C   UNL     1      14.966  41.317  47.102  0.00  0.00    +0.000 A 
ATOM      9  C   UNL     1      15.498  40.262  46.386  0.00  0.00    +0.000 A 
ATOM     10  C   UNL     1      15.871  40.779  45.104  0.00  0.00    +0.000 A 
ATOM     11  C   UNL     1      16.455  40.215  43.952  0.00  0.00    +0.000 A 
ATOM     12  H   UNL     1      14.676  43.351  46.591  0.00  0.00    +0.000 HD
ENDBRANCH   1   9
BRANCH   1  13
ATOM     13  C   UNL     1      17.041  38.593  47.451  0.00  0.00    +0.000 C 
BRANCH  13  14
ATOM     14  C   UNL     1      17.101  38.632  48.984  0.00  0.00    +0.000 C 
BRANCH  14  15
ATOM     15  N   UNL     1      16.738  37.340  49.586  0.00  0.00    +0.000 NA
ATOM     16  C   UNL     1      16.825  37.358  51.057  0.00  0.00    +0.000 C 
ATOM     17  C   UNL     1      18.246  37.568  51.604  0.00  0.00    +0.000 C 
ATOM     18  C   UNL     1      19.274  36.737  50.881  0.00  0.00    +0.000 A 
ATOM     19  C   UNL     1      20.568  36.612  51.406  0.00  0.00    +0.000 A 
ATOM     20  C   UNL     1      21.535  35.872  50.726  0.00  0.00    +0.000 A 
ATOM     21  C   UNL     1      21.220  35.257  49.517  0.00  0.00    +0.000 A 
ATOM     22  C   UNL     1      19.937  35.384  48.983  0.00  0.00    +0.000 A 
ATOM     23  C   UNL     1      18.958  36.134  49.651  0.00  0.00    +0.000 A 
ATOM     24  C   UNL     1      17.560  36.223  49.075  0.00  0.00    +0.000 C 
ENDBRANCH  14  15
ENDBRANCH  13  14
ENDBRANCH   1  13
TORSDOF 4
ENDMDL
MODEL 3
REMARK VINA RESULT:    -6.066      1.397      3.534
REMARK INTER + INTRA:          -8.065
REMARK INTER:                  -5.673
REMARK INTRA:                  -2.392
REMARK UNBOUND:                -0.580
REMARK  Name = 
REMARK  4 active torsions:
REMARK  status: ('A' for Active; 'I' for Inactive)
REMARK    1  A    between atoms: C_8  and  C_9
REMARK    2  A    between atoms: C_9  and  C_10
REMARK    3  A    between atoms: C_10  and  C_11
REMARK    4  A    between atoms: C_11  and  N_12
REMARK                            x       y       z     vdW  Elec       q    Type
REMARK                         _______ _______ _______ _____ _____    ______ ____
ROOT
ATOM      1  C   UNL     1      13.671  44.502  41.113  0.00  0.00    +0.000 C 
ENDROOT
BRANCH   1   9
ATOM      2  F   UNL     1      14.830  47.192  45.896  0.00  0.00    +0.000 F 
ATOM      3  C   UNL     1      13.912  46.338  45.421  0.00  0.00    +0.000 A 
ATOM      4  C   UNL     1      12.889  45.911  46.258  0.00  0.00    +0.000 A 
ATOM      5  C   UNL     1      11.917  45.021  45.794  0.00  0.00    +0.000 A 
ATOM      6  C   UNL     1      12.022  44.587  44.466  0.00  0.00    +0.000 A 
ATOM      7  N   UNL     1      11.222  43.725  43.752  0.00  0.00    +0.000 N 
ATOM      8  C   UNL     1      11.698  43.583  42.477  0.00  0.00    +0.000 A 
ATOM      9  C   UNL     1      12.831  44.362  42.345  0.00  0.00    +0.000 A 
ATOM     10  C   UNL     1      13.041  45.004  43.607  0.00  0.00    +0.000 A 
ATOM     11  C   UNL     1      14.009  45.902  44.101  0.00  0.00    +0.000 A 
ATOM     12  H   UNL     1      10.403  43.264  44.122  0.00  0.00    +0.000 HD
ENDBRANCH   1   9
BRANCH   1  13
ATOM     13  C   UNL     1      14.853  43.533  41.110  0.00  0.00    +0.000 C 
BRANCH  13  14
ATOM     14  C   UNL     1      14.482  42.083  40.772  0.00  0.00    +0.000 C 
BRANCH  14  15
ATOM     15  N   UNL     1      15.380  41.115  41.421  0.00  0.00    +0.000 NA
ATOM     16  C   UNL     1      14.678  39.892  41.847  0.00  0.00    +0.000 C 
ATOM     17  C   UNL     1      13.623  40.117  42.941  0.00  0.00    +0.000 C 
ATOM     18  C   UNL     1      14.109  41.029  44.038  0.00  0.00    +0.000 A 
ATOM     19  C   UNL     1      13.380  41.142  45.230  0.00  0.00    +0.000 A 
ATOM     20  C   UNL     1      13.805  42.009  46.236  0.00  0.00    +0.000 A 
ATOM     21  C   UNL     1      14.957  42.772  46.058  0.00  0.00    +0.000 A 
ATOM     22  C   UNL     1      15.683  42.672  44.871  0.00  0.00    +0.000 A 
ATOM     23  C   UNL     1      15.261  41.811  43.847  0.00  0.00    +0.000 A 
ATOM     24  C   UNL     1      16.088  41.687  42.584  0.00  0.00    +0.000 C 
ENDBRANCH  14  15
ENDBRANCH  13  14
ENDBRANCH   1  13
TORSDOF 4
ENDMDL
