MODEL 1
REMARK VINA RESULT:    -6.489      0.000      0.000
REMARK INTER + INTRA:          -9.892
REMARK INTER:                  -8.858
REMARK INTRA:                  -1.034
REMARK UNBOUND:                -1.127
REMARK  Name = 
REMARK  7 active torsions:
REMARK  status: ('A' for Active; 'I' for Inactive)
REMARK    1  A    between atoms: C_1  and  O_2
REMARK    2  A    between atoms: O_2  and  C_3
REMARK    3  A    between atoms: C_8  and  O_9
REMARK    4  A    between atoms: O_9  and  C_10
REMARK    5  A    between atoms: C_10  and  C_11
REMARK    6  A    between atoms: C_20  and  C_21
REMARK    7  A    between atoms: C_21  and  C_22
REMARK                            x       y       z     vdW  Elec       q    Type
REMARK                         _______ _______ _______ _____ _____    ______ ____
ROOT
ATOM      1  C   UNL     1      17.326  38.493  55.676  0.00  0.00    +0.000 A 
ATOM      2  C   UNL     1      17.104  39.563  54.804  0.00  0.00    +0.000 A 
ATOM      3  C   UNL     1      17.203  39.406  53.408  0.00  0.00    +0.000 A 
ATOM      4  C   UNL     1      17.564  38.148  52.887  0.00  0.00    +0.000 A 
ATOM      5  C   UNL     1      17.807  37.080  53.758  0.00  0.00    +0.000 A 
ATOM      6  C   UNL     1      17.663  37.251  55.133  0.00  0.00    +0.000 A 
ATOM      7  C   UNL     1      17.776  37.964  51.407  0.00  0.00    +0.000 C 
ATOM      8  C   UNL     1      17.149  39.085  50.580  0.00  0.00    +0.000 C 
ATOM      9  N   UNL     1      17.487  40.394  51.130  0.00  0.00    +0.000 NA
ATOM     10  C   UNL     1      16.913  40.585  52.482  0.00  0.00    +0.000 C 
ATOM     11  H   UNL     1      17.148  41.124  50.511  0.00  0.00    +0.000 HD
ENDROOT
BRANCH   1  13
ATOM     12  C   UNL     1      16.950  39.831  57.607  0.00  0.00    +0.000 C 
ATOM     13  O   UNL     1      17.213  38.552  57.040  0.00  0.00    +0.000 OA
ENDBRANCH   1  13
BRANCH   6  14
ATOM     14  O   UNL     1      17.931  36.183  55.952  0.00  0.00    +0.000 OA
BRANCH  14  15
ATOM     15  C   UNL     1      18.309  35.033  55.184  0.00  0.00    +0.000 C 
BRANCH  15  16
ATOM     16  C   UNL     1      19.795  34.788  55.321  0.00  0.00    +0.000 A 
ATOM     17  C   UNL     1      20.601  34.621  54.187  0.00  0.00    +0.000 A 
ATOM     18  C   UNL     1      21.972  34.384  54.324  0.00  0.00    +0.000 A 
ATOM     19  C   UNL     1      22.546  34.300  55.591  0.00  0.00    +0.000 A 
ATOM     20  C   UNL     1      21.752  34.455  56.726  0.00  0.00    +0.000 A 
ATOM     21  C   UNL     1      20.383  34.696  56.592  0.00  0.00    +0.000 A 
ENDBRANCH  15  16
ENDBRANCH  14  15
ENDBRANCH   6  14
BRANCH  10  22
ATOM     22  C   UNL     1      15.394  40.918  52.395  0.00  0.00    +0.000 C 
BRANCH  22  23
ATOM     23  C   UNL     1      15.020  42.314  52.852  0.00  0.00    +0.000 A 
ATOM     24  C   UNL     1      13.702  42.606  53.251  0.00  0.00    +0.000 A 
ATOM     25  C   UNL     1      13.351  43.898  53.654  0.00  0.00    +0.000 A 
ATOM     26  C   UNL     1      14.313  44.909  53.666  0.00  0.00    +0.000 A 
ATOM     27  C   UNL     1      15.628  44.628  53.280  0.00  0.00    +0.000 A 
ATOM     28  C   UNL     1      15.983  43.337  52.879  0.00  0.00    +0.000 A 
ENDBRANCH  22  23
ENDBRANCH  10  22
TORSDOF 6
ENDMDL
MODEL 2
REMARK VINA RESULT:    -6.054      6.540      8.503
REMARK INTER + INTRA:          -9.305
REMARK INTER:                  -8.197
REMARK INTRA:                  -1.108
REMARK UNBOUND:                -1.127
REMARK  Name = 
REMARK  7 active torsions:
REMARK  status: ('A' for Active; 'I' for Inactive)
REMARK    1  A    between atoms: C_1  and  O_2
REMARK    2  A    between atoms: O_2  and  C_3
REMARK    3  A    between atoms: C_8  and  O_9
REMARK    4  A    between atoms: O_9  and  C_10
REMARK    5  A    between atoms: C_10  and  C_11
REMARK    6  A    between atoms: C_20  and  C_21
REMARK    7  A    between atoms: C_21  and  C_22
REMARK                            x       y       z     vdW  Elec       q    Type
REMARK                         _______ _______ _______ _____ _____    ______ ____
ROOT
ATOM      1  C   UNL     1      14.895  41.003  47.284  0.00  0.00    +0.000 A 
ATOM      2  C   UNL     1      14.942  42.229  46.616  0.00  0.00    +0.000 A 
ATOM      3  C   UNL     1      15.426  42.328  45.296  0.00  0.00    +0.000 A 
ATOM      4  C   UNL     1      15.899  41.168  44.655  0.00  0.00    +0.000 A 
ATOM      5  C   UNL     1      15.874  39.942  45.329  0.00  0.00    +0.000 A 
ATOM      6  C   UNL     1      15.353  39.863  46.619  0.00  0.00    +0.000 A 
ATOM      7  C   UNL     1      16.515  41.249  43.282  0.00  0.00    +0.000 C 
ATOM      8  C   UNL     1      16.160  42.545  42.554  0.00  0.00    +0.000 C 
ATOM      9  N   UNL     1      16.350  43.702  43.424  0.00  0.00    +0.000 NA
ATOM     10  C   UNL     1      15.424  43.677  44.579  0.00  0.00    +0.000 C 
ATOM     11  H   UNL     1      16.209  44.557  42.894  0.00  0.00    +0.000 HD
ENDROOT
BRANCH   1  13
ATOM     12  C   UNL     1      12.992  40.729  48.686  0.00  0.00    +0.000 C 
ATOM     13  O   UNL     1      14.406  40.815  48.551  0.00  0.00    +0.000 OA
ENDBRANCH   1  13
BRANCH   6  14
ATOM     14  O   UNL     1      15.365  38.646  47.251  0.00  0.00    +0.000 OA
BRANCH  14  15
ATOM     15  C   UNL     1      16.603  37.961  47.017  0.00  0.00    +0.000 C 
BRANCH  15  16
ATOM     16  C   UNL     1      17.263  37.625  48.336  0.00  0.00    +0.000 A 
ATOM     17  C   UNL     1      17.044  38.418  49.469  0.00  0.00    +0.000 A 
ATOM     18  C   UNL     1      17.667  38.106  50.681  0.00  0.00    +0.000 A 
ATOM     19  C   UNL     1      18.523  37.010  50.767  0.00  0.00    +0.000 A 
ATOM     20  C   UNL     1      18.756  36.220  49.643  0.00  0.00    +0.000 A 
ATOM     21  C   UNL     1      18.132  36.527  48.433  0.00  0.00    +0.000 A 
ENDBRANCH  15  16
ENDBRANCH  14  15
ENDBRANCH   6  14
BRANCH  10  22
ATOM     22  C   UNL     1      13.995  44.124  44.151  0.00  0.00    +0.000 C 
BRANCH  22  23
ATOM     23  C   UNL     1      13.369  45.189  45.031  0.00  0.00    +0.000 A 
ATOM     24  C   UNL     1      12.277  44.877  45.863  0.00  0.00    +0.000 A 
ATOM     25  C   UNL     1      11.686  45.862  46.659  0.00  0.00    +0.000 A 
ATOM     26  C   UNL     1      12.182  47.166  46.636  0.00  0.00    +0.000 A 
ATOM     27  C   UNL     1      13.273  47.486  45.820  0.00  0.00    +0.000 A 
ATOM     28  C   UNL     1      13.868  46.503  45.024  0.00  0.00    +0.000 A 
ENDBRANCH  22  23
ENDBRANCH  10  22
TORSDOF 6
ENDMDL
MODEL 3
REMARK VINA RESULT:    -6.039      4.793      8.311
REMARK INTER + INTRA:          -9.284
REMARK INTER:                  -8.157
REMARK INTRA:                  -1.127
REMARK UNBOUND:                -1.127
REMARK  Name = 
REMARK  7 active torsions:
REMARK  status: ('A' for Active; 'I' for Inactive)
REMARK    1  A    between atoms: C_1  and  O_2
REMARK    2  A    between atoms: O_2  and  C_3
REMARK    3  A    between atoms: C_8  and  O_9
REMARK    4  A    between atoms: O_9  and  C_10
REMARK    5  A    between atoms: C_10  and  C_11
REMARK    6  A    between atoms: C_20  and  C_21
REMARK    7  A    between atoms: C_21  and  C_22
REMARK                            x       y       z     vdW  Elec       q    Type
REMARK                         _______ _______ _______ _____ _____    ______ ____
ROOT
ATOM      1  C   UNL     1      14.644  39.939  48.499  0.00  0.00    +0.000 A 
ATOM      2  C   UNL     1      14.821  40.224  49.856  0.00  0.00    +0.000 A 
ATOM      3  C   UNL     1      15.874  39.651  50.595  0.00  0.00    +0.000 A 
ATOM      4  C   UNL     1      16.745  38.749  49.955  0.00  0.00    +0.000 A 
ATOM      5  C   UNL     1      16.558  38.445  48.602  0.00  0.00    +0.000 A 
ATOM      6  C   UNL     1      15.534  39.056  47.882  0.00  0.00    +0.000 A 
ATOM      7  C   UNL     1      17.823  38.041  50.734  0.00  0.00    +0.000 C 
ATOM      8  C   UNL     1      18.123  38.718  52.070  0.00  0.00    +0.000 C 
ATOM      9  N   UNL     1      16.891  39.024  52.791  0.00  0.00    +0.000 NA
ATOM     10  C   UNL     1      16.065  40.017  52.066  0.00  0.00    +0.000 C 
ATOM     11  H   UNL     1      17.113  39.377  53.716  0.00  0.00    +0.000 HD
ENDROOT
BRANCH   1  13
ATOM     12  C   UNL     1      12.604  41.155  48.358  0.00  0.00    +0.000 C 
ATOM     13  O   UNL     1      13.671  40.481  47.701  0.00  0.00    +0.000 OA
ENDBRANCH   1  13
BRANCH   6  14
ATOM     14  O   UNL     1      15.373  38.715  46.563  0.00  0.00    +0.000 OA
BRANCH  14  15
ATOM     15  C   UNL     1      16.604  38.869  45.843  0.00  0.00    +0.000 C 
BRANCH  15  16
ATOM     16  C   UNL     1      16.413  39.840  44.699  0.00  0.00    +0.000 A 
ATOM     17  C   UNL     1      16.792  39.495  43.395  0.00  0.00    +0.000 A 
ATOM     18  C   UNL     1      16.622  40.404  42.347  0.00  0.00    +0.000 A 
ATOM     19  C   UNL     1      16.086  41.667  42.593  0.00  0.00    +0.000 A 
ATOM     20  C   UNL     1      15.715  42.024  43.888  0.00  0.00    +0.000 A 
ATOM     21  C   UNL     1      15.880  41.116  44.937  0.00  0.00    +0.000 A 
ENDBRANCH  15  16
ENDBRANCH  14  15
ENDBRANCH   6  14
BRANCH  10  22
ATOM     22  C   UNL     1      16.635  41.453  52.256  0.00  0.00    +0.000 C 
BRANCH  22  23
ATOM     23  C   UNL     1      15.637  42.472  52.774  0.00  0.00    +0.000 A 
ATOM     24  C   UNL     1      14.303  42.102  53.025  0.00  0.00    +0.000 A 
ATOM     25  C   UNL     1      13.378  43.045  53.483  0.00  0.00    +0.000 A 
ATOM     26  C   UNL     1      13.778  44.364  53.698  0.00  0.00    +0.000 A 
ATOM     27  C   UNL     1      15.104  44.742  53.460  0.00  0.00    +0.000 A 
ATOM     28  C   UNL     1      16.032  43.801  53.005  0.00  0.00    +0.000 A 
ENDBRANCH  22  23
ENDBRANCH  10  22
TORSDOF 6
ENDMDL
