MODEL 1
REMARK VINA RESULT:    -7.285      0.000      0.000
REMARK INTER + INTRA:          -7.711
REMARK INTER:                  -7.711
REMARK INTRA:                   0.000
REMARK UNBOUND:                 0.000
REMARK  Name = 
REMARK  2 active torsions:
REMARK  status: ('A' for Active; 'I' for Inactive)
REMARK    1  A    between atoms: O_1  and  C_2
REMARK    2  A    between atoms: C_23  and  O_24
REMARK                            x       y       z     vdW  Elec       q    Type
REMARK                         _______ _______ _______ _____ _____    ______ ____
ROOT
ATOM      1  C   UNL     1      16.532  41.019  42.662  0.00  0.00    +0.000 C 
ATOM      2  C   UNL     1      16.899  42.455  42.873  0.00  0.00    +0.000 C 
ATOM      3  C   UNL     1      16.224  43.265  43.702  0.00  0.00    +0.000 C 
ATOM      4  C   UNL     1      15.023  42.802  44.430  0.00  0.00    +0.000 A 
ATOM      5  C   UNL     1      14.797  41.407  44.503  0.00  0.00    +0.000 A 
ATOM      6  C   UNL     1      13.705  40.915  45.225  0.00  0.00    +0.000 A 
ATOM      7  C   UNL     1      12.829  41.792  45.853  0.00  0.00    +0.000 A 
ATOM      8  C   UNL     1      13.020  43.177  45.779  0.00  0.00    +0.000 A 
ATOM      9  C   UNL     1      12.114  44.034  46.419  0.00  0.00    +0.000 A 
ATOM     10  C   UNL     1      12.248  45.430  46.375  0.00  0.00    +0.000 A 
ATOM     11  C   UNL     1      11.313  46.234  47.034  0.00  0.00    +0.000 A 
ATOM     12  C   UNL     1      11.417  47.621  47.006  0.00  0.00    +0.000 A 
ATOM     13  C   UNL     1      12.459  48.243  46.317  0.00  0.00    +0.000 A 
ATOM     14  C   UNL     1      12.536  49.647  46.307  0.00  0.00    +0.000 A 
ATOM     15  C   UNL     1      13.560  50.306  45.632  0.00  0.00    +0.000 A 
ATOM     16  C   UNL     1      14.521  49.566  44.959  0.00  0.00    +0.000 A 
ATOM     17  C   UNL     1      14.454  48.170  44.962  0.00  0.00    +0.000 A 
ATOM     18  C   UNL     1      13.428  47.460  45.637  0.00  0.00    +0.000 A 
ATOM     19  C   UNL     1      13.317  46.021  45.670  0.00  0.00    +0.000 A 
ATOM     20  C   UNL     1      14.222  45.129  45.030  0.00  0.00    +0.000 A 
ATOM     21  C   UNL     1      14.115  43.710  45.065  0.00  0.00    +0.000 A 
ATOM     22  C   UNL     1      15.756  40.419  43.863  0.00  0.00    +0.000 C 
ENDROOT
BRANCH   1  23
ATOM     23  O   UNL     1      15.766  40.956  41.458  0.00  0.00    +0.000 OA
ATOM     24  H   UNL     1      16.046  41.707  40.906  0.00  0.00    +0.000 HD
ENDBRANCH   1  23
BRANCH  22  25
ATOM     25  O   UNL     1      16.673  39.967  44.867  0.00  0.00    +0.000 OA
ATOM     26  H   UNL     1      16.381  39.080  45.145  0.00  0.00    +0.000 HD
ENDBRANCH  22  25
TORSDOF 2
ENDMDL
MODEL 2
REMARK VINA RESULT:    -7.271      3.568      7.285
REMARK INTER + INTRA:          -7.696
REMARK INTER:                  -7.696
REMARK INTRA:                   0.000
REMARK UNBOUND:                 0.000
REMARK  Name = 
REMARK  2 active torsions:
REMARK  status: ('A' for Active; 'I' for Inactive)
REMARK    1  A    between atoms: O_1  and  C_2
REMARK    2  A    between atoms: C_23  and  O_24
REMARK                            x       y       z     vdW  Elec       q    Type
REMARK                         _______ _______ _______ _____ _____    ______ ____
ROOT
ATOM      1  C   UNL     1      14.587  51.742  45.166  0.00  0.00    +0.000 C 
ATOM      2  C   UNL     1      15.185  50.623  44.371  0.00  0.00    +0.000 C 
ATOM      3  C   UNL     1      14.726  49.364  44.428  0.00  0.00    +0.000 C 
ATOM      4  C   UNL     1      13.619  48.982  45.333  0.00  0.00    +0.000 A 
ATOM      5  C   UNL     1      12.832  50.022  45.882  0.00  0.00    +0.000 A 
ATOM      6  C   UNL     1      11.742  49.713  46.700  0.00  0.00    +0.000 A 
ATOM      7  C   UNL     1      11.441  48.388  46.993  0.00  0.00    +0.000 A 
ATOM      8  C   UNL     1      12.216  47.342  46.478  0.00  0.00    +0.000 A 
ATOM      9  C   UNL     1      11.888  46.017  46.798  0.00  0.00    +0.000 A 
ATOM     10  C   UNL     1      12.631  44.928  46.318  0.00  0.00    +0.000 A 
ATOM     11  C   UNL     1      12.255  43.628  46.671  0.00  0.00    +0.000 A 
ATOM     12  C   UNL     1      12.974  42.528  46.214  0.00  0.00    +0.000 A 
ATOM     13  C   UNL     1      14.089  42.696  45.392  0.00  0.00    +0.000 A 
ATOM     14  C   UNL     1      14.793  41.563  44.947  0.00  0.00    +0.000 A 
ATOM     15  C   UNL     1      15.911  41.689  44.126  0.00  0.00    +0.000 A 
ATOM     16  C   UNL     1      16.334  42.951  43.738  0.00  0.00    +0.000 A 
ATOM     17  C   UNL     1      15.641  44.084  44.174  0.00  0.00    +0.000 A 
ATOM     18  C   UNL     1      14.499  44.000  45.012  0.00  0.00    +0.000 A 
ATOM     19  C   UNL     1      13.751  45.139  45.487  0.00  0.00    +0.000 A 
ATOM     20  C   UNL     1      14.061  46.492  45.177  0.00  0.00    +0.000 A 
ATOM     21  C   UNL     1      13.320  47.616  45.642  0.00  0.00    +0.000 A 
ATOM     22  C   UNL     1      13.108  51.478  45.550  0.00  0.00    +0.000 C 
ENDROOT
BRANCH   1  23
ATOM     23  O   UNL     1      15.406  51.918  46.323  0.00  0.00    +0.000 OA
ATOM     24  H   UNL     1      16.296  51.598  46.090  0.00  0.00    +0.000 HD
ENDBRANCH   1  23
BRANCH  22  25
ATOM     25  O   UNL     1      12.242  51.867  44.477  0.00  0.00    +0.000 OA
ATOM     26  H   UNL     1      12.370  51.224  43.756  0.00  0.00    +0.000 HD
ENDBRANCH  22  25
TORSDOF 2
ENDMDL
MODEL 3
REMARK VINA RESULT:    -7.025      1.373      2.284
REMARK INTER + INTRA:          -7.436
REMARK INTER:                  -7.436
REMARK INTRA:                   0.000
REMARK UNBOUND:                 0.000
REMARK  Name = 
REMARK  2 active torsions:
REMARK  status: ('A' for Active; 'I' for Inactive)
REMARK    1  A    between atoms: O_1  and  C_2
REMARK    2  A    between atoms: C_23  and  O_24
REMARK                            x       y       z     vdW  Elec       q    Type
REMARK                         _______ _______ _______ _____ _____    ______ ____
ROOT
ATOM      1  C   UNL     1      14.726  41.074  44.853  0.00  0.00    +0.000 C 
ATOM      2  C   UNL     1      15.558  42.314  44.749  0.00  0.00    +0.000 C 
ATOM      3  C   UNL     1      15.157  43.501  45.227  0.00  0.00    +0.000 C 
ATOM      4  C   UNL     1      13.825  43.678  45.846  0.00  0.00    +0.000 A 
ATOM      5  C   UNL     1      13.122  42.512  46.233  0.00  0.00    +0.000 A 
ATOM      6  C   UNL     1      11.884  42.626  46.872  0.00  0.00    +0.000 A 
ATOM      7  C   UNL     1      11.331  43.879  47.109  0.00  0.00    +0.000 A 
ATOM      8  C   UNL     1      11.998  45.047  46.718  0.00  0.00    +0.000 A 
ATOM      9  C   UNL     1      11.409  46.294  46.967  0.00  0.00    +0.000 A 
ATOM     10  C   UNL     1      12.026  47.498  46.592  0.00  0.00    +0.000 A 
ATOM     11  C   UNL     1      11.391  48.712  46.868  0.00  0.00    +0.000 A 
ATOM     12  C   UNL     1      11.975  49.922  46.506  0.00  0.00    +0.000 A 
ATOM     13  C   UNL     1      13.210  49.952  45.858  0.00  0.00    +0.000 A 
ATOM     14  C   UNL     1      13.773  51.191  45.506  0.00  0.00    +0.000 A 
ATOM     15  C   UNL     1      15.004  51.263  44.858  0.00  0.00    +0.000 A 
ATOM     16  C   UNL     1      15.686  50.094  44.558  0.00  0.00    +0.000 A 
ATOM     17  C   UNL     1      15.136  48.856  44.904  0.00  0.00    +0.000 A 
ATOM     18  C   UNL     1      13.885  48.739  45.563  0.00  0.00    +0.000 A 
ATOM     19  C   UNL     1      13.277  47.485  45.941  0.00  0.00    +0.000 A 
ATOM     20  C   UNL     1      13.852  46.207  45.701  0.00  0.00    +0.000 A 
ATOM     21  C   UNL     1      13.254  44.971  46.077  0.00  0.00    +0.000 A 
ATOM     22  C   UNL     1      13.715  41.130  46.026  0.00  0.00    +0.000 C 
ENDROOT
BRANCH   1  23
ATOM     23  O   UNL     1      14.065  40.907  43.598  0.00  0.00    +0.000 OA
ATOM     24  H   UNL     1      13.232  40.435  43.778  0.00  0.00    +0.000 HD
ENDBRANCH   1  23
BRANCH  22  25
ATOM     25  O   UNL     1      14.349  40.725  47.246  0.00  0.00    +0.000 OA
ATOM     26  H   UNL     1      14.444  41.521  47.799  0.00  0.00    +0.000 HD
ENDBRANCH  22  25
TORSDOF 2
ENDMDL
