MODEL 1
REMARK VINA RESULT:    -4.822      0.000      0.000
REMARK INTER + INTRA:         -11.510
REMARK INTER:                  -8.872
REMARK INTRA:                  -2.638
REMARK UNBOUND:                -3.728
REMARK  Name = 
REMARK  11 active torsions:
REMARK  status: ('A' for Active; 'I' for Inactive)
REMARK    1  A    between atoms: N_1  and  C_2
REMARK    2  A    between atoms: N_5  and  C_6
REMARK    3  A    between atoms: C_6  and  C_7
REMARK    4  A    between atoms: C_7  and  C_8
REMARK    5  A    between atoms: C_8  and  C_9
REMARK    6  A    between atoms: C_9  and  C_10
REMARK    7  A    between atoms: C_10  and  C_11
REMARK    8  A    between atoms: C_11  and  C_12
REMARK    9  A    between atoms: C_12  and  N_13
REMARK   10  A    between atoms: N_13  and  S_14
REMARK   11  A    between atoms: S_14  and  C_17
REMARK                            x       y       z     vdW  Elec       q    Type
REMARK                         _______ _______ _______ _____ _____    ______ ____
ROOT
ATOM      1  C   UNL     1      10.190  44.492  43.452  0.00  0.00    +0.000 C 
ENDROOT
BRANCH   1   2
ATOM      2  C   UNL     1      11.488  43.744  43.136  0.00  0.00    +0.000 C 
BRANCH   2   3
ATOM      3  C   UNL     1      12.273  44.353  41.970  0.00  0.00    +0.000 C 
BRANCH   3   4
ATOM      4  C   UNL     1      13.652  44.886  42.369  0.00  0.00    +0.000 C 
BRANCH   4   8
ATOM      5  C   UNL     1      15.981  40.866  42.040  0.00  0.00    +0.000 A 
ATOM      6  N   UNL     1      15.555  42.008  41.487  0.00  0.00    +0.000 NA
ATOM      7  C   UNL     1      15.112  42.960  42.315  0.00  0.00    +0.000 A 
ATOM      8  N   UNL     1      14.697  44.132  41.700  0.00  0.00    +0.000 N 
ATOM      9  N   UNL     1      15.045  42.829  43.645  0.00  0.00    +0.000 NA
ATOM     10  C   UNL     1      15.485  41.688  44.186  0.00  0.00    +0.000 A 
ATOM     11  C   UNL     1      15.446  41.536  45.568  0.00  0.00    +0.000 A 
ATOM     12  C   UNL     1      15.900  40.373  46.197  0.00  0.00    +0.000 A 
ATOM     13  C   UNL     1      16.411  39.330  45.435  0.00  0.00    +0.000 A 
ATOM     14  C   UNL     1      16.457  39.457  44.049  0.00  0.00    +0.000 A 
ATOM     15  C   UNL     1      15.987  40.636  43.417  0.00  0.00    +0.000 A 
ATOM     16  H   UNL     1      14.524  43.897  40.729  0.00  0.00    +0.000 HD
BRANCH   5  17
ATOM     17  N   UNL     1      16.445  39.904  41.129  0.00  0.00    +0.000 N 
ATOM     18  H   UNL     1      17.446  39.775  41.213  0.00  0.00    +0.000 HD
ATOM     19  H   UNL     1      15.937  39.044  41.325  0.00  0.00    +0.000 HD
ENDBRANCH   5  17
ENDBRANCH   4   8
ENDBRANCH   3   4
ENDBRANCH   2   3
ENDBRANCH   1   2
BRANCH   1  20
ATOM     20  C   UNL     1      10.340  46.016  43.408  0.00  0.00    +0.000 C 
BRANCH  20  21
ATOM     21  C   UNL     1       9.232  46.820  44.100  0.00  0.00    +0.000 C 
BRANCH  21  22
ATOM     22  C   UNL     1       9.639  48.204  44.605  0.00  0.00    +0.000 C 
BRANCH  22  23
ATOM     23  N   UNL     1       9.370  48.314  46.040  0.00  0.00    +0.000 NA
ATOM     24  H   UNL     1       8.490  48.728  46.341  0.00  0.00    +0.000 HD
BRANCH  23  25
ATOM     25  S   UNL     1      10.640  48.716  47.067  0.00  0.00    +0.000 S 
ATOM     26  O   UNL     1      10.999  50.089  46.780  0.00  0.00    +0.000 OA
ATOM     27  O   UNL     1      10.242  48.311  48.398  0.00  0.00    +0.000 OA
BRANCH  25  28
ATOM     28  C   UNL     1      11.951  47.640  46.523  0.00  0.00    +0.000 A 
ATOM     29  C   UNL     1      13.060  48.255  45.916  0.00  0.00    +0.000 A 
ATOM     30  C   UNL     1      14.117  47.483  45.453  0.00  0.00    +0.000 A 
ATOM     31  C   UNL     1      14.073  46.099  45.595  0.00  0.00    +0.000 A 
ATOM     32  C   UNL     1      12.978  45.462  46.203  0.00  0.00    +0.000 A 
ATOM     33  C   UNL     1      12.976  44.062  46.327  0.00  0.00    +0.000 A 
ATOM     34  C   UNL     1      11.913  43.392  46.928  0.00  0.00    +0.000 A 
ATOM     35  C   UNL     1      10.835  44.116  47.415  0.00  0.00    +0.000 A 
ATOM     36  C   UNL     1      10.821  45.509  47.298  0.00  0.00    +0.000 A 
ATOM     37  C   UNL     1      11.885  46.226  46.689  0.00  0.00    +0.000 A 
ENDBRANCH  25  28
ENDBRANCH  23  25
ENDBRANCH  22  23
ENDBRANCH  21  22
ENDBRANCH  20  21
ENDBRANCH   1  20
TORSDOF 11
ENDMDL
MODEL 2
REMARK VINA RESULT:    -4.587      1.596      2.204
REMARK INTER + INTRA:         -11.131
REMARK INTER:                  -8.635
REMARK INTRA:                  -2.496
REMARK UNBOUND:                -3.728
REMARK  Name = 
REMARK  11 active torsions:
REMARK  status: ('A' for Active; 'I' for Inactive)
REMARK    1  A    between atoms: N_1  and  C_2
REMARK    2  A    between atoms: N_5  and  C_6
REMARK    3  A    between atoms: C_6  and  C_7
REMARK    4  A    between atoms: C_7  and  C_8
REMARK    5  A    between atoms: C_8  and  C_9
REMARK    6  A    between atoms: C_9  and  C_10
REMARK    7  A    between atoms: C_10  and  C_11
REMARK    8  A    between atoms: C_11  and  C_12
REMARK    9  A    between atoms: C_12  and  N_13
REMARK   10  A    between atoms: N_13  and  S_14
REMARK   11  A    between atoms: S_14  and  C_17
REMARK                            x       y       z     vdW  Elec       q    Type
REMARK                         _______ _______ _______ _____ _____    ______ ____
ROOT
ATOM      1  C   UNL     1      11.695  45.557  42.672  0.00  0.00    +0.000 C 
ENDROOT
BRANCH   1   2
ATOM      2  C   UNL     1      11.108  46.200  41.413  0.00  0.00    +0.000 C 
BRANCH   2   3
ATOM      3  C   UNL     1      11.253  45.331  40.161  0.00  0.00    +0.000 C 
BRANCH   3   4
ATOM      4  C   UNL     1      12.511  45.636  39.343  0.00  0.00    +0.000 C 
BRANCH   4   8
ATOM      5  C   UNL     1      14.440  41.505  40.300  0.00  0.00    +0.000 A 
ATOM      6  N   UNL     1      13.765  42.305  39.465  0.00  0.00    +0.000 NA
ATOM      7  C   UNL     1      13.784  43.616  39.724  0.00  0.00    +0.000 A 
ATOM      8  N   UNL     1      13.085  44.407  38.824  0.00  0.00    +0.000 N 
ATOM      9  N   UNL     1      14.409  44.167  40.771  0.00  0.00    +0.000 NA
ATOM     10  C   UNL     1      15.091  43.360  41.591  0.00  0.00    +0.000 A 
ATOM     11  C   UNL     1      15.767  43.911  42.674  0.00  0.00    +0.000 A 
ATOM     12  C   UNL     1      16.507  43.124  43.562  0.00  0.00    +0.000 A 
ATOM     13  C   UNL     1      16.581  41.751  43.370  0.00  0.00    +0.000 A 
ATOM     14  C   UNL     1      15.910  41.175  42.295  0.00  0.00    +0.000 A 
ATOM     15  C   UNL     1      15.155  41.978  41.403  0.00  0.00    +0.000 A 
ATOM     16  H   UNL     1      12.446  43.787  38.339  0.00  0.00    +0.000 HD
BRANCH   5  17
ATOM     17  N   UNL     1      14.396  40.141  39.978  0.00  0.00    +0.000 N 
ATOM     18  H   UNL     1      13.530  39.904  39.509  0.00  0.00    +0.000 HD
ATOM     19  H   UNL     1      15.206  39.950  39.391  0.00  0.00    +0.000 HD
ENDBRANCH   5  17
ENDBRANCH   4   8
ENDBRANCH   3   4
ENDBRANCH   2   3
ENDBRANCH   1   2
BRANCH   1  20
ATOM     20  C   UNL     1      10.658  44.802  43.509  0.00  0.00    +0.000 C 
BRANCH  20  21
ATOM     21  C   UNL     1       9.454  45.624  43.988  0.00  0.00    +0.000 C 
BRANCH  21  22
ATOM     22  C   UNL     1       9.784  47.000  44.568  0.00  0.00    +0.000 C 
BRANCH  22  23
ATOM     23  N   UNL     1       9.437  47.041  45.990  0.00  0.00    +0.000 NA
ATOM     24  H   UNL     1       8.493  47.315  46.255  0.00  0.00    +0.000 HD
BRANCH  23  25
ATOM     25  S   UNL     1      10.586  47.604  47.082  0.00  0.00    +0.000 S 
ATOM     26  O   UNL     1      10.608  49.047  46.967  0.00  0.00    +0.000 OA
ATOM     27  O   UNL     1      10.309  46.959  48.346  0.00  0.00    +0.000 OA
BRANCH  25  28
ATOM     28  C   UNL     1      12.109  46.941  46.437  0.00  0.00    +0.000 A 
ATOM     29  C   UNL     1      13.014  47.864  45.886  0.00  0.00    +0.000 A 
ATOM     30  C   UNL     1      14.218  47.424  45.350  0.00  0.00    +0.000 A 
ATOM     31  C   UNL     1      14.523  46.066  45.365  0.00  0.00    +0.000 A 
ATOM     32  C   UNL     1      13.636  45.125  45.915  0.00  0.00    +0.000 A 
ATOM     33  C   UNL     1      13.984  43.764  45.910  0.00  0.00    +0.000 A 
ATOM     34  C   UNL     1      13.137  42.799  46.450  0.00  0.00    +0.000 A 
ATOM     35  C   UNL     1      11.925  43.185  47.004  0.00  0.00    +0.000 A 
ATOM     36  C   UNL     1      11.563  44.535  47.016  0.00  0.00    +0.000 A 
ATOM     37  C   UNL     1      12.400  45.546  46.472  0.00  0.00    +0.000 A 
ENDBRANCH  25  28
ENDBRANCH  23  25
ENDBRANCH  22  23
ENDBRANCH  21  22
ENDBRANCH  20  21
ENDBRANCH   1  20
TORSDOF 11
ENDMDL
MODEL 3
REMARK VINA RESULT:    -4.399      4.262      6.766
REMARK INTER + INTRA:         -10.827
REMARK INTER:                  -7.099
REMARK INTRA:                  -3.728
REMARK UNBOUND:                -3.728
REMARK  Name = 
REMARK  11 active torsions:
REMARK  status: ('A' for Active; 'I' for Inactive)
REMARK    1  A    between atoms: N_1  and  C_2
REMARK    2  A    between atoms: N_5  and  C_6
REMARK    3  A    between atoms: C_6  and  C_7
REMARK    4  A    between atoms: C_7  and  C_8
REMARK    5  A    between atoms: C_8  and  C_9
REMARK    6  A    between atoms: C_9  and  C_10
REMARK    7  A    between atoms: C_10  and  C_11
REMARK    8  A    between atoms: C_11  and  C_12
REMARK    9  A    between atoms: C_12  and  N_13
REMARK   10  A    between atoms: N_13  and  S_14
REMARK   11  A    between atoms: S_14  and  C_17
REMARK                            x       y       z     vdW  Elec       q    Type
REMARK                         _______ _______ _______ _____ _____    ______ ____
ROOT
ATOM      1  C   UNL     1      11.395  40.665  38.477  0.00  0.00    +0.000 C 
ENDROOT
BRANCH   1   2
ATOM      2  C   UNL     1      11.532  42.187  38.393  0.00  0.00    +0.000 C 
BRANCH   2   3
ATOM      3  C   UNL     1      12.438  42.778  39.477  0.00  0.00    +0.000 C 
BRANCH   3   4
ATOM      4  C   UNL     1      13.104  44.095  39.070  0.00  0.00    +0.000 C 
BRANCH   4   8
ATOM      5  C   UNL     1      15.588  43.911  43.006  0.00  0.00    +0.000 A 
ATOM      6  N   UNL     1      15.520  43.821  41.672  0.00  0.00    +0.000 NA
ATOM      7  C   UNL     1      14.428  44.316  41.080  0.00  0.00    +0.000 A 
ATOM      8  N   UNL     1      14.408  44.216  39.697  0.00  0.00    +0.000 N 
ATOM      9  N   UNL     1      13.400  44.866  41.737  0.00  0.00    +0.000 NA
ATOM     10  C   UNL     1      13.485  44.961  43.069  0.00  0.00    +0.000 A 
ATOM     11  C   UNL     1      12.439  45.548  43.773  0.00  0.00    +0.000 A 
ATOM     12  C   UNL     1      12.470  45.688  45.164  0.00  0.00    +0.000 A 
ATOM     13  C   UNL     1      13.572  45.236  45.878  0.00  0.00    +0.000 A 
ATOM     14  C   UNL     1      14.630  44.641  45.196  0.00  0.00    +0.000 A 
ATOM     15  C   UNL     1      14.588  44.495  43.786  0.00  0.00    +0.000 A 
ATOM     16  H   UNL     1      15.087  43.504  39.454  0.00  0.00    +0.000 HD
BRANCH   5  17
ATOM     17  N   UNL     1      16.757  43.385  43.576  0.00  0.00    +0.000 N 
ATOM     18  H   UNL     1      17.183  42.697  42.966  0.00  0.00    +0.000 HD
ATOM     19  H   UNL     1      17.380  44.172  43.748  0.00  0.00    +0.000 HD
ENDBRANCH   5  17
ENDBRANCH   4   8
ENDBRANCH   3   4
ENDBRANCH   2   3
ENDBRANCH   1   2
BRANCH   1  20
ATOM     20  C   UNL     1      12.197  40.045  39.626  0.00  0.00    +0.000 C 
BRANCH  20  21
ATOM     21  C   UNL     1      13.295  39.052  39.220  0.00  0.00    +0.000 C 
BRANCH  21  22
ATOM     22  C   UNL     1      14.729  39.514  39.480  0.00  0.00    +0.000 C 
BRANCH  22  23
ATOM     23  N   UNL     1      14.753  40.485  40.576  0.00  0.00    +0.000 NA
ATOM     24  H   UNL     1      14.996  41.451  40.367  0.00  0.00    +0.000 HD
BRANCH  23  25
ATOM     25  S   UNL     1      15.346  39.994  42.071  0.00  0.00    +0.000 S 
ATOM     26  O   UNL     1      15.255  38.549  42.110  0.00  0.00    +0.000 OA
ATOM     27  O   UNL     1      16.612  40.668  42.257  0.00  0.00    +0.000 OA
BRANCH  25  28
ATOM     28  C   UNL     1      14.170  40.687  43.216  0.00  0.00    +0.000 A 
ATOM     29  C   UNL     1      12.974  41.183  42.669  0.00  0.00    +0.000 A 
ATOM     30  C   UNL     1      12.013  41.751  43.495  0.00  0.00    +0.000 A 
ATOM     31  C   UNL     1      12.240  41.825  44.866  0.00  0.00    +0.000 A 
ATOM     32  C   UNL     1      13.426  41.332  45.437  0.00  0.00    +0.000 A 
ATOM     33  C   UNL     1      13.613  41.425  46.827  0.00  0.00    +0.000 A 
ATOM     34  C   UNL     1      14.770  40.944  47.433  0.00  0.00    +0.000 A 
ATOM     35  C   UNL     1      15.759  40.360  46.655  0.00  0.00    +0.000 A 
ATOM     36  C   UNL     1      15.589  40.261  45.271  0.00  0.00    +0.000 A 
ATOM     37  C   UNL     1      14.424  40.742  44.618  0.00  0.00    +0.000 A 
ENDBRANCH  25  28
ENDBRANCH  23  25
ENDBRANCH  22  23
ENDBRANCH  21  22
ENDBRANCH  20  21
ENDBRANCH   1  20
TORSDOF 11
ENDMDL
