MODEL 1
REMARK VINA RESULT:    -6.611      0.000      0.000
REMARK INTER + INTRA:          -9.561
REMARK INTER:                  -8.530
REMARK INTRA:                  -1.032
REMARK UNBOUND:                -0.825
REMARK  Name = 
REMARK  7 active torsions:
REMARK  status: ('A' for Active; 'I' for Inactive)
REMARK    1  A    between atoms: C_1  and  C_2
REMARK    2  A    between atoms: C_6  and  O_7
REMARK    3  A    between atoms: C_11  and  C_12
REMARK    4  A    between atoms: C_13  and  C_14
REMARK    5  A    between atoms: C_14  and  N_15
REMARK    6  A    between atoms: C_18  and  C_19
REMARK    7  A    between atoms: C_19  and  C_20
REMARK                            x       y       z     vdW  Elec       q    Type
REMARK                         _______ _______ _______ _____ _____    ______ ____
ROOT
ATOM      1  C   UNL     1      14.757  40.743  48.494  0.00  0.00    +0.000 C 
ATOM      2  C   UNL     1      14.416  40.605  49.639  0.00  0.00    +0.000 C 
ENDROOT
BRANCH   1  12
ATOM      3  C   UNL     1      16.237  38.600  47.157  0.00  0.00    +0.000 C 
ATOM      4  C   UNL     1      15.896  39.896  46.465  0.00  0.00    +0.000 A 
ATOM      5  C   UNL     1      16.302  40.078  45.128  0.00  0.00    +0.000 A 
ATOM      6  C   UNL     1      15.964  41.287  44.517  0.00  0.00    +0.000 A 
ATOM      7  N   UNL     1      16.194  41.785  43.259  0.00  0.00    +0.000 N 
ATOM      8  C   UNL     1      15.634  43.024  43.207  0.00  0.00    +0.000 A 
ATOM      9  N   UNL     1      15.058  43.378  44.324  0.00  0.00    +0.000 NA
ATOM     10  C   UNL     1      15.255  42.300  45.160  0.00  0.00    +0.000 A 
ATOM     11  C   UNL     1      14.853  42.116  46.489  0.00  0.00    +0.000 A 
ATOM     12  C   UNL     1      15.178  40.911  47.134  0.00  0.00    +0.000 A 
ATOM     13  H   UNL     1      16.681  41.331  42.503  0.00  0.00    +0.000 HD
BRANCH   8  14
ATOM     14  O   UNL     1      15.666  43.792  42.141  0.00  0.00    +0.000 OA
ATOM     15  H   UNL     1      14.926  43.432  41.619  0.00  0.00    +0.000 HD
ENDBRANCH   8  14
ENDBRANCH   1  12
BRANCH   2  16
ATOM     16  C   UNL     1      14.006  40.439  51.041  0.00  0.00    +0.000 C 
BRANCH  16  17
ATOM     17  N   UNL     1      15.120  40.013  51.898  0.00  0.00    +0.000 NA
ATOM     18  C   UNL     1      16.383  40.673  51.523  0.00  0.00    +0.000 C 
ATOM     19  C   UNL     1      17.608  39.881  51.986  0.00  0.00    +0.000 C 
ATOM     20  C   UNL     1      17.670  38.520  51.269  0.00  0.00    +0.000 C 
ATOM     21  C   UNL     1      16.260  37.958  51.012  0.00  0.00    +0.000 C 
ATOM     22  C   UNL     1      15.224  38.547  51.970  0.00  0.00    +0.000 C 
BRANCH  20  23
ATOM     23  C   UNL     1      18.643  37.524  51.937  0.00  0.00    +0.000 C 
BRANCH  23  24
ATOM     24  C   UNL     1      19.538  36.718  51.024  0.00  0.00    +0.000 A 
ATOM     25  C   UNL     1      20.858  36.420  51.397  0.00  0.00    +0.000 A 
ATOM     26  C   UNL     1      21.682  35.673  50.552  0.00  0.00    +0.000 A 
ATOM     27  C   UNL     1      21.188  35.219  49.337  0.00  0.00    +0.000 A 
ATOM     28  F   UNL     1      21.979  34.506  48.527  0.00  0.00    +0.000 F 
ATOM     29  C   UNL     1      19.881  35.492  48.952  0.00  0.00    +0.000 A 
ATOM     30  C   UNL     1      19.055  36.235  49.796  0.00  0.00    +0.000 A 
ENDBRANCH  23  24
ENDBRANCH  20  23
ENDBRANCH  16  17
ENDBRANCH   2  16
TORSDOF 6
ENDMDL
MODEL 2
REMARK VINA RESULT:    -6.319      4.994      8.215
REMARK INTER + INTRA:          -9.176
REMARK INTER:                  -8.085
REMARK INTRA:                  -1.091
REMARK UNBOUND:                -0.825
REMARK  Name = 
REMARK  7 active torsions:
REMARK  status: ('A' for Active; 'I' for Inactive)
REMARK    1  A    between atoms: C_1  and  C_2
REMARK    2  A    between atoms: C_6  and  O_7
REMARK    3  A    between atoms: C_11  and  C_12
REMARK    4  A    between atoms: C_13  and  C_14
REMARK    5  A    between atoms: C_14  and  N_15
REMARK    6  A    between atoms: C_18  and  C_19
REMARK    7  A    between atoms: C_19  and  C_20
REMARK                            x       y       z     vdW  Elec       q    Type
REMARK                         _______ _______ _______ _____ _____    ______ ____
ROOT
ATOM      1  C   UNL     1      15.055  39.898  53.867  0.00  0.00    +0.000 C 
ATOM      2  C   UNL     1      14.482  39.835  52.812  0.00  0.00    +0.000 C 
ENDROOT
BRANCH   1  12
ATOM      3  C   UNL     1      17.118  37.931  54.531  0.00  0.00    +0.000 C 
ATOM      4  C   UNL     1      16.742  39.050  55.469  0.00  0.00    +0.000 A 
ATOM      5  C   UNL     1      17.409  39.152  56.706  0.00  0.00    +0.000 A 
ATOM      6  C   UNL     1      17.040  40.204  57.546  0.00  0.00    +0.000 A 
ATOM      7  N   UNL     1      17.473  40.591  58.790  0.00  0.00    +0.000 N 
ATOM      8  C   UNL     1      16.761  41.698  59.137  0.00  0.00    +0.000 A 
ATOM      9  N   UNL     1      15.900  42.065  58.227  0.00  0.00    +0.000 NA
ATOM     10  C   UNL     1      16.060  41.139  57.220  0.00  0.00    +0.000 A 
ATOM     11  C   UNL     1      15.398  41.034  55.989  0.00  0.00    +0.000 A 
ATOM     12  C   UNL     1      15.745  39.987  55.121  0.00  0.00    +0.000 A 
ATOM     13  H   UNL     1      18.185  40.153  59.352  0.00  0.00    +0.000 HD
BRANCH   8  14
ATOM     14  O   UNL     1      16.920  42.337  60.274  0.00  0.00    +0.000 OA
ATOM     15  H   UNL     1      17.232  43.208  59.966  0.00  0.00    +0.000 HD
ENDBRANCH   8  14
ENDBRANCH   1  12
BRANCH   2  16
ATOM     16  C   UNL     1      13.787  39.763  51.518  0.00  0.00    +0.000 C 
BRANCH  16  17
ATOM     17  N   UNL     1      14.239  38.625  50.708  0.00  0.00    +0.000 NA
ATOM     18  C   UNL     1      14.706  37.507  51.547  0.00  0.00    +0.000 C 
ATOM     19  C   UNL     1      15.662  36.579  50.793  0.00  0.00    +0.000 C 
ATOM     20  C   UNL     1      16.952  37.329  50.416  0.00  0.00    +0.000 C 
ATOM     21  C   UNL     1      16.667  38.808  50.094  0.00  0.00    +0.000 C 
ATOM     22  C   UNL     1      15.213  39.035  49.684  0.00  0.00    +0.000 C 
BRANCH  20  23
ATOM     23  C   UNL     1      17.795  36.594  49.350  0.00  0.00    +0.000 C 
BRANCH  23  24
ATOM     24  C   UNL     1      19.205  36.208  49.733  0.00  0.00    +0.000 A 
ATOM     25  C   UNL     1      19.745  36.605  50.966  0.00  0.00    +0.000 A 
ATOM     26  C   UNL     1      21.047  36.245  51.319  0.00  0.00    +0.000 A 
ATOM     27  C   UNL     1      21.810  35.484  50.443  0.00  0.00    +0.000 A 
ATOM     28  F   UNL     1      23.059  35.142  50.781  0.00  0.00    +0.000 F 
ATOM     29  C   UNL     1      21.292  35.069  49.222  0.00  0.00    +0.000 A 
ATOM     30  C   UNL     1      19.990  35.426  48.869  0.00  0.00    +0.000 A 
ENDBRANCH  23  24
ENDBRANCH  20  23
ENDBRANCH  16  17
ENDBRANCH   2  16
TORSDOF 6
ENDMDL
MODEL 3
REMARK VINA RESULT:    -6.235      4.350      7.455
REMARK INTER + INTRA:          -9.066
REMARK INTER:                  -8.240
REMARK INTRA:                  -0.825
REMARK UNBOUND:                -0.825
REMARK  Name = 
REMARK  7 active torsions:
REMARK  status: ('A' for Active; 'I' for Inactive)
REMARK    1  A    between atoms: C_1  and  C_2
REMARK    2  A    between atoms: C_6  and  O_7
REMARK    3  A    between atoms: C_11  and  C_12
REMARK    4  A    between atoms: C_13  and  C_14
REMARK    5  A    between atoms: C_14  and  N_15
REMARK    6  A    between atoms: C_18  and  C_19
REMARK    7  A    between atoms: C_19  and  C_20
REMARK                            x       y       z     vdW  Elec       q    Type
REMARK                         _______ _______ _______ _____ _____    ______ ____
ROOT
ATOM      1  C   UNL     1      19.422  36.730  51.574  0.00  0.00    +0.000 C 
ATOM      2  C   UNL     1      20.201  35.839  51.783  0.00  0.00    +0.000 C 
ENDROOT
BRANCH   1  12
ATOM      3  C   UNL     1      17.721  36.651  49.193  0.00  0.00    +0.000 C 
ATOM      4  C   UNL     1      17.653  37.777  50.193  0.00  0.00    +0.000 A 
ATOM      5  C   UNL     1      16.737  38.825  49.973  0.00  0.00    +0.000 A 
ATOM      6  C   UNL     1      16.697  39.848  50.922  0.00  0.00    +0.000 A 
ATOM      7  N   UNL     1      15.944  40.991  51.019  0.00  0.00    +0.000 N 
ATOM      8  C   UNL     1      16.323  41.627  52.162  0.00  0.00    +0.000 A 
ATOM      9  N   UNL     1      17.258  40.996  52.818  0.00  0.00    +0.000 NA
ATOM     10  C   UNL     1      17.507  39.876  52.056  0.00  0.00    +0.000 A 
ATOM     11  C   UNL     1      18.418  38.833  52.271  0.00  0.00    +0.000 A 
ATOM     12  C   UNL     1      18.484  37.788  51.334  0.00  0.00    +0.000 A 
ATOM     13  H   UNL     1      15.237  41.314  50.377  0.00  0.00    +0.000 HD
BRANCH   8  14
ATOM     14  O   UNL     1      15.801  42.762  52.569  0.00  0.00    +0.000 OA
ATOM     15  H   UNL     1      16.201  43.395  51.944  0.00  0.00    +0.000 HD
ENDBRANCH   8  14
ENDBRANCH   1  12
BRANCH   2  16
ATOM     16  C   UNL     1      21.147  34.743  52.043  0.00  0.00    +0.000 C 
BRANCH  16  17
ATOM     17  N   UNL     1      21.657  34.146  50.802  0.00  0.00    +0.000 NA
ATOM     18  C   UNL     1      22.523  32.984  51.068  0.00  0.00    +0.000 C 
ATOM     19  C   UNL     1      23.479  32.697  49.908  0.00  0.00    +0.000 C 
ATOM     20  C   UNL     1      24.465  33.864  49.724  0.00  0.00    +0.000 C 
ATOM     21  C   UNL     1      23.802  35.215  50.052  0.00  0.00    +0.000 C 
ATOM     22  C   UNL     1      22.280  35.152  49.927  0.00  0.00    +0.000 C 
BRANCH  20  23
ATOM     23  C   UNL     1      25.204  33.828  48.368  0.00  0.00    +0.000 C 
BRANCH  23  24
ATOM     24  C   UNL     1      24.902  34.939  47.389  0.00  0.00    +0.000 A 
ATOM     25  C   UNL     1      25.773  36.032  47.256  0.00  0.00    +0.000 A 
ATOM     26  C   UNL     1      25.492  37.057  46.351  0.00  0.00    +0.000 A 
ATOM     27  C   UNL     1      24.345  36.989  45.572  0.00  0.00    +0.000 A 
ATOM     28  F   UNL     1      24.075  37.974  44.705  0.00  0.00    +0.000 F 
ATOM     29  C   UNL     1      23.474  35.912  45.677  0.00  0.00    +0.000 A 
ATOM     30  C   UNL     1      23.754  34.886  46.581  0.00  0.00    +0.000 A 
ENDBRANCH  23  24
ENDBRANCH  20  23
ENDBRANCH  16  17
ENDBRANCH   2  16
TORSDOF 6
ENDMDL
