MODEL 1
REMARK VINA RESULT:    -7.703      0.000      0.000
REMARK INTER + INTRA:         -10.562
REMARK INTER:                  -9.748
REMARK INTRA:                  -0.814
REMARK UNBOUND:                -0.833
REMARK  Name = 
REMARK  5 active torsions:
REMARK  status: ('A' for Active; 'I' for Inactive)
REMARK    1  A    between atoms: C_4  and  O_5
REMARK    2  A    between atoms: N_8  and  C_9
REMARK    3  A    between atoms: C_13  and  C_14
REMARK    4  A    between atoms: N_16  and  C_17
REMARK    5  A    between atoms: C_17  and  C_18
REMARK                            x       y       z     vdW  Elec       q    Type
REMARK                         _______ _______ _______ _____ _____    ______ ____
ROOT
ATOM      1  C   UNL     1      13.707  48.164  45.496  0.00  0.00    +0.000 A 
ATOM      2  C   UNL     1      12.506  48.631  46.049  0.00  0.00    +0.000 A 
ATOM      3  C   UNL     1      11.603  47.733  46.622  0.00  0.00    +0.000 A 
ATOM      4  C   UNL     1      11.894  46.368  46.651  0.00  0.00    +0.000 A 
ATOM      5  C   UNL     1      13.099  45.895  46.113  0.00  0.00    +0.000 A 
ATOM      6  C   UNL     1      14.000  46.792  45.524  0.00  0.00    +0.000 A 
ENDROOT
BRANCH   1  13
ATOM      7  N   UNL     1      17.065  53.100  41.900  0.00  0.00    +0.000 N 
ATOM      8  C   UNL     1      16.812  52.054  42.764  0.00  0.00    +0.000 A 
ATOM      9  N   UNL     1      17.890  51.587  43.447  0.00  0.00    +0.000 NA
ATOM     10  C   UNL     1      17.728  50.563  44.310  0.00  0.00    +0.000 A 
ATOM     11  C   UNL     1      16.439  50.050  44.461  0.00  0.00    +0.000 A 
ATOM     12  N   UNL     1      15.952  49.057  45.225  0.00  0.00    +0.000 NA
ATOM     13  N   UNL     1      14.624  49.077  44.907  0.00  0.00    +0.000 N 
ATOM     14  N   UNL     1      14.226  50.003  44.004  0.00  0.00    +0.000 NA
ATOM     15  C   UNL     1      15.366  50.622  43.712  0.00  0.00    +0.000 A 
ATOM     16  N   UNL     1      15.528  51.647  42.847  0.00  0.00    +0.000 NA
ATOM     17  H   UNL     1      16.234  53.653  41.743  0.00  0.00    +0.000 HD
ATOM     18  H   UNL     1      17.912  53.586  42.166  0.00  0.00    +0.000 HD
BRANCH  10  19
ATOM     19  O   UNL     1      18.825  50.098  44.987  0.00  0.00    +0.000 OA
ATOM     20  H   UNL     1      18.471  49.710  45.808  0.00  0.00    +0.000 HD
ENDBRANCH  10  19
ENDBRANCH   1  13
BRANCH   5  21
ATOM     21  C   UNL     1      13.442  44.447  46.119  0.00  0.00    +0.000 C 
ATOM     22  O   UNL     1      12.567  43.610  46.307  0.00  0.00    +0.000 OA
ATOM     23  N   UNL     1      14.761  44.133  45.869  0.00  0.00    +0.000 N 
ATOM     24  H   UNL     1      15.374  44.849  45.505  0.00  0.00    +0.000 HD
BRANCH  23  25
ATOM     25  C   UNL     1      15.187  42.760  45.717  0.00  0.00    +0.000 C 
BRANCH  25  26
ATOM     26  C   UNL     1      15.372  42.417  44.262  0.00  0.00    +0.000 A 
ATOM     27  C   UNL     1      14.994  43.319  43.257  0.00  0.00    +0.000 A 
ATOM     28  C   UNL     1      15.147  42.977  41.912  0.00  0.00    +0.000 A 
ATOM     29 CL   UNL     1      14.678  44.097  40.693  0.00  0.00    +0.000 Cl
ATOM     30  C   UNL     1      15.671  41.740  41.547  0.00  0.00    +0.000 A 
ATOM     31  C   UNL     1      16.040  40.839  42.542  0.00  0.00    +0.000 A 
ATOM     32 CL   UNL     1      16.680  39.303  42.103  0.00  0.00    +0.000 Cl
ATOM     33  C   UNL     1      15.892  41.167  43.890  0.00  0.00    +0.000 A 
ENDBRANCH  25  26
ENDBRANCH  23  25
ENDBRANCH   5  21
TORSDOF 5
ENDMDL
MODEL 2
REMARK VINA RESULT:    -7.618      1.257      1.760
REMARK INTER + INTRA:         -10.455
REMARK INTER:                  -9.624
REMARK INTRA:                  -0.831
REMARK UNBOUND:                -0.833
REMARK  Name = 
REMARK  5 active torsions:
REMARK  status: ('A' for Active; 'I' for Inactive)
REMARK    1  A    between atoms: C_4  and  O_5
REMARK    2  A    between atoms: N_8  and  C_9
REMARK    3  A    between atoms: C_13  and  C_14
REMARK    4  A    between atoms: N_16  and  C_17
REMARK    5  A    between atoms: C_17  and  C_18
REMARK                            x       y       z     vdW  Elec       q    Type
REMARK                         _______ _______ _______ _____ _____    ______ ____
ROOT
ATOM      1  C   UNL     1      14.107  48.791  45.363  0.00  0.00    +0.000 A 
ATOM      2  C   UNL     1      12.910  49.436  45.705  0.00  0.00    +0.000 A 
ATOM      3  C   UNL     1      11.835  48.699  46.206  0.00  0.00    +0.000 A 
ATOM      4  C   UNL     1      11.950  47.318  46.375  0.00  0.00    +0.000 A 
ATOM      5  C   UNL     1      13.147  46.668  46.050  0.00  0.00    +0.000 A 
ATOM      6  C   UNL     1      14.223  47.403  45.532  0.00  0.00    +0.000 A 
ENDROOT
BRANCH   1  13
ATOM      7  N   UNL     1      20.250  51.583  43.621  0.00  0.00    +0.000 N 
ATOM      8  C   UNL     1      18.890  51.358  43.701  0.00  0.00    +0.000 A 
ATOM      9  N   UNL     1      18.115  52.195  42.964  0.00  0.00    +0.000 NA
ATOM     10  C   UNL     1      16.775  52.044  42.991  0.00  0.00    +0.000 A 
ATOM     11  C   UNL     1      16.263  51.008  43.773  0.00  0.00    +0.000 A 
ATOM     12  N   UNL     1      15.004  50.597  44.006  0.00  0.00    +0.000 NA
ATOM     13  N   UNL     1      15.199  49.539  44.847  0.00  0.00    +0.000 N 
ATOM     14  N   UNL     1      16.481  49.242  45.168  0.00  0.00    +0.000 NA
ATOM     15  C   UNL     1      17.162  50.167  44.497  0.00  0.00    +0.000 A 
ATOM     16  N   UNL     1      18.504  50.319  44.472  0.00  0.00    +0.000 NA
ATOM     17  H   UNL     1      20.772  50.743  43.827  0.00  0.00    +0.000 HD
ATOM     18  H   UNL     1      20.478  52.084  42.772  0.00  0.00    +0.000 HD
BRANCH  10  19
ATOM     19  O   UNL     1      16.005  52.900  42.248  0.00  0.00    +0.000 OA
ATOM     20  H   UNL     1      16.633  53.532  41.855  0.00  0.00    +0.000 HD
ENDBRANCH  10  19
ENDBRANCH   1  13
BRANCH   5  21
ATOM     21  C   UNL     1      13.306  45.196  46.209  0.00  0.00    +0.000 C 
ATOM     22  O   UNL     1      12.371  44.519  46.618  0.00  0.00    +0.000 OA
ATOM     23  N   UNL     1      14.526  44.672  45.838  0.00  0.00    +0.000 N 
ATOM     24  H   UNL     1      15.164  45.246  45.305  0.00  0.00    +0.000 HD
BRANCH  23  25
ATOM     25  C   UNL     1      14.752  43.245  45.821  0.00  0.00    +0.000 C 
BRANCH  25  26
ATOM     26  C   UNL     1      15.145  42.783  44.442  0.00  0.00    +0.000 A 
ATOM     27  C   UNL     1      14.781  43.520  43.306  0.00  0.00    +0.000 A 
ATOM     28  C   UNL     1      15.130  43.067  42.033  0.00  0.00    +0.000 A 
ATOM     29 CL   UNL     1      14.675  43.986  40.651  0.00  0.00    +0.000 Cl
ATOM     30  C   UNL     1      15.837  41.879  41.869  0.00  0.00    +0.000 A 
ATOM     31  C   UNL     1      16.194  41.140  42.993  0.00  0.00    +0.000 A 
ATOM     32 CL   UNL     1      17.061  39.666  42.803  0.00  0.00    +0.000 Cl
ATOM     33  C   UNL     1      15.851  41.581  44.272  0.00  0.00    +0.000 A 
ENDBRANCH  25  26
ENDBRANCH  23  25
ENDBRANCH   5  21
TORSDOF 5
ENDMDL
MODEL 3
REMARK VINA RESULT:    -7.300      1.306      2.386
REMARK INTER + INTRA:         -10.054
REMARK INTER:                  -9.221
REMARK INTRA:                  -0.833
REMARK UNBOUND:                -0.833
REMARK  Name = 
REMARK  5 active torsions:
REMARK  status: ('A' for Active; 'I' for Inactive)
REMARK    1  A    between atoms: C_4  and  O_5
REMARK    2  A    between atoms: N_8  and  C_9
REMARK    3  A    between atoms: C_13  and  C_14
REMARK    4  A    between atoms: N_16  and  C_17
REMARK    5  A    between atoms: C_17  and  C_18
REMARK                            x       y       z     vdW  Elec       q    Type
REMARK                         _______ _______ _______ _____ _____    ______ ____
ROOT
ATOM      1  C   UNL     1      13.954  47.691  45.599  0.00  0.00    +0.000 A 
ATOM      2  C   UNL     1      12.703  48.054  46.117  0.00  0.00    +0.000 A 
ATOM      3  C   UNL     1      11.820  47.071  46.569  0.00  0.00    +0.000 A 
ATOM      4  C   UNL     1      12.181  45.724  46.513  0.00  0.00    +0.000 A 
ATOM      5  C   UNL     1      13.435  45.354  46.010  0.00  0.00    +0.000 A 
ATOM      6  C   UNL     1      14.318  46.337  45.541  0.00  0.00    +0.000 A 
ENDROOT
BRANCH   1  13
ATOM      7  N   UNL     1      19.332  51.822  43.991  0.00  0.00    +0.000 N 
ATOM      8  C   UNL     1      18.050  51.318  44.081  0.00  0.00    +0.000 A 
ATOM      9  N   UNL     1      17.091  52.043  43.449  0.00  0.00    +0.000 NA
ATOM     10  C   UNL     1      15.812  51.620  43.492  0.00  0.00    +0.000 A 
ATOM     11  C   UNL     1      15.551  50.436  44.182  0.00  0.00    +0.000 A 
ATOM     12  N   UNL     1      14.412  49.758  44.404  0.00  0.00    +0.000 NA
ATOM     13  N   UNL     1      14.851  48.690  45.132  0.00  0.00    +0.000 N 
ATOM     14  N   UNL     1      16.178  48.632  45.391  0.00  0.00    +0.000 NA
ATOM     15  C   UNL     1      16.631  49.733  44.798  0.00  0.00    +0.000 A 
ATOM     16  N   UNL     1      17.913  50.157  44.755  0.00  0.00    +0.000 NA
ATOM     17  H   UNL     1      20.020  51.090  44.101  0.00  0.00    +0.000 HD
ATOM     18  H   UNL     1      19.418  52.434  43.190  0.00  0.00    +0.000 HD
BRANCH  10  19
ATOM     19  O   UNL     1      14.854  52.366  42.855  0.00  0.00    +0.000 OA
ATOM     20  H   UNL     1      14.362  52.811  43.568  0.00  0.00    +0.000 HD
ENDBRANCH  10  19
ENDBRANCH   1  13
BRANCH   5  21
ATOM     21  C   UNL     1      13.854  43.928  45.927  0.00  0.00    +0.000 C 
ATOM     22  O   UNL     1      13.088  43.042  46.288  0.00  0.00    +0.000 OA
ATOM     23  N   UNL     1      15.105  43.690  45.399  0.00  0.00    +0.000 N 
ATOM     24  H   UNL     1      15.584  44.440  44.920  0.00  0.00    +0.000 HD
BRANCH  23  25
ATOM     25  C   UNL     1      15.566  42.345  45.145  0.00  0.00    +0.000 C 
BRANCH  25  26
ATOM     26  C   UNL     1      15.315  41.956  43.711  0.00  0.00    +0.000 A 
ATOM     27  C   UNL     1      15.313  40.609  43.321  0.00  0.00    +0.000 A 
ATOM     28  C   UNL     1      15.104  40.265  41.984  0.00  0.00    +0.000 A 
ATOM     29 CL   UNL     1      15.104  38.607  41.524  0.00  0.00    +0.000 Cl
ATOM     30  C   UNL     1      14.901  41.249  41.019  0.00  0.00    +0.000 A 
ATOM     31  C   UNL     1      14.910  42.587  41.401  0.00  0.00    +0.000 A 
ATOM     32 CL   UNL     1      14.669  43.812  40.216  0.00  0.00    +0.000 Cl
ATOM     33  C   UNL     1      15.118  42.945  42.733  0.00  0.00    +0.000 A 
ENDBRANCH  25  26
ENDBRANCH  23  25
ENDBRANCH   5  21
TORSDOF 5
ENDMDL
