MODEL 1
REMARK VINA RESULT:    -6.856      0.000      0.000
REMARK INTER + INTRA:          -9.835
REMARK INTER:                  -8.754
REMARK INTRA:                  -1.081
REMARK UNBOUND:                -0.975
REMARK  Name = 
REMARK  8 active torsions:
REMARK  status: ('A' for Active; 'I' for Inactive)
REMARK    1  A    between atoms: C_1  and  C_2
REMARK    2  A    between atoms: C_4  and  O_5
REMARK    3  A    between atoms: O_5  and  C_6
REMARK    4  A    between atoms: C_6  and  C_7
REMARK    5  A    between atoms: C_10  and  C_11
REMARK    6  A    between atoms: C_16  and  C_17
REMARK    7  A    between atoms: C_24  and  C_25
REMARK    8  A    between atoms: C_26  and  C_27
REMARK                            x       y       z     vdW  Elec       q    Type
REMARK                         _______ _______ _______ _____ _____    ______ ____
ROOT
ATOM      1  C   UNL     1      19.135  36.562  50.296  0.00  0.00    +0.000 A 
ATOM      2  C   UNL     1      19.992  36.794  51.379  0.00  0.00    +0.000 A 
ATOM      3  C   UNL     1      21.239  36.167  51.444  0.00  0.00    +0.000 A 
ATOM      4  C   UNL     1      21.662  35.298  50.427  0.00  0.00    +0.000 A 
ATOM      5  C   UNL     1      20.807  35.082  49.337  0.00  0.00    +0.000 A 
ATOM      6  C   UNL     1      19.558  35.708  49.269  0.00  0.00    +0.000 A 
ENDROOT
BRANCH   4   7
ATOM      7  C   UNL     1      22.987  34.658  50.484  0.00  0.00    +0.000 A 
ATOM      8  C   UNL     1      24.028  35.215  49.712  0.00  0.00    +0.000 A 
ATOM      9  C   UNL     1      25.297  34.635  49.672  0.00  0.00    +0.000 A 
ATOM     10  C   UNL     1      25.552  33.480  50.401  0.00  0.00    +0.000 A 
ATOM     11  C   UNL     1      24.541  32.912  51.176  0.00  0.00    +0.000 A 
ATOM     12  C   UNL     1      23.260  33.492  51.237  0.00  0.00    +0.000 A 
BRANCH  12  13
ATOM     13  C   UNL     1      22.268  32.853  52.090  0.00  0.00    +0.000 A 
ATOM     14  N   UNL     1      22.224  33.063  53.452  0.00  0.00    +0.000 NA
ATOM     15  N   UNL     1      21.197  32.363  53.914  0.00  0.00    +0.000 NA
ATOM     16  N   UNL     1      20.672  31.784  52.829  0.00  0.00    +0.000 N 
ATOM     17  N   UNL     1      21.267  32.062  51.664  0.00  0.00    +0.000 NA
ATOM     18  H   UNL     1      19.861  31.174  52.890  0.00  0.00    +0.000 HD
ENDBRANCH  12  13
ENDBRANCH   4   7
BRANCH   1  19
ATOM     19  C   UNL     1      17.795  37.247  50.213  0.00  0.00    +0.000 C 
BRANCH  19  20
ATOM     20  O   UNL     1      17.690  38.145  51.316  0.00  0.00    +0.000 OA
BRANCH  20  24
ATOM     21  C   UNL     1      13.821  40.490  49.311  0.00  0.00    +0.000 C 
ATOM     22  C   UNL     1      14.959  40.388  50.282  0.00  0.00    +0.000 A 
ATOM     23  C   UNL     1      15.765  39.258  50.297  0.00  0.00    +0.000 A 
ATOM     24  C   UNL     1      16.812  39.192  51.212  0.00  0.00    +0.000 A 
ATOM     25  C   UNL     1      17.021  40.256  52.106  0.00  0.00    +0.000 A 
ATOM     26  C   UNL     1      18.163  40.223  53.085  0.00  0.00    +0.000 C 
ATOM     27  C   UNL     1      16.176  41.368  52.002  0.00  0.00    +0.000 A 
ATOM     28  C   UNL     1      16.339  42.576  52.879  0.00  0.00    +0.000 C 
ATOM     29  N   UNL     1      15.155  41.432  51.112  0.00  0.00    +0.000 NA
ENDBRANCH  20  24
ENDBRANCH  19  20
ENDBRANCH   1  19
TORSDOF 5
ENDMDL
MODEL 2
REMARK VINA RESULT:    -6.845      1.339      1.846
REMARK INTER + INTRA:          -9.821
REMARK INTER:                  -8.544
REMARK INTRA:                  -1.277
REMARK UNBOUND:                -0.975
REMARK  Name = 
REMARK  8 active torsions:
REMARK  status: ('A' for Active; 'I' for Inactive)
REMARK    1  A    between atoms: C_1  and  C_2
REMARK    2  A    between atoms: C_4  and  O_5
REMARK    3  A    between atoms: O_5  and  C_6
REMARK    4  A    between atoms: C_6  and  C_7
REMARK    5  A    between atoms: C_10  and  C_11
REMARK    6  A    between atoms: C_16  and  C_17
REMARK    7  A    between atoms: C_24  and  C_25
REMARK    8  A    between atoms: C_26  and  C_27
REMARK                            x       y       z     vdW  Elec       q    Type
REMARK                         _______ _______ _______ _____ _____    ______ ____
ROOT
ATOM      1  C   UNL     1      18.981  36.727  50.528  0.00  0.00    +0.000 A 
ATOM      2  C   UNL     1      19.926  36.961  51.534  0.00  0.00    +0.000 A 
ATOM      3  C   UNL     1      21.164  36.313  51.510  0.00  0.00    +0.000 A 
ATOM      4  C   UNL     1      21.489  35.420  50.479  0.00  0.00    +0.000 A 
ATOM      5  C   UNL     1      20.545  35.201  49.465  0.00  0.00    +0.000 A 
ATOM      6  C   UNL     1      19.306  35.848  49.486  0.00  0.00    +0.000 A 
ENDROOT
BRANCH   4   7
ATOM      7  C   UNL     1      22.803  34.757  50.442  0.00  0.00    +0.000 A 
ATOM      8  C   UNL     1      23.806  35.315  49.621  0.00  0.00    +0.000 A 
ATOM      9  C   UNL     1      25.060  34.716  49.493  0.00  0.00    +0.000 A 
ATOM     10  C   UNL     1      25.338  33.539  50.177  0.00  0.00    +0.000 A 
ATOM     11  C   UNL     1      24.365  32.969  50.998  0.00  0.00    +0.000 A 
ATOM     12  C   UNL     1      23.100  33.569  51.149  0.00  0.00    +0.000 A 
BRANCH  12  13
ATOM     13  C   UNL     1      22.149  32.926  52.045  0.00  0.00    +0.000 A 
ATOM     14  N   UNL     1      22.194  33.098  53.412  0.00  0.00    +0.000 NA
ATOM     15  N   UNL     1      21.183  32.405  53.919  0.00  0.00    +0.000 NA
ATOM     16  N   UNL     1      20.580  31.868  52.854  0.00  0.00    +0.000 N 
ATOM     17  N   UNL     1      21.107  32.166  51.661  0.00  0.00    +0.000 NA
ATOM     18  H   UNL     1      19.761  31.272  52.949  0.00  0.00    +0.000 HD
ENDBRANCH  12  13
ENDBRANCH   4   7
BRANCH   1  19
ATOM     19  C   UNL     1      17.650  37.435  50.540  0.00  0.00    +0.000 C 
BRANCH  19  20
ATOM     20  O   UNL     1      17.130  37.371  51.865  0.00  0.00    +0.000 OA
BRANCH  20  24
ATOM     21  C   UNL     1      16.233  42.229  52.160  0.00  0.00    +0.000 C 
ATOM     22  C   UNL     1      16.552  40.895  52.766  0.00  0.00    +0.000 A 
ATOM     23  C   UNL     1      16.671  39.772  51.958  0.00  0.00    +0.000 A 
ATOM     24  C   UNL     1      16.967  38.547  52.550  0.00  0.00    +0.000 A 
ATOM     25  C   UNL     1      17.122  38.469  53.944  0.00  0.00    +0.000 A 
ATOM     26  C   UNL     1      17.470  37.164  54.606  0.00  0.00    +0.000 C 
ATOM     27  C   UNL     1      17.012  39.657  54.678  0.00  0.00    +0.000 A 
ATOM     28  C   UNL     1      17.202  39.693  56.167  0.00  0.00    +0.000 C 
ATOM     29  N   UNL     1      16.722  40.851  54.102  0.00  0.00    +0.000 NA
ENDBRANCH  20  24
ENDBRANCH  19  20
ENDBRANCH   1  19
TORSDOF 5
ENDMDL
MODEL 3
REMARK VINA RESULT:    -6.712     10.589     13.840
REMARK INTER + INTRA:          -9.649
REMARK INTER:                  -8.674
REMARK INTRA:                  -0.975
REMARK UNBOUND:                -0.975
REMARK  Name = 
REMARK  8 active torsions:
REMARK  status: ('A' for Active; 'I' for Inactive)
REMARK    1  A    between atoms: C_1  and  C_2
REMARK    2  A    between atoms: C_4  and  O_5
REMARK    3  A    between atoms: O_5  and  C_6
REMARK    4  A    between atoms: C_6  and  C_7
REMARK    5  A    between atoms: C_10  and  C_11
REMARK    6  A    between atoms: C_16  and  C_17
REMARK    7  A    between atoms: C_24  and  C_25
REMARK    8  A    between atoms: C_26  and  C_27
REMARK                            x       y       z     vdW  Elec       q    Type
REMARK                         _______ _______ _______ _____ _____    ______ ____
ROOT
ATOM      1  C   UNL     1      12.903  47.067  45.972  0.00  0.00    +0.000 A 
ATOM      2  C   UNL     1      12.275  45.920  46.472  0.00  0.00    +0.000 A 
ATOM      3  C   UNL     1      12.823  44.655  46.241  0.00  0.00    +0.000 A 
ATOM      4  C   UNL     1      14.011  44.506  45.511  0.00  0.00    +0.000 A 
ATOM      5  C   UNL     1      14.644  45.661  45.026  0.00  0.00    +0.000 A 
ATOM      6  C   UNL     1      14.098  46.928  45.256  0.00  0.00    +0.000 A 
ENDROOT
BRANCH   4   7
ATOM      7  C   UNL     1      14.601  43.175  45.290  0.00  0.00    +0.000 A 
ATOM      8  C   UNL     1      14.929  42.398  46.421  0.00  0.00    +0.000 A 
ATOM      9  C   UNL     1      15.539  41.149  46.295  0.00  0.00    +0.000 A 
ATOM     10  C   UNL     1      15.839  40.650  45.034  0.00  0.00    +0.000 A 
ATOM     11  C   UNL     1      15.520  41.397  43.900  0.00  0.00    +0.000 A 
ATOM     12  C   UNL     1      14.893  42.653  44.009  0.00  0.00    +0.000 A 
BRANCH  12  13
ATOM     13  C   UNL     1      14.570  43.357  42.777  0.00  0.00    +0.000 A 
ATOM     14  N   UNL     1      15.542  43.795  41.903  0.00  0.00    +0.000 NA
ATOM     15  N   UNL     1      14.913  44.362  40.883  0.00  0.00    +0.000 NA
ATOM     16  N   UNL     1      13.615  44.232  41.177  0.00  0.00    +0.000 N 
ATOM     17  N   UNL     1      13.328  43.599  42.320  0.00  0.00    +0.000 NA
ATOM     18  H   UNL     1      12.890  44.589  40.560  0.00  0.00    +0.000 HD
ENDBRANCH  12  13
ENDBRANCH   4   7
BRANCH   1  19
ATOM     19  C   UNL     1      12.325  48.436  46.231  0.00  0.00    +0.000 C 
BRANCH  19  20
ATOM     20  O   UNL     1      13.024  49.370  45.412  0.00  0.00    +0.000 OA
BRANCH  20  24
ATOM     21  C   UNL     1      13.038  53.097  48.669  0.00  0.00    +0.000 C 
ATOM     22  C   UNL     1      13.652  52.295  47.561  0.00  0.00    +0.000 A 
ATOM     23  C   UNL     1      12.986  51.191  47.046  0.00  0.00    +0.000 A 
ATOM     24  C   UNL     1      13.583  50.465  46.019  0.00  0.00    +0.000 A 
ATOM     25  C   UNL     1      14.846  50.852  45.538  0.00  0.00    +0.000 A 
ATOM     26  C   UNL     1      15.500  50.102  44.410  0.00  0.00    +0.000 C 
ATOM     27  C   UNL     1      15.432  51.994  46.098  0.00  0.00    +0.000 A 
ATOM     28  C   UNL     1      16.759  52.519  45.628  0.00  0.00    +0.000 C 
ATOM     29  N   UNL     1      14.852  52.701  47.099  0.00  0.00    +0.000 NA
ENDBRANCH  20  24
ENDBRANCH  19  20
ENDBRANCH   1  19
TORSDOF 5
ENDMDL
