MODEL 1
REMARK VINA RESULT:    -6.323      0.000      0.000
REMARK INTER + INTRA:          -8.684
REMARK INTER:                  -7.993
REMARK INTRA:                  -0.691
REMARK UNBOUND:                -0.697
REMARK  Name = 
REMARK  5 active torsions:
REMARK  status: ('A' for Active; 'I' for Inactive)
REMARK    1  A    between atoms: C_4  and  N_5
REMARK    2  A    between atoms: C_8  and  N_9
REMARK    3  A    between atoms: C_10  and  C_12
REMARK    4  A    between atoms: C_12  and  C_13
REMARK    5  A    between atoms: C_17  and  C_18
REMARK                            x       y       z     vdW  Elec       q    Type
REMARK                         _______ _______ _______ _____ _____    ______ ____
ROOT
ATOM      1  N   UNL     1       9.154  47.457  48.613  0.00  0.00    +0.000 N 
ATOM      2  C   UNL     1      10.145  46.772  47.941  0.00  0.00    +0.000 A 
ATOM      3  N   UNL     1      10.137  45.442  48.023  0.00  0.00    +0.000 NA
ATOM      4  C   UNL     1      11.116  44.797  47.378  0.00  0.00    +0.000 A 
ATOM      5  C   UNL     1      12.111  45.446  46.642  0.00  0.00    +0.000 A 
ATOM      6  C   UNL     1      13.143  44.800  45.914  0.00  0.00    +0.000 A 
ATOM      7  C   UNL     1      14.103  45.535  45.213  0.00  0.00    +0.000 A 
ATOM      8  C   UNL     1      14.021  46.923  45.245  0.00  0.00    +0.000 A 
ATOM      9  C   UNL     1      12.992  47.555  45.957  0.00  0.00    +0.000 A 
ATOM     10  C   UNL     1      12.029  46.838  46.655  0.00  0.00    +0.000 A 
ATOM     11  N   UNL     1      11.065  47.498  47.307  0.00  0.00    +0.000 NA
ATOM     12  H   UNL     1       8.791  46.894  49.368  0.00  0.00    +0.000 HD
ATOM     13  H   UNL     1       9.468  48.392  48.832  0.00  0.00    +0.000 HD
ENDROOT
BRANCH   7  14
ATOM     14  N   UNL     1      15.088  44.813  44.513  0.00  0.00    +0.000 N 
ATOM     15  C   UNL     1      14.941  44.119  43.323  0.00  0.00    +0.000 C 
ATOM     16  O   UNL     1      13.911  44.019  42.663  0.00  0.00    +0.000 OA
ATOM     17  H   UNL     1      16.024  44.846  44.900  0.00  0.00    +0.000 HD
BRANCH  15  18
ATOM     18  C   UNL     1      16.214  43.409  42.880  0.00  0.00    +0.000 C 
BRANCH  18  19
ATOM     19  C   UNL     1      16.308  41.973  43.343  0.00  0.00    +0.000 A 
ATOM     20  C   UNL     1      16.729  40.970  42.459  0.00  0.00    +0.000 A 
ATOM     21  C   UNL     1      16.821  39.645  42.883  0.00  0.00    +0.000 A 
ATOM     22  C   UNL     1      16.486  39.305  44.193  0.00  0.00    +0.000 A 
ATOM     23  C   UNL     1      16.042  40.286  45.090  0.00  0.00    +0.000 A 
ATOM     24  C   UNL     1      15.963  41.620  44.656  0.00  0.00    +0.000 A 
BRANCH  23  25
ATOM     25  C   UNL     1      15.691  39.925  46.514  0.00  0.00    +0.000 C 
ATOM     26  F   UNL     1      16.769  39.569  47.265  0.00  0.00    +0.000 F 
ATOM     27  F   UNL     1      14.817  38.885  46.596  0.00  0.00    +0.000 F 
ATOM     28  F   UNL     1      15.101  40.961  47.172  0.00  0.00    +0.000 F 
ENDBRANCH  23  25
ENDBRANCH  18  19
ENDBRANCH  15  18
ENDBRANCH   7  14
BRANCH   4  29
ATOM     29  N   UNL     1      11.073  43.399  47.486  0.00  0.00    +0.000 N 
ATOM     30  H   UNL     1      10.542  43.113  48.300  0.00  0.00    +0.000 HD
ATOM     31  H   UNL     1      10.643  43.054  46.630  0.00  0.00    +0.000 HD
ENDBRANCH   4  29
TORSDOF 5
ENDMDL
MODEL 2
REMARK VINA RESULT:    -6.314     10.586     12.551
REMARK INTER + INTRA:          -8.673
REMARK INTER:                  -8.004
REMARK INTRA:                  -0.669
REMARK UNBOUND:                -0.697
REMARK  Name = 
REMARK  5 active torsions:
REMARK  status: ('A' for Active; 'I' for Inactive)
REMARK    1  A    between atoms: C_4  and  N_5
REMARK    2  A    between atoms: C_8  and  N_9
REMARK    3  A    between atoms: C_10  and  C_12
REMARK    4  A    between atoms: C_12  and  C_13
REMARK    5  A    between atoms: C_17  and  C_18
REMARK                            x       y       z     vdW  Elec       q    Type
REMARK                         _______ _______ _______ _____ _____    ______ ____
ROOT
ATOM      1  N   UNL     1      14.833  44.137  53.395  0.00  0.00    +0.000 N 
ATOM      2  C   UNL     1      15.457  42.956  53.738  0.00  0.00    +0.000 A 
ATOM      3  N   UNL     1      16.292  42.421  52.849  0.00  0.00    +0.000 NA
ATOM      4  C   UNL     1      16.875  41.267  53.193  0.00  0.00    +0.000 A 
ATOM      5  C   UNL     1      16.650  40.626  54.415  0.00  0.00    +0.000 A 
ATOM      6  C   UNL     1      17.274  39.423  54.834  0.00  0.00    +0.000 A 
ATOM      7  C   UNL     1      16.979  38.850  56.074  0.00  0.00    +0.000 A 
ATOM      8  C   UNL     1      16.054  39.490  56.891  0.00  0.00    +0.000 A 
ATOM      9  C   UNL     1      15.449  40.684  56.475  0.00  0.00    +0.000 A 
ATOM     10  C   UNL     1      15.735  41.268  55.249  0.00  0.00    +0.000 A 
ATOM     11  N   UNL     1      15.134  42.414  54.912  0.00  0.00    +0.000 NA
ATOM     12  H   UNL     1      14.800  44.237  52.391  0.00  0.00    +0.000 HD
ATOM     13  H   UNL     1      13.966  44.231  53.906  0.00  0.00    +0.000 HD
ENDROOT
BRANCH   7  14
ATOM     14  N   UNL     1      17.649  37.659  56.413  0.00  0.00    +0.000 N 
ATOM     15  C   UNL     1      17.231  36.359  56.184  0.00  0.00    +0.000 C 
ATOM     16  O   UNL     1      16.189  36.017  55.632  0.00  0.00    +0.000 OA
ATOM     17  H   UNL     1      18.566  37.768  56.830  0.00  0.00    +0.000 HD
BRANCH  15  18
ATOM     18  C   UNL     1      18.192  35.313  56.736  0.00  0.00    +0.000 C 
BRANCH  18  19
ATOM     19  C   UNL     1      19.357  35.008  55.823  0.00  0.00    +0.000 A 
ATOM     20  C   UNL     1      19.196  35.044  54.432  0.00  0.00    +0.000 A 
ATOM     21  C   UNL     1      20.270  34.769  53.587  0.00  0.00    +0.000 A 
ATOM     22  C   UNL     1      21.516  34.445  54.121  0.00  0.00    +0.000 A 
ATOM     23  C   UNL     1      21.698  34.381  55.510  0.00  0.00    +0.000 A 
ATOM     24  C   UNL     1      20.612  34.671  56.353  0.00  0.00    +0.000 A 
BRANCH  23  25
ATOM     25  C   UNL     1      23.049  34.044  56.095  0.00  0.00    +0.000 C 
ATOM     26  F   UNL     1      23.550  35.020  56.901  0.00  0.00    +0.000 F 
ATOM     27  F   UNL     1      23.997  33.821  55.144  0.00  0.00    +0.000 F 
ATOM     28  F   UNL     1      23.009  32.914  56.854  0.00  0.00    +0.000 F 
ENDBRANCH  23  25
ENDBRANCH  18  19
ENDBRANCH  15  18
ENDBRANCH   7  14
BRANCH   4  29
ATOM     29  N   UNL     1      17.748  40.735  52.232  0.00  0.00    +0.000 N 
ATOM     30  H   UNL     1      17.234  40.271  51.492  0.00  0.00    +0.000 HD
ATOM     31  H   UNL     1      18.289  41.516  51.867  0.00  0.00    +0.000 HD
ENDBRANCH   4  29
TORSDOF 5
ENDMDL
MODEL 3
REMARK VINA RESULT:    -6.222      9.940     12.020
REMARK INTER + INTRA:          -8.556
REMARK INTER:                  -7.859
REMARK INTRA:                  -0.697
REMARK UNBOUND:                -0.697
REMARK  Name = 
REMARK  5 active torsions:
REMARK  status: ('A' for Active; 'I' for Inactive)
REMARK    1  A    between atoms: C_4  and  N_5
REMARK    2  A    between atoms: C_8  and  N_9
REMARK    3  A    between atoms: C_10  and  C_12
REMARK    4  A    between atoms: C_12  and  C_13
REMARK    5  A    between atoms: C_17  and  C_18
REMARK                            x       y       z     vdW  Elec       q    Type
REMARK                         _______ _______ _______ _____ _____    ______ ____
ROOT
ATOM      1  N   UNL     1      15.530  43.049  52.981  0.00  0.00    +0.000 N 
ATOM      2  C   UNL     1      16.147  41.817  53.036  0.00  0.00    +0.000 A 
ATOM      3  N   UNL     1      16.481  41.349  54.237  0.00  0.00    +0.000 NA
ATOM      4  C   UNL     1      17.092  40.159  54.268  0.00  0.00    +0.000 A 
ATOM      5  C   UNL     1      17.379  39.412  53.122  0.00  0.00    +0.000 A 
ATOM      6  C   UNL     1      17.992  38.133  53.112  0.00  0.00    +0.000 A 
ATOM      7  C   UNL     1      18.249  37.463  51.913  0.00  0.00    +0.000 A 
ATOM      8  C   UNL     1      17.887  38.084  50.723  0.00  0.00    +0.000 A 
ATOM      9  C   UNL     1      17.272  39.344  50.740  0.00  0.00    +0.000 A 
ATOM     10  C   UNL     1      17.007  40.019  51.923  0.00  0.00    +0.000 A 
ATOM     11  N   UNL     1      16.408  41.214  51.876  0.00  0.00    +0.000 NA
ATOM     12  H   UNL     1      15.752  43.588  53.805  0.00  0.00    +0.000 HD
ATOM     13  H   UNL     1      15.693  43.477  52.080  0.00  0.00    +0.000 HD
ENDROOT
BRANCH   7  14
ATOM     14  N   UNL     1      18.854  36.194  51.996  0.00  0.00    +0.000 N 
ATOM     15  C   UNL     1      20.166  35.863  51.703  0.00  0.00    +0.000 C 
ATOM     16  O   UNL     1      21.042  36.634  51.320  0.00  0.00    +0.000 OA
ATOM     17  H   UNL     1      18.272  35.447  52.357  0.00  0.00    +0.000 HD
BRANCH  15  18
ATOM     18  C   UNL     1      20.459  34.375  51.857  0.00  0.00    +0.000 C 
BRANCH  18  19
ATOM     19  C   UNL     1      21.639  34.072  52.752  0.00  0.00    +0.000 A 
ATOM     20  C   UNL     1      22.824  33.556  52.212  0.00  0.00    +0.000 A 
ATOM     21  C   UNL     1      23.916  33.280  53.033  0.00  0.00    +0.000 A 
ATOM     22  C   UNL     1      23.833  33.506  54.406  0.00  0.00    +0.000 A 
ATOM     23  C   UNL     1      22.651  34.001  54.975  0.00  0.00    +0.000 A 
ATOM     24  C   UNL     1      21.560  34.287  54.136  0.00  0.00    +0.000 A 
BRANCH  23  25
ATOM     25  C   UNL     1      22.561  34.262  56.460  0.00  0.00    +0.000 C 
ATOM     26  F   UNL     1      22.400  33.131  57.200  0.00  0.00    +0.000 F 
ATOM     27  F   UNL     1      21.522  35.077  56.791  0.00  0.00    +0.000 F 
ATOM     28  F   UNL     1      23.680  34.870  56.941  0.00  0.00    +0.000 F 
ENDBRANCH  23  25
ENDBRANCH  18  19
ENDBRANCH  15  18
ENDBRANCH   7  14
BRANCH   4  29
ATOM     29  N   UNL     1      17.427  39.699  55.550  0.00  0.00    +0.000 N 
ATOM     30  H   UNL     1      17.504  40.470  56.204  0.00  0.00    +0.000 HD
ATOM     31  H   UNL     1      16.691  39.055  55.829  0.00  0.00    +0.000 HD
ENDBRANCH   4  29
TORSDOF 5
ENDMDL
