MODEL 1
REMARK VINA RESULT:    -6.688      0.000      0.000
REMARK INTER + INTRA:          -9.355
REMARK INTER:                  -8.118
REMARK INTRA:                  -1.237
REMARK UNBOUND:                -1.298
REMARK  Name = 
REMARK  5 active torsions:
REMARK  status: ('A' for Active; 'I' for Inactive)
REMARK    1  A    between atoms: C_1  and  C_2
REMARK    2  A    between atoms: C_2  and  C_3
REMARK    3  A    between atoms: C_2  and  N_9
REMARK    4  A    between atoms: C_18  and  C_19
REMARK    5  A    between atoms: C_23  and  N_24
REMARK                            x       y       z     vdW  Elec       q    Type
REMARK                         _______ _______ _______ _____ _____    ______ ____
ROOT
ATOM      1  N   UNL     1      13.626  43.342  44.783  0.00  0.00    +0.000 N 
ATOM      2  N   UNL     1      13.283  42.038  44.898  0.00  0.00    +0.000 NA
ATOM      3  N   UNL     1      12.291  41.947  45.765  0.00  0.00    +0.000 NA
ATOM      4  C   UNL     1      11.988  43.207  46.188  0.00  0.00    +0.000 A 
ATOM      5  C   UNL     1      11.024  43.635  47.097  0.00  0.00    +0.000 A 
ATOM      6  N   UNL     1      10.879  44.954  47.376  0.00  0.00    +0.000 NA
ATOM      7  C   UNL     1      11.658  45.860  46.764  0.00  0.00    +0.000 A 
ATOM      8  C   UNL     1      11.459  47.197  47.063  0.00  0.00    +0.000 A 
ATOM      9  C   UNL     1      12.209  48.214  46.460  0.00  0.00    +0.000 A 
ATOM     10  C   UNL     1      13.200  47.913  45.520  0.00  0.00    +0.000 A 
ATOM     11  C   UNL     1      13.425  46.560  45.218  0.00  0.00    +0.000 A 
ATOM     12  C   UNL     1      12.668  45.533  45.827  0.00  0.00    +0.000 A 
ATOM     13  C   UNL     1      12.816  44.141  45.566  0.00  0.00    +0.000 A 
ENDROOT
BRANCH  10  14
ATOM     14  C   UNL     1      13.975  48.972  44.857  0.00  0.00    +0.000 A 
ATOM     15  C   UNL     1      13.367  49.854  43.960  0.00  0.00    +0.000 A 
ATOM     16  C   UNL     1      14.140  50.838  43.365  0.00  0.00    +0.000 A 
ATOM     17  N   UNL     1      15.460  50.994  43.591  0.00  0.00    +0.000 NA
ATOM     18  C   UNL     1      16.041  50.144  44.451  0.00  0.00    +0.000 A 
ATOM     19  C   UNL     1      15.343  49.136  45.104  0.00  0.00    +0.000 A 
BRANCH  18  20
ATOM     20  N   UNL     1      17.397  50.338  44.695  0.00  0.00    +0.000 N 
ATOM     21  H   UNL     1      17.472  51.122  45.338  0.00  0.00    +0.000 HD
ATOM     22  H   UNL     1      17.913  50.502  43.838  0.00  0.00    +0.000 HD
ENDBRANCH  18  20
ENDBRANCH  10  14
BRANCH   1  24
ATOM     23  C   UNL     1      15.946  42.721  44.039  0.00  0.00    +0.000 C 
ATOM     24  C   UNL     1      14.768  43.702  43.938  0.00  0.00    +0.000 C 
BRANCH  24  25
ATOM     25  C   UNL     1      14.376  43.897  42.478  0.00  0.00    +0.000 A 
ATOM     26  C   UNL     1      15.124  43.354  41.421  0.00  0.00    +0.000 A 
ATOM     27  C   UNL     1      14.740  43.566  40.095  0.00  0.00    +0.000 A 
ATOM     28  C   UNL     1      13.616  44.334  39.805  0.00  0.00    +0.000 A 
ATOM     29  C   UNL     1      12.875  44.900  40.840  0.00  0.00    +0.000 A 
ATOM     30  C   UNL     1      13.256  44.689  42.166  0.00  0.00    +0.000 A 
ENDBRANCH  24  25
ENDBRANCH   1  24
TORSDOF 4
ENDMDL
MODEL 2
REMARK VINA RESULT:    -6.413      1.227      1.888
REMARK INTER + INTRA:          -9.024
REMARK INTER:                  -7.845
REMARK INTRA:                  -1.179
REMARK UNBOUND:                -1.298
REMARK  Name = 
REMARK  5 active torsions:
REMARK  status: ('A' for Active; 'I' for Inactive)
REMARK    1  A    between atoms: C_1  and  C_2
REMARK    2  A    between atoms: C_2  and  C_3
REMARK    3  A    between atoms: C_2  and  N_9
REMARK    4  A    between atoms: C_18  and  C_19
REMARK    5  A    between atoms: C_23  and  N_24
REMARK                            x       y       z     vdW  Elec       q    Type
REMARK                         _______ _______ _______ _____ _____    ______ ____
ROOT
ATOM      1  N   UNL     1      13.022  44.307  46.069  0.00  0.00    +0.000 N 
ATOM      2  N   UNL     1      12.417  43.142  46.398  0.00  0.00    +0.000 NA
ATOM      3  N   UNL     1      11.299  43.424  47.042  0.00  0.00    +0.000 NA
ATOM      4  C   UNL     1      11.184  44.781  47.106  0.00  0.00    +0.000 A 
ATOM      5  C   UNL     1      10.189  45.565  47.682  0.00  0.00    +0.000 A 
ATOM      6  N   UNL     1      10.261  46.919  47.628  0.00  0.00    +0.000 NA
ATOM      7  C   UNL     1      11.291  47.511  47.002  0.00  0.00    +0.000 A 
ATOM      8  C   UNL     1      11.312  48.895  46.952  0.00  0.00    +0.000 A 
ATOM      9  C   UNL     1      12.333  49.601  46.304  0.00  0.00    +0.000 A 
ATOM     10  C   UNL     1      13.384  48.925  45.676  0.00  0.00    +0.000 A 
ATOM     11  C   UNL     1      13.386  47.522  45.733  0.00  0.00    +0.000 A 
ATOM     12  C   UNL     1      12.355  46.809  46.386  0.00  0.00    +0.000 A 
ATOM     13  C   UNL     1      12.268  45.391  46.474  0.00  0.00    +0.000 A 
ENDROOT
BRANCH  10  14
ATOM     14  C   UNL     1      14.448  49.652  44.967  0.00  0.00    +0.000 A 
ATOM     15  C   UNL     1      15.793  49.325  45.156  0.00  0.00    +0.000 A 
ATOM     16  C   UNL     1      16.757  50.036  44.461  0.00  0.00    +0.000 A 
ATOM     17  N   UNL     1      16.477  51.044  43.609  0.00  0.00    +0.000 NA
ATOM     18  C   UNL     1      15.184  51.357  43.432  0.00  0.00    +0.000 A 
ATOM     19  C   UNL     1      14.151  50.690  44.076  0.00  0.00    +0.000 A 
BRANCH  18  20
ATOM     20  N   UNL     1      14.912  52.380  42.528  0.00  0.00    +0.000 N 
ATOM     21  H   UNL     1      15.787  52.873  42.369  0.00  0.00    +0.000 HD
ATOM     22  H   UNL     1      14.187  53.000  42.870  0.00  0.00    +0.000 HD
ENDBRANCH  18  20
ENDBRANCH  10  14
BRANCH   1  24
ATOM     23  C   UNL     1      15.215  43.093  45.875  0.00  0.00    +0.000 C 
ATOM     24  C   UNL     1      14.333  44.264  45.416  0.00  0.00    +0.000 C 
BRANCH  24  25
ATOM     25  C   UNL     1      14.229  44.273  43.895  0.00  0.00    +0.000 A 
ATOM     26  C   UNL     1      15.259  43.796  43.070  0.00  0.00    +0.000 A 
ATOM     27  C   UNL     1      15.133  43.833  41.680  0.00  0.00    +0.000 A 
ATOM     28  C   UNL     1      13.985  44.360  41.094  0.00  0.00    +0.000 A 
ATOM     29  C   UNL     1      12.963  44.861  41.897  0.00  0.00    +0.000 A 
ATOM     30  C   UNL     1      13.086  44.823  43.287  0.00  0.00    +0.000 A 
ENDBRANCH  24  25
ENDBRANCH   1  24
TORSDOF 4
ENDMDL
MODEL 3
REMARK VINA RESULT:    -6.346      2.195      6.262
REMARK INTER + INTRA:          -8.942
REMARK INTER:                  -7.644
REMARK INTRA:                  -1.298
REMARK UNBOUND:                -1.298
REMARK  Name = 
REMARK  5 active torsions:
REMARK  status: ('A' for Active; 'I' for Inactive)
REMARK    1  A    between atoms: C_1  and  C_2
REMARK    2  A    between atoms: C_2  and  C_3
REMARK    3  A    between atoms: C_2  and  N_9
REMARK    4  A    between atoms: C_18  and  C_19
REMARK    5  A    between atoms: C_23  and  N_24
REMARK                            x       y       z     vdW  Elec       q    Type
REMARK                         _______ _______ _______ _____ _____    ______ ____
ROOT
ATOM      1  N   UNL     1      12.039  49.588  44.991  0.00  0.00    +0.000 N 
ATOM      2  N   UNL     1      11.442  50.715  45.447  0.00  0.00    +0.000 NA
ATOM      3  N   UNL     1      10.725  50.400  46.510  0.00  0.00    +0.000 NA
ATOM      4  C   UNL     1      10.883  49.066  46.743  0.00  0.00    +0.000 A 
ATOM      5  C   UNL     1      10.334  48.263  47.738  0.00  0.00    +0.000 A 
ATOM      6  N   UNL     1      10.630  46.941  47.798  0.00  0.00    +0.000 NA
ATOM      7  C   UNL     1      11.470  46.400  46.901  0.00  0.00    +0.000 A 
ATOM      8  C   UNL     1      11.760  45.051  47.014  0.00  0.00    +0.000 A 
ATOM      9  C   UNL     1      12.640  44.404  46.137  0.00  0.00    +0.000 A 
ATOM     10  C   UNL     1      13.266  45.105  45.102  0.00  0.00    +0.000 A 
ATOM     11  C   UNL     1      12.968  46.470  44.964  0.00  0.00    +0.000 A 
ATOM     12  C   UNL     1      12.080  47.124  45.849  0.00  0.00    +0.000 A 
ATOM     13  C   UNL     1      11.738  48.505  45.794  0.00  0.00    +0.000 A 
ENDROOT
BRANCH  10  14
ATOM     14  C   UNL     1      14.214  44.446  44.192  0.00  0.00    +0.000 A 
ATOM     15  C   UNL     1      15.213  43.601  44.683  0.00  0.00    +0.000 A 
ATOM     16  C   UNL     1      16.079  42.999  43.784  0.00  0.00    +0.000 A 
ATOM     17  N   UNL     1      16.025  43.187  42.450  0.00  0.00    +0.000 NA
ATOM     18  C   UNL     1      15.066  44.001  41.983  0.00  0.00    +0.000 A 
ATOM     19  C   UNL     1      14.147  44.636  42.807  0.00  0.00    +0.000 A 
BRANCH  18  20
ATOM     20  N   UNL     1      15.007  44.160  40.601  0.00  0.00    +0.000 N 
ATOM     21  H   UNL     1      14.255  43.563  40.267  0.00  0.00    +0.000 HD
ATOM     22  H   UNL     1      15.891  43.937  40.159  0.00  0.00    +0.000 HD
ENDBRANCH  18  20
ENDBRANCH  10  14
BRANCH   1  24
ATOM     23  C   UNL     1      12.189  50.514  42.658  0.00  0.00    +0.000 C 
ATOM     24  C   UNL     1      12.830  49.655  43.760  0.00  0.00    +0.000 C 
BRANCH  24  25
ATOM     25  C   UNL     1      14.262  50.112  44.009  0.00  0.00    +0.000 A 
ATOM     26  C   UNL     1      14.785  51.286  43.445  0.00  0.00    +0.000 A 
ATOM     27  C   UNL     1      16.107  51.665  43.686  0.00  0.00    +0.000 A 
ATOM     28  C   UNL     1      16.930  50.870  44.480  0.00  0.00    +0.000 A 
ATOM     29  C   UNL     1      16.436  49.689  45.029  0.00  0.00    +0.000 A 
ATOM     30  C   UNL     1      15.114  49.310  44.790  0.00  0.00    +0.000 A 
ENDBRANCH  24  25
ENDBRANCH   1  24
TORSDOF 4
ENDMDL
