MODEL 1
REMARK VINA RESULT:    -7.185      0.000      0.000
REMARK INTER + INTRA:          -7.395
REMARK INTER:                  -7.395
REMARK INTRA:                   0.000
REMARK UNBOUND:                 0.000
REMARK  Name = 
REMARK  1 active torsions:
REMARK  status: ('A' for Active; 'I' for Inactive)
REMARK    1  A    between atoms: O_1  and  C_2
REMARK                            x       y       z     vdW  Elec       q    Type
REMARK                         _______ _______ _______ _____ _____    ______ ____
ROOT
ATOM      1  C   UNL     1      15.747  39.466  52.565  0.00  0.00    +0.000 C 
ATOM      2  C   UNL     1      17.276  39.513  52.844  0.00  0.00    +0.000 C 
ATOM      3  C   UNL     1      18.183  38.972  51.727  0.00  0.00    +0.000 C 
ATOM      4  C   UNL     1      18.395  37.458  51.845  0.00  0.00    +0.000 C 
ATOM      5  C   UNL     1      19.512  36.955  50.931  0.00  0.00    +0.000 C 
ATOM      6  C   UNL     1      19.701  35.432  50.989  0.00  0.00    +0.000 C 
ATOM      7  C   UNL     1      19.968  34.914  52.407  0.00  0.00    +0.000 C 
ATOM      8  C   UNL     1      20.322  33.420  52.469  0.00  0.00    +0.000 C 
ATOM      9  C   UNL     1      21.675  33.044  51.890  0.00  0.00    +0.000 C 
ATOM     10  C   UNL     1      22.781  33.585  52.774  0.00  0.00    +0.000 C 
ATOM     11  N   UNL     1      22.643  33.114  54.148  0.00  0.00    +0.000 NA
ATOM     12  C   UNL     1      23.685  33.716  54.990  0.00  0.00    +0.000 C 
ATOM     13  C   UNL     1      23.328  33.715  56.470  0.00  0.00    +0.000 C 
ATOM     14  C   UNL     1      22.069  34.540  56.729  0.00  0.00    +0.000 C 
ATOM     15  C   UNL     1      21.039  34.470  55.576  0.00  0.00    +0.000 C 
ATOM     16  C   UNL     1      19.595  34.531  56.127  0.00  0.00    +0.000 C 
ATOM     17  C   UNL     1      19.267  35.862  56.820  0.00  0.00    +0.000 C 
ATOM     18  C   UNL     1      17.915  35.799  57.541  0.00  0.00    +0.000 C 
ATOM     19  C   UNL     1      17.583  37.102  58.281  0.00  0.00    +0.000 C 
ATOM     20  C   UNL     1      16.989  38.199  57.387  0.00  0.00    +0.000 C 
ATOM     21  C   UNL     1      15.486  37.994  57.144  0.00  0.00    +0.000 C 
ATOM     22  C   UNL     1      14.847  38.999  56.174  0.00  0.00    +0.000 C 
ATOM     23  C   UNL     1      14.956  40.449  56.625  0.00  0.00    +0.000 C 
ATOM     24  C   UNL     1      14.301  41.338  55.575  0.00  0.00    +0.000 C 
ATOM     25  N   UNL     1      14.888  41.109  54.254  0.00  0.00    +0.000 NA
ATOM     26  C   UNL     1      14.238  41.942  53.232  0.00  0.00    +0.000 C 
ATOM     27  C   UNL     1      14.118  41.284  51.851  0.00  0.00    +0.000 C 
ATOM     28  C   UNL     1      15.384  40.517  51.486  0.00  0.00    +0.000 C 
ATOM     29  C   UNL     1      14.910  39.693  53.889  0.00  0.00    +0.000 C 
ATOM     30  O   UNL     1      15.478  38.862  54.908  0.00  0.00    +0.000 OA
ATOM     31  C   UNL     1      21.291  33.207  54.712  0.00  0.00    +0.000 C 
ATOM     32  O   UNL     1      20.225  32.922  53.802  0.00  0.00    +0.000 OA
ENDROOT
BRANCH   1  33
ATOM     33  O   UNL     1      15.419  38.174  52.018  0.00  0.00    +0.000 OA
ATOM     34  H   UNL     1      15.989  37.511  52.438  0.00  0.00    +0.000 HD
ENDBRANCH   1  33
TORSDOF 1
ENDMDL
MODEL 2
REMARK VINA RESULT:    -6.346      4.692      9.041
REMARK INTER + INTRA:          -6.531
REMARK INTER:                  -6.531
REMARK INTRA:                   0.000
REMARK UNBOUND:                 0.000
REMARK  Name = 
REMARK  1 active torsions:
REMARK  status: ('A' for Active; 'I' for Inactive)
REMARK    1  A    between atoms: O_1  and  C_2
REMARK                            x       y       z     vdW  Elec       q    Type
REMARK                         _______ _______ _______ _____ _____    ______ ____
ROOT
ATOM      1  C   UNL     1      20.289  34.382  53.442  0.00  0.00    +0.000 C 
ATOM      2  C   UNL     1      20.754  35.626  52.634  0.00  0.00    +0.000 C 
ATOM      3  C   UNL     1      19.780  36.137  51.559  0.00  0.00    +0.000 C 
ATOM      4  C   UNL     1      19.981  35.421  50.218  0.00  0.00    +0.000 C 
ATOM      5  C   UNL     1      19.233  36.106  49.076  0.00  0.00    +0.000 C 
ATOM      6  C   UNL     1      19.371  35.371  47.734  0.00  0.00    +0.000 C 
ATOM      7  C   UNL     1      20.829  35.174  47.307  0.00  0.00    +0.000 C 
ATOM      8  C   UNL     1      20.992  34.589  45.895  0.00  0.00    +0.000 C 
ATOM      9  C   UNL     1      20.600  35.513  44.754  0.00  0.00    +0.000 C 
ATOM     10  C   UNL     1      21.594  36.653  44.652  0.00  0.00    +0.000 C 
ATOM     11  N   UNL     1      22.957  36.158  44.490  0.00  0.00    +0.000 NA
ATOM     12  C   UNL     1      23.899  37.285  44.469  0.00  0.00    +0.000 C 
ATOM     13  C   UNL     1      25.322  36.876  44.826  0.00  0.00    +0.000 C 
ATOM     14  C   UNL     1      25.391  36.314  46.244  0.00  0.00    +0.000 C 
ATOM     15  C   UNL     1      24.122  35.531  46.658  0.00  0.00    +0.000 C 
ATOM     16  C   UNL     1      24.486  34.352  47.591  0.00  0.00    +0.000 C 
ATOM     17  C   UNL     1      25.082  34.803  48.933  0.00  0.00    +0.000 C 
ATOM     18  C   UNL     1      25.631  33.613  49.729  0.00  0.00    +0.000 C 
ATOM     19  C   UNL     1      26.274  34.041  51.055  0.00  0.00    +0.000 C 
ATOM     20  C   UNL     1      25.272  34.269  52.196  0.00  0.00    +0.000 C 
ATOM     21  C   UNL     1      24.851  32.950  52.865  0.00  0.00    +0.000 C 
ATOM     22  C   UNL     1      23.772  33.093  53.948  0.00  0.00    +0.000 C 
ATOM     23  C   UNL     1      24.178  33.988  55.112  0.00  0.00    +0.000 C 
ATOM     24  C   UNL     1      23.022  34.056  56.102  0.00  0.00    +0.000 C 
ATOM     25  N   UNL     1      21.794  34.504  55.443  0.00  0.00    +0.000 NA
ATOM     26  C   UNL     1      20.669  34.542  56.388  0.00  0.00    +0.000 C 
ATOM     27  C   UNL     1      19.309  34.174  55.780  0.00  0.00    +0.000 C 
ATOM     28  C   UNL     1      19.134  34.784  54.393  0.00  0.00    +0.000 C 
ATOM     29  C   UNL     1      21.488  33.730  54.242  0.00  0.00    +0.000 C 
ATOM     30  O   UNL     1      22.601  33.626  53.346  0.00  0.00    +0.000 OA
ATOM     31  C   UNL     1      23.344  35.071  45.397  0.00  0.00    +0.000 C 
ATOM     32  O   UNL     1      22.320  34.115  45.682  0.00  0.00    +0.000 OA
ENDROOT
BRANCH   1  33
ATOM     33  O   UNL     1      19.754  33.411  52.522  0.00  0.00    +0.000 OA
ATOM     34  H   UNL     1      19.360  32.688  53.035  0.00  0.00    +0.000 HD
ENDBRANCH   1  33
TORSDOF 1
ENDMDL
MODEL 3
REMARK VINA RESULT:    -6.203      1.755      8.224
REMARK INTER + INTRA:          -6.384
REMARK INTER:                  -6.384
REMARK INTRA:                   0.000
REMARK UNBOUND:                 0.000
REMARK  Name = 
REMARK  1 active torsions:
REMARK  status: ('A' for Active; 'I' for Inactive)
REMARK    1  A    between atoms: O_1  and  C_2
REMARK                            x       y       z     vdW  Elec       q    Type
REMARK                         _______ _______ _______ _____ _____    ______ ____
ROOT
ATOM      1  C   UNL     1      20.453  35.630  51.070  0.00  0.00    +0.000 C 
ATOM      2  C   UNL     1      18.903  35.642  51.200  0.00  0.00    +0.000 C 
ATOM      3  C   UNL     1      18.170  36.759  50.438  0.00  0.00    +0.000 C 
ATOM      4  C   UNL     1      18.065  38.044  51.269  0.00  0.00    +0.000 C 
ATOM      5  C   UNL     1      17.099  39.056  50.653  0.00  0.00    +0.000 C 
ATOM      6  C   UNL     1      17.025  40.375  51.436  0.00  0.00    +0.000 C 
ATOM      7  C   UNL     1      16.644  40.177  52.908  0.00  0.00    +0.000 C 
ATOM      8  C   UNL     1      16.402  41.489  53.672  0.00  0.00    +0.000 C 
ATOM      9  C   UNL     1      15.155  42.259  53.271  0.00  0.00    +0.000 C 
ATOM     10  C   UNL     1      13.919  41.500  53.712  0.00  0.00    +0.000 C 
ATOM     11  N   UNL     1      13.941  41.233  55.146  0.00  0.00    +0.000 NA
ATOM     12  C   UNL     1      12.768  40.434  55.524  0.00  0.00    +0.000 C 
ATOM     13  C   UNL     1      12.959  39.681  56.833  0.00  0.00    +0.000 C 
ATOM     14  C   UNL     1      14.113  38.686  56.730  0.00  0.00    +0.000 C 
ATOM     15  C   UNL     1      15.266  39.174  55.821  0.00  0.00    +0.000 C 
ATOM     16  C   UNL     1      16.631  38.681  56.355  0.00  0.00    +0.000 C 
ATOM     17  C   UNL     1      16.776  37.152  56.328  0.00  0.00    +0.000 C 
ATOM     18  C   UNL     1      18.040  36.696  57.066  0.00  0.00    +0.000 C 
ATOM     19  C   UNL     1      18.186  35.169  57.093  0.00  0.00    +0.000 C 
ATOM     20  C   UNL     1      18.787  34.571  55.814  0.00  0.00    +0.000 C 
ATOM     21  C   UNL     1      20.320  34.682  55.790  0.00  0.00    +0.000 C 
ATOM     22  C   UNL     1      20.982  34.196  54.493  0.00  0.00    +0.000 C 
ATOM     23  C   UNL     1      20.710  32.733  54.170  0.00  0.00    +0.000 C 
ATOM     24  C   UNL     1      21.406  32.384  52.860  0.00  0.00    +0.000 C 
ATOM     25  N   UNL     1      20.988  33.288  51.788  0.00  0.00    +0.000 NA
ATOM     26  C   UNL     1      21.681  32.975  50.530  0.00  0.00    +0.000 C 
ATOM     27  C   UNL     1      22.004  34.194  49.656  0.00  0.00    +0.000 C 
ATOM     28  C   UNL     1      20.850  35.191  49.638  0.00  0.00    +0.000 C 
ATOM     29  C   UNL     1      21.118  34.696  52.160  0.00  0.00    +0.000 C 
ATOM     30  O   UNL     1      20.507  34.999  53.421  0.00  0.00    +0.000 OA
ATOM     31  C   UNL     1      15.211  40.717  55.671  0.00  0.00    +0.000 C 
ATOM     32  O   UNL     1      16.390  41.271  55.081  0.00  0.00    +0.000 OA
ENDROOT
BRANCH   1  33
ATOM     33  O   UNL     1      20.939  36.976  51.244  0.00  0.00    +0.000 OA
ATOM     34  H   UNL     1      20.604  37.519  50.513  0.00  0.00    +0.000 HD
ENDBRANCH   1  33
TORSDOF 1
ENDMDL
