MODEL 1
REMARK VINA RESULT:    -6.383      0.000      0.000
REMARK INTER + INTRA:          -6.383
REMARK INTER:                  -6.383
REMARK INTRA:                   0.000
REMARK UNBOUND:                 0.000
REMARK  Name = 
REMARK  0 active torsions:
REMARK  status: ('A' for Active; 'I' for Inactive)
REMARK                            x       y       z     vdW  Elec       q    Type
REMARK                         _______ _______ _______ _____ _____    ______ ____
ROOT
ATOM      1  O   UNL     1      18.051  38.505  42.003  0.00  0.00    +0.000 OA
ATOM      2  C   UNL     1      17.249  39.371  42.285  0.00  0.00    +0.000 C 
ATOM      3  N   UNL     1      16.733  40.285  41.423  0.00  0.00    +0.000 N 
ATOM      4  C   UNL     1      15.902  41.172  42.030  0.00  0.00    +0.000 C 
ATOM      5  O   UNL     1      15.355  42.112  41.492  0.00  0.00    +0.000 OA
ATOM      6  C   UNL     1      15.827  40.780  43.439  0.00  0.00    +0.000 A 
ATOM      7  C   UNL     1      16.667  39.656  43.598  0.00  0.00    +0.000 A 
ATOM      8  C   UNL     1      16.868  38.990  44.813  0.00  0.00    +0.000 A 
ATOM      9  C   UNL     1      17.616  37.879  45.307  0.00  0.00    +0.000 A 
ATOM     10  C   UNL     1      18.513  36.955  44.724  0.00  0.00    +0.000 A 
ATOM     11  C   UNL     1      19.109  35.961  45.505  0.00  0.00    +0.000 A 
ATOM     12  C   UNL     1      18.827  35.868  46.860  0.00  0.00    +0.000 A 
ATOM     13  C   UNL     1      17.943  36.762  47.468  0.00  0.00    +0.000 A 
ATOM     14  C   UNL     1      17.340  37.761  46.677  0.00  0.00    +0.000 A 
ATOM     15  N   UNL     1      16.433  38.761  47.007  0.00  0.00    +0.000 N 
ATOM     16  C   UNL     1      16.173  39.514  45.897  0.00  0.00    +0.000 A 
ATOM     17  C   UNL     1      15.238  40.764  45.720  0.00  0.00    +0.000 A 
ATOM     18  C   UNL     1      15.091  41.368  44.476  0.00  0.00    +0.000 A 
ATOM     19  C   UNL     1      14.191  42.461  44.657  0.00  0.00    +0.000 A 
ATOM     20  C   UNL     1      13.657  43.452  43.804  0.00  0.00    +0.000 A 
ATOM     21  C   UNL     1      12.785  44.421  44.306  0.00  0.00    +0.000 A 
ATOM     22  C   UNL     1      12.433  44.423  45.648  0.00  0.00    +0.000 A 
ATOM     23  C   UNL     1      12.940  43.455  46.519  0.00  0.00    +0.000 A 
ATOM     24  C   UNL     1      13.816  42.477  46.008  0.00  0.00    +0.000 A 
ATOM     25  N   UNL     1      14.453  41.410  46.631  0.00  0.00    +0.000 N 
ATOM     26  C   UNL     1      14.371  41.156  48.056  0.00  0.00    +0.000 C 
ATOM     27  S   UNL     1      14.241  39.425  48.499  0.00  0.00    +0.000 S 
ATOM     28  O   UNL     1      13.319  38.582  47.416  0.00  0.00    +0.000 OA
ATOM     29  C   UNL     1      15.977  39.006  48.361  0.00  0.00    +0.000 C 
ATOM     30  H   UNL     1      16.983  40.334  40.449  0.00  0.00    +0.000 HD
ENDROOT
TORSDOF 0
ENDMDL
MODEL 2
REMARK VINA RESULT:    -6.351      8.139     11.580
REMARK INTER + INTRA:          -6.351
REMARK INTER:                  -6.351
REMARK INTRA:                   0.000
REMARK UNBOUND:                 0.000
REMARK  Name = 
REMARK  0 active torsions:
REMARK  status: ('A' for Active; 'I' for Inactive)
REMARK                            x       y       z     vdW  Elec       q    Type
REMARK                         _______ _______ _______ _____ _____    ______ ____
ROOT
ATOM      1  O   UNL     1      18.897  36.213  48.851  0.00  0.00    +0.000 OA
ATOM      2  C   UNL     1      19.093  35.968  50.023  0.00  0.00    +0.000 C 
ATOM      3  N   UNL     1      18.248  36.261  51.046  0.00  0.00    +0.000 N 
ATOM      4  C   UNL     1      18.755  35.923  52.260  0.00  0.00    +0.000 C 
ATOM      5  O   UNL     1      18.221  36.124  53.331  0.00  0.00    +0.000 OA
ATOM      6  C   UNL     1      20.059  35.303  52.014  0.00  0.00    +0.000 A 
ATOM      7  C   UNL     1      20.269  35.331  50.618  0.00  0.00    +0.000 A 
ATOM      8  C   UNL     1      21.415  34.833  49.985  0.00  0.00    +0.000 A 
ATOM      9  C   UNL     1      21.931  34.712  48.660  0.00  0.00    +0.000 A 
ATOM     10  C   UNL     1      21.459  35.076  47.379  0.00  0.00    +0.000 A 
ATOM     11  C   UNL     1      22.233  34.825  46.243  0.00  0.00    +0.000 A 
ATOM     12  C   UNL     1      23.473  34.214  46.358  0.00  0.00    +0.000 A 
ATOM     13  C   UNL     1      23.969  33.837  47.608  0.00  0.00    +0.000 A 
ATOM     14  C   UNL     1      23.185  34.089  48.752  0.00  0.00    +0.000 A 
ATOM     15  N   UNL     1      23.418  33.819  50.095  0.00  0.00    +0.000 N 
ATOM     16  C   UNL     1      22.372  34.291  50.835  0.00  0.00    +0.000 A 
ATOM     17  C   UNL     1      22.137  34.260  52.388  0.00  0.00    +0.000 A 
ATOM     18  C   UNL     1      20.969  34.775  52.939  0.00  0.00    +0.000 A 
ATOM     19  C   UNL     1      21.070  34.599  54.351  0.00  0.00    +0.000 A 
ATOM     20  C   UNL     1      20.240  34.916  55.449  0.00  0.00    +0.000 A 
ATOM     21  C   UNL     1      20.644  34.615  56.752  0.00  0.00    +0.000 A 
ATOM     22  C   UNL     1      21.868  34.003  56.984  0.00  0.00    +0.000 A 
ATOM     23  C   UNL     1      22.713  33.672  55.921  0.00  0.00    +0.000 A 
ATOM     24  C   UNL     1      22.299  33.972  54.609  0.00  0.00    +0.000 A 
ATOM     25  N   UNL     1      22.921  33.754  53.385  0.00  0.00    +0.000 N 
ATOM     26  C   UNL     1      24.254  33.200  53.259  0.00  0.00    +0.000 C 
ATOM     27  S   UNL     1      24.458  32.049  51.900  0.00  0.00    +0.000 S 
ATOM     28  O   UNL     1      23.110  31.118  51.677  0.00  0.00    +0.000 OA
ATOM     29  C   UNL     1      24.658  33.252  50.588  0.00  0.00    +0.000 C 
ATOM     30  H   UNL     1      17.365  36.728  50.922  0.00  0.00    +0.000 HD
ENDROOT
TORSDOF 0
ENDMDL
MODEL 3
REMARK VINA RESULT:    -6.236      7.856     11.209
REMARK INTER + INTRA:          -6.236
REMARK INTER:                  -6.236
REMARK INTRA:                   0.000
REMARK UNBOUND:                 0.000
REMARK  Name = 
REMARK  0 active torsions:
REMARK  status: ('A' for Active; 'I' for Inactive)
REMARK                            x       y       z     vdW  Elec       q    Type
REMARK                         _______ _______ _______ _____ _____    ______ ____
ROOT
ATOM      1  O   UNL     1      24.549  32.873  53.865  0.00  0.00    +0.000 OA
ATOM      2  C   UNL     1      24.196  33.087  52.724  0.00  0.00    +0.000 C 
ATOM      3  N   UNL     1      24.919  32.816  51.606  0.00  0.00    +0.000 N 
ATOM      4  C   UNL     1      24.298  33.217  50.467  0.00  0.00    +0.000 C 
ATOM      5  O   UNL     1      24.753  33.134  49.345  0.00  0.00    +0.000 OA
ATOM      6  C   UNL     1      23.007  33.780  50.868  0.00  0.00    +0.000 A 
ATOM      7  C   UNL     1      22.944  33.698  52.276  0.00  0.00    +0.000 A 
ATOM      8  C   UNL     1      21.859  34.145  53.042  0.00  0.00    +0.000 A 
ATOM      9  C   UNL     1      21.486  34.216  54.418  0.00  0.00    +0.000 A 
ATOM     10  C   UNL     1      22.109  33.845  55.631  0.00  0.00    +0.000 A 
ATOM     11  C   UNL     1      21.466  34.067  56.852  0.00  0.00    +0.000 A 
ATOM     12  C   UNL     1      20.210  34.654  56.889  0.00  0.00    +0.000 A 
ATOM     13  C   UNL     1      19.564  35.030  55.709  0.00  0.00    +0.000 A 
ATOM     14  C   UNL     1      20.212  34.801  54.479  0.00  0.00    +0.000 A 
ATOM     15  N   UNL     1      19.811  35.062  53.174  0.00  0.00    +0.000 N 
ATOM     16  C   UNL     1      20.809  34.695  52.317  0.00  0.00    +0.000 A 
ATOM     17  C   UNL     1      20.880  34.785  50.750  0.00  0.00    +0.000 A 
ATOM     18  C   UNL     1      21.994  34.317  50.063  0.00  0.00    +0.000 A 
ATOM     19  C   UNL     1      21.746  34.548  48.676  0.00  0.00    +0.000 A 
ATOM     20  C   UNL     1      22.476  34.316  47.490  0.00  0.00    +0.000 A 
ATOM     21  C   UNL     1      21.945  34.679  46.250  0.00  0.00    +0.000 A 
ATOM     22  C   UNL     1      20.694  35.274  46.169  0.00  0.00    +0.000 A 
ATOM     23  C   UNL     1      19.943  35.515  47.322  0.00  0.00    +0.000 A 
ATOM     24  C   UNL     1      20.480  35.142  48.570  0.00  0.00    +0.000 A 
ATOM     25  N   UNL     1      19.961  35.253  49.855  0.00  0.00    +0.000 N 
ATOM     26  C   UNL     1      18.699  35.902  50.149  0.00  0.00    +0.000 C 
ATOM     27  S   UNL     1      17.721  35.091  51.413  0.00  0.00    +0.000 S 
ATOM     28  O   UNL     1      17.848  33.445  51.324  0.00  0.00    +0.000 OA
ATOM     29  C   UNL     1      18.577  35.746  52.843  0.00  0.00    +0.000 C 
ATOM     30  H   UNL     1      25.840  32.410  51.624  0.00  0.00    +0.000 HD
ENDROOT
TORSDOF 0
ENDMDL
