MODEL 1
REMARK VINA RESULT:    -7.074      0.000      0.000
REMARK INTER + INTRA:          -8.389
REMARK INTER:                  -7.877
REMARK INTRA:                  -0.512
REMARK UNBOUND:                -0.488
REMARK  Name = 
REMARK  2 active torsions:
REMARK  status: ('A' for Active; 'I' for Inactive)
REMARK    1  A    between atoms: N_5  and  C_6
REMARK    2  A    between atoms: N_15  and  C_16
REMARK                            x       y       z     vdW  Elec       q    Type
REMARK                         _______ _______ _______ _____ _____    ______ ____
ROOT
ATOM      1  O   UNL     1      14.952  41.967  41.024  0.00  0.00    +0.000 OA
ATOM      2  C   UNL     1      15.499  41.140  41.735  0.00  0.00    +0.000 C 
ATOM      3  N   UNL     1      16.191  40.067  41.239  0.00  0.00    +0.000 N 
ATOM      4  C   UNL     1      16.680  39.184  42.231  0.00  0.00    +0.000 C 
ATOM      5  N   UNL     1      16.312  39.797  43.497  0.00  0.00    +0.000 N 
ATOM      6  C   UNL     1      15.551  41.069  43.277  0.00  0.00    +0.000 C 
ATOM      7  C   UNL     1      16.307  42.301  43.790  0.00  0.00    +0.000 C 
ATOM      8  C   UNL     1      15.414  43.241  44.609  0.00  0.00    +0.000 C 
ATOM      9  N   UNL     1      14.165  43.521  43.906  0.00  0.00    +0.000 NA
ATOM     10  C   UNL     1      13.365  42.305  43.668  0.00  0.00    +0.000 C 
ATOM     11  C   UNL     1      14.115  40.972  43.786  0.00  0.00    +0.000 C 
ATOM     12  H   UNL     1      16.253  39.909  40.244  0.00  0.00    +0.000 HD
ENDROOT
BRANCH   9  13
ATOM     13  C   UNL     1      13.338  44.624  44.467  0.00  0.00    +0.000 C 
ATOM     14  C   UNL     1      12.922  44.425  45.939  0.00  0.00    +0.000 C 
ATOM     15  C   UNL     1      11.990  45.543  46.409  0.00  0.00    +0.000 C 
ATOM     16  C   UNL     1      12.477  46.924  46.074  0.00  0.00    +0.000 A 
ATOM     17  C   UNL     1      11.905  48.031  46.720  0.00  0.00    +0.000 A 
ATOM     18  C   UNL     1      12.323  49.323  46.408  0.00  0.00    +0.000 A 
ATOM     19 CL   UNL     1      11.612  50.669  47.211  0.00  0.00    +0.000 Cl
ATOM     20  C   UNL     1      13.309  49.531  45.449  0.00  0.00    +0.000 A 
ATOM     21  C   UNL     1      13.874  48.437  44.794  0.00  0.00    +0.000 A 
ATOM     22  C   UNL     1      13.453  47.130  45.087  0.00  0.00    +0.000 A 
ATOM     23  C   UNL     1      14.109  45.971  44.374  0.00  0.00    +0.000 C 
ENDBRANCH   9  13
BRANCH   5  24
ATOM     24  C   UNL     1      16.660  39.194  44.693  0.00  0.00    +0.000 A 
ATOM     25  C   UNL     1      16.285  39.703  45.944  0.00  0.00    +0.000 A 
ATOM     26  C   UNL     1      16.643  39.087  47.153  0.00  0.00    +0.000 A 
ATOM     27  C   UNL     1      17.402  37.926  47.148  0.00  0.00    +0.000 A 
ATOM     28  C   UNL     1      17.798  37.389  45.933  0.00  0.00    +0.000 A 
ATOM     29  C   UNL     1      17.432  38.015  44.733  0.00  0.00    +0.000 A 
ENDBRANCH   5  24
TORSDOF 2
ENDMDL
MODEL 2
REMARK VINA RESULT:    -7.001      9.161     12.854
REMARK INTER + INTRA:          -8.308
REMARK INTER:                  -7.811
REMARK INTRA:                  -0.496
REMARK UNBOUND:                -0.488
REMARK  Name = 
REMARK  2 active torsions:
REMARK  status: ('A' for Active; 'I' for Inactive)
REMARK    1  A    between atoms: N_5  and  C_6
REMARK    2  A    between atoms: N_15  and  C_16
REMARK                            x       y       z     vdW  Elec       q    Type
REMARK                         _______ _______ _______ _____ _____    ______ ____
ROOT
ATOM      1  O   UNL     1      15.536  41.090  51.534  0.00  0.00    +0.000 OA
ATOM      2  C   UNL     1      15.565  41.134  52.753  0.00  0.00    +0.000 C 
ATOM      3  N   UNL     1      14.984  42.140  53.479  0.00  0.00    +0.000 N 
ATOM      4  C   UNL     1      15.201  42.046  54.874  0.00  0.00    +0.000 C 
ATOM      5  N   UNL     1      15.946  40.812  55.060  0.00  0.00    +0.000 N 
ATOM      6  C   UNL     1      16.223  40.150  53.745  0.00  0.00    +0.000 C 
ATOM      7  C   UNL     1      15.521  38.792  53.613  0.00  0.00    +0.000 C 
ATOM      8  C   UNL     1      16.449  37.699  53.070  0.00  0.00    +0.000 C 
ATOM      9  N   UNL     1      17.155  38.156  51.877  0.00  0.00    +0.000 NA
ATOM     10  C   UNL     1      18.015  39.326  52.142  0.00  0.00    +0.000 C 
ATOM     11  C   UNL     1      17.717  40.103  53.430  0.00  0.00    +0.000 C 
ATOM     12  H   UNL     1      14.522  42.909  53.016  0.00  0.00    +0.000 HD
ENDROOT
BRANCH   9  13
ATOM     13  C   UNL     1      17.875  37.106  51.106  0.00  0.00    +0.000 C 
ATOM     14  C   UNL     1      17.745  37.237  49.574  0.00  0.00    +0.000 C 
ATOM     15  C   UNL     1      18.420  36.066  48.858  0.00  0.00    +0.000 C 
ATOM     16  C   UNL     1      19.810  35.771  49.349  0.00  0.00    +0.000 A 
ATOM     17  C   UNL     1      20.654  34.960  48.575  0.00  0.00    +0.000 A 
ATOM     18  C   UNL     1      21.938  34.652  49.021  0.00  0.00    +0.000 A 
ATOM     19 CL   UNL     1      22.962  33.656  48.060  0.00  0.00    +0.000 Cl
ATOM     20  C   UNL     1      22.396  35.141  50.240  0.00  0.00    +0.000 A 
ATOM     21  C   UNL     1      21.558  35.938  51.021  0.00  0.00    +0.000 A 
ATOM     22  C   UNL     1      20.256  36.245  50.591  0.00  0.00    +0.000 A 
ATOM     23  C   UNL     1      19.390  37.133  51.453  0.00  0.00    +0.000 C 
ENDBRANCH   9  13
BRANCH   5  24
ATOM     24  C   UNL     1      16.313  40.401  56.328  0.00  0.00    +0.000 A 
ATOM     25  C   UNL     1      16.970  39.188  56.580  0.00  0.00    +0.000 A 
ATOM     26  C   UNL     1      17.337  38.776  57.870  0.00  0.00    +0.000 A 
ATOM     27  C   UNL     1      17.052  39.576  58.967  0.00  0.00    +0.000 A 
ATOM     28  C   UNL     1      16.401  40.783  58.765  0.00  0.00    +0.000 A 
ATOM     29  C   UNL     1      16.040  41.182  57.470  0.00  0.00    +0.000 A 
ENDBRANCH   5  24
TORSDOF 2
ENDMDL
MODEL 3
REMARK VINA RESULT:    -6.589      2.065      3.202
REMARK INTER + INTRA:          -7.847
REMARK INTER:                  -7.359
REMARK INTRA:                  -0.488
REMARK UNBOUND:                -0.488
REMARK  Name = 
REMARK  2 active torsions:
REMARK  status: ('A' for Active; 'I' for Inactive)
REMARK    1  A    between atoms: N_5  and  C_6
REMARK    2  A    between atoms: N_15  and  C_16
REMARK                            x       y       z     vdW  Elec       q    Type
REMARK                         _______ _______ _______ _____ _____    ______ ____
ROOT
ATOM      1  O   UNL     1      13.588  40.231  47.823  0.00  0.00    +0.000 OA
ATOM      2  C   UNL     1      14.300  39.741  46.962  0.00  0.00    +0.000 C 
ATOM      3  N   UNL     1      14.833  38.483  47.059  0.00  0.00    +0.000 N 
ATOM      4  C   UNL     1      15.695  38.136  45.991  0.00  0.00    +0.000 C 
ATOM      5  N   UNL     1      15.654  39.273  45.086  0.00  0.00    +0.000 N 
ATOM      6  C   UNL     1      14.772  40.358  45.627  0.00  0.00    +0.000 C 
ATOM      7  C   UNL     1      13.540  40.606  44.748  0.00  0.00    +0.000 C 
ATOM      8  C   UNL     1      13.291  42.096  44.488  0.00  0.00    +0.000 C 
ATOM      9  N   UNL     1      13.336  42.859  45.732  0.00  0.00    +0.000 NA
ATOM     10  C   UNL     1      14.648  42.776  46.401  0.00  0.00    +0.000 C 
ATOM     11  C   UNL     1      15.559  41.625  45.955  0.00  0.00    +0.000 C 
ATOM     12  H   UNL     1      14.669  37.915  47.876  0.00  0.00    +0.000 HD
ENDROOT
BRANCH   9  13
ATOM     13  C   UNL     1      12.847  44.263  45.650  0.00  0.00    +0.000 C 
ATOM     14  C   UNL     1      12.006  44.717  46.862  0.00  0.00    +0.000 C 
ATOM     15  C   UNL     1      11.454  46.129  46.656  0.00  0.00    +0.000 C 
ATOM     16  C   UNL     1      12.481  47.123  46.194  0.00  0.00    +0.000 A 
ATOM     17  C   UNL     1      12.198  48.495  46.283  0.00  0.00    +0.000 A 
ATOM     18  C   UNL     1      13.125  49.437  45.838  0.00  0.00    +0.000 A 
ATOM     19 CL   UNL     1      12.763  51.115  45.956  0.00  0.00    +0.000 Cl
ATOM     20  C   UNL     1      14.338  49.027  45.296  0.00  0.00    +0.000 A 
ATOM     21  C   UNL     1      14.622  47.665  45.193  0.00  0.00    +0.000 A 
ATOM     22  C   UNL     1      13.692  46.704  45.624  0.00  0.00    +0.000 A 
ATOM     23  C   UNL     1      14.048  45.240  45.519  0.00  0.00    +0.000 C 
ENDBRANCH   9  13
BRANCH   5  24
ATOM     24  C   UNL     1      16.381  39.258  43.910  0.00  0.00    +0.000 A 
ATOM     25  C   UNL     1      16.482  40.366  43.057  0.00  0.00    +0.000 A 
ATOM     26  C   UNL     1      17.221  40.343  41.864  0.00  0.00    +0.000 A 
ATOM     27  C   UNL     1      17.890  39.190  41.480  0.00  0.00    +0.000 A 
ATOM     28  C   UNL     1      17.816  38.069  42.291  0.00  0.00    +0.000 A 
ATOM     29  C   UNL     1      17.074  38.108  43.481  0.00  0.00    +0.000 A 
ENDBRANCH   5  24
TORSDOF 2
ENDMDL
