MODEL 1
REMARK VINA RESULT:    -7.149      0.000      0.000
REMARK INTER + INTRA:          -9.689
REMARK INTER:                  -8.432
REMARK INTRA:                  -1.256
REMARK UNBOUND:                -0.868
REMARK  Name = 
REMARK  4 active torsions:
REMARK  status: ('A' for Active; 'I' for Inactive)
REMARK    1  A    between atoms: C_2  and  C_23
REMARK    2  A    between atoms: N_3  and  C_4
REMARK    3  A    between atoms: N_13  and  C_14
REMARK    4  A    between atoms: C_14  and  C_15
REMARK                            x       y       z     vdW  Elec       q    Type
REMARK                         _______ _______ _______ _____ _____    ______ ____
ROOT
ATOM      1  C   UNL     1      15.372  41.892  44.318  0.00  0.00    +0.000 C 
ATOM      2  C   UNL     1      16.506  42.593  43.571  0.00  0.00    +0.000 C 
ATOM      3  C   UNL     1      16.078  43.843  42.818  0.00  0.00    +0.000 C 
ATOM      4  C   UNL     1      14.769  43.662  42.097  0.00  0.00    +0.000 A 
ATOM      5  C   UNL     1      14.758  43.628  40.694  0.00  0.00    +0.000 A 
ATOM      6  C   UNL     1      13.556  43.542  39.994  0.00  0.00    +0.000 A 
ATOM      7  C   UNL     1      12.354  43.493  40.690  0.00  0.00    +0.000 A 
ATOM      8  C   UNL     1      12.351  43.523  42.086  0.00  0.00    +0.000 A 
ATOM      9  C   UNL     1      13.552  43.593  42.806  0.00  0.00    +0.000 A 
ATOM     10  N   UNL     1      13.527  43.600  44.235  0.00  0.00    +0.000 N 
ATOM     11  C   UNL     1      14.439  42.895  45.027  0.00  0.00    +0.000 C 
ATOM     12  O   UNL     1      14.489  43.015  46.258  0.00  0.00    +0.000 OA
ENDROOT
BRANCH   1  15
ATOM     13  O   UNL     1      16.157  39.200  43.944  0.00  0.00    +0.000 OA
ATOM     14  C   UNL     1      16.255  39.690  45.065  0.00  0.00    +0.000 C 
ATOM     15  N   UNL     1      15.912  40.989  45.332  0.00  0.00    +0.000 N 
ATOM     16  H   UNL     1      15.932  41.341  46.282  0.00  0.00    +0.000 HD
BRANCH  14  17
ATOM     17  C   UNL     1      16.735  38.931  46.196  0.00  0.00    +0.000 A 
ATOM     18  C   UNL     1      17.378  37.708  46.301  0.00  0.00    +0.000 A 
ATOM     19  C   UNL     1      17.621  37.443  47.679  0.00  0.00    +0.000 A 
ATOM     20  C   UNL     1      18.227  36.384  48.382  0.00  0.00    +0.000 A 
ATOM     21  C   UNL     1      18.304  36.445  49.778  0.00  0.00    +0.000 A 
ATOM     22  C   UNL     1      17.787  37.538  50.470  0.00  0.00    +0.000 A 
ATOM     23  C   UNL     1      17.179  38.600  49.793  0.00  0.00    +0.000 A 
ATOM     24  C   UNL     1      17.112  38.521  48.398  0.00  0.00    +0.000 A 
ATOM     25  N   UNL     1      16.584  39.399  47.483  0.00  0.00    +0.000 N 
ATOM     26  H   UNL     1      16.146  40.283  47.708  0.00  0.00    +0.000 HD
ENDBRANCH  14  17
ENDBRANCH   1  15
BRANCH  10  27
ATOM     27  C   UNL     1      12.595  44.505  44.914  0.00  0.00    +0.000 C 
BRANCH  27  28
ATOM     28  C   UNL     1      13.024  45.953  44.800  0.00  0.00    +0.000 A 
ATOM     29  C   UNL     1      14.177  46.411  45.454  0.00  0.00    +0.000 A 
ATOM     30  C   UNL     1      14.559  47.752  45.364  0.00  0.00    +0.000 A 
ATOM     31  C   UNL     1      13.790  48.648  44.623  0.00  0.00    +0.000 A 
ATOM     32  C   UNL     1      12.638  48.207  43.975  0.00  0.00    +0.000 A 
ATOM     33  C   UNL     1      12.254  46.867  44.066  0.00  0.00    +0.000 A 
ENDBRANCH  27  28
ENDBRANCH  10  27
TORSDOF 4
ENDMDL
MODEL 2
REMARK VINA RESULT:    -6.805      3.472     11.152
REMARK INTER + INTRA:          -9.264
REMARK INTER:                  -8.022
REMARK INTRA:                  -1.243
REMARK UNBOUND:                -0.868
REMARK  Name = 
REMARK  4 active torsions:
REMARK  status: ('A' for Active; 'I' for Inactive)
REMARK    1  A    between atoms: C_2  and  C_23
REMARK    2  A    between atoms: N_3  and  C_4
REMARK    3  A    between atoms: N_13  and  C_14
REMARK    4  A    between atoms: C_14  and  C_15
REMARK                            x       y       z     vdW  Elec       q    Type
REMARK                         _______ _______ _______ _____ _____    ______ ____
ROOT
ATOM      1  C   UNL     1      16.203  39.896  51.279  0.00  0.00    +0.000 C 
ATOM      2  C   UNL     1      17.329  40.733  51.884  0.00  0.00    +0.000 C 
ATOM      3  C   UNL     1      18.215  39.974  52.861  0.00  0.00    +0.000 C 
ATOM      4  C   UNL     1      17.425  39.085  53.784  0.00  0.00    +0.000 A 
ATOM      5  C   UNL     1      17.349  39.408  55.148  0.00  0.00    +0.000 A 
ATOM      6  C   UNL     1      16.693  38.565  56.043  0.00  0.00    +0.000 A 
ATOM      7  C   UNL     1      16.111  37.389  55.584  0.00  0.00    +0.000 A 
ATOM      8  C   UNL     1      16.177  37.058  54.230  0.00  0.00    +0.000 A 
ATOM      9  C   UNL     1      16.819  37.903  53.312  0.00  0.00    +0.000 A 
ATOM     10  N   UNL     1      16.854  37.555  51.927  0.00  0.00    +0.000 N 
ATOM     11  C   UNL     1      16.677  38.480  50.893  0.00  0.00    +0.000 C 
ATOM     12  O   UNL     1      16.842  38.191  49.701  0.00  0.00    +0.000 OA
ENDROOT
BRANCH   1  15
ATOM     13  O   UNL     1      13.551  39.778  50.302  0.00  0.00    +0.000 OA
ATOM     14  C   UNL     1      14.383  40.417  49.666  0.00  0.00    +0.000 C 
ATOM     15  N   UNL     1      15.684  40.538  50.073  0.00  0.00    +0.000 N 
ATOM     16  H   UNL     1      16.365  41.008  49.486  0.00  0.00    +0.000 HD
BRANCH  14  17
ATOM     17  C   UNL     1      14.055  41.086  48.428  0.00  0.00    +0.000 A 
ATOM     18  C   UNL     1      12.850  41.452  47.850  0.00  0.00    +0.000 A 
ATOM     19  C   UNL     1      13.122  42.094  46.608  0.00  0.00    +0.000 A 
ATOM     20  C   UNL     1      12.320  42.667  45.604  0.00  0.00    +0.000 A 
ATOM     21  C   UNL     1      12.931  43.234  44.479  0.00  0.00    +0.000 A 
ATOM     22  C   UNL     1      14.318  43.231  44.348  0.00  0.00    +0.000 A 
ATOM     23  C   UNL     1      15.134  42.666  45.333  0.00  0.00    +0.000 A 
ATOM     24  C   UNL     1      14.505  42.105  46.449  0.00  0.00    +0.000 A 
ATOM     25  N   UNL     1      15.041  41.492  47.555  0.00  0.00    +0.000 N 
ATOM     26  H   UNL     1      16.029  41.357  47.728  0.00  0.00    +0.000 HD
ENDBRANCH  14  17
ENDBRANCH   1  15
BRANCH  10  27
ATOM     27  C   UNL     1      17.241  36.190  51.558  0.00  0.00    +0.000 C 
BRANCH  27  28
ATOM     28  C   UNL     1      18.722  35.945  51.756  0.00  0.00    +0.000 A 
ATOM     29  C   UNL     1      19.664  36.514  50.886  0.00  0.00    +0.000 A 
ATOM     30  C   UNL     1      21.028  36.270  51.060  0.00  0.00    +0.000 A 
ATOM     31  C   UNL     1      21.464  35.453  52.102  0.00  0.00    +0.000 A 
ATOM     32  C   UNL     1      20.537  34.876  52.969  0.00  0.00    +0.000 A 
ATOM     33  C   UNL     1      19.173  35.118  52.795  0.00  0.00    +0.000 A 
ENDBRANCH  27  28
ENDBRANCH  10  27
TORSDOF 4
ENDMDL
MODEL 3
REMARK VINA RESULT:    -6.671      1.666      4.147
REMARK INTER + INTRA:          -9.099
REMARK INTER:                  -8.232
REMARK INTRA:                  -0.868
REMARK UNBOUND:                -0.868
REMARK  Name = 
REMARK  4 active torsions:
REMARK  status: ('A' for Active; 'I' for Inactive)
REMARK    1  A    between atoms: C_2  and  C_23
REMARK    2  A    between atoms: N_3  and  C_4
REMARK    3  A    between atoms: N_13  and  C_14
REMARK    4  A    between atoms: C_14  and  C_15
REMARK                            x       y       z     vdW  Elec       q    Type
REMARK                         _______ _______ _______ _____ _____    ______ ____
ROOT
ATOM      1  C   UNL     1      14.589  41.962  46.744  0.00  0.00    +0.000 C 
ATOM      2  C   UNL     1      13.127  41.542  46.594  0.00  0.00    +0.000 C 
ATOM      3  C   UNL     1      12.310  42.444  45.681  0.00  0.00    +0.000 C 
ATOM      4  C   UNL     1      12.602  43.904  45.902  0.00  0.00    +0.000 A 
ATOM      5  C   UNL     1      11.617  44.722  46.476  0.00  0.00    +0.000 A 
ATOM      6  C   UNL     1      11.825  46.092  46.621  0.00  0.00    +0.000 A 
ATOM      7  C   UNL     1      13.019  46.659  46.190  0.00  0.00    +0.000 A 
ATOM      8  C   UNL     1      14.009  45.856  45.620  0.00  0.00    +0.000 A 
ATOM      9  C   UNL     1      13.822  44.473  45.481  0.00  0.00    +0.000 A 
ATOM     10  N   UNL     1      14.858  43.667  44.915  0.00  0.00    +0.000 N 
ATOM     11  C   UNL     1      15.206  42.403  45.401  0.00  0.00    +0.000 C 
ATOM     12  O   UNL     1      16.011  41.662  44.823  0.00  0.00    +0.000 OA
ENDROOT
BRANCH   1  15
ATOM     13  O   UNL     1      14.340  40.731  49.279  0.00  0.00    +0.000 OA
ATOM     14  C   UNL     1      15.206  40.323  48.511  0.00  0.00    +0.000 C 
ATOM     15  N   UNL     1      15.386  40.851  47.260  0.00  0.00    +0.000 N 
ATOM     16  H   UNL     1      16.158  40.545  46.680  0.00  0.00    +0.000 HD
BRANCH  14  17
ATOM     17  C   UNL     1      16.110  39.255  48.869  0.00  0.00    +0.000 A 
ATOM     18  C   UNL     1      16.561  38.138  48.185  0.00  0.00    +0.000 A 
ATOM     19  C   UNL     1      17.453  37.420  49.032  0.00  0.00    +0.000 A 
ATOM     20  C   UNL     1      18.204  36.238  48.888  0.00  0.00    +0.000 A 
ATOM     21  C   UNL     1      19.006  35.803  49.950  0.00  0.00    +0.000 A 
ATOM     22  C   UNL     1      19.062  36.526  51.139  0.00  0.00    +0.000 A 
ATOM     23  C   UNL     1      18.323  37.701  51.305  0.00  0.00    +0.000 A 
ATOM     24  C   UNL     1      17.528  38.120  50.233  0.00  0.00    +0.000 A 
ATOM     25  N   UNL     1      16.710  39.217  50.109  0.00  0.00    +0.000 N 
ATOM     26  H   UNL     1      16.565  39.921  50.821  0.00  0.00    +0.000 HD
ENDBRANCH  14  17
ENDBRANCH   1  15
BRANCH  10  27
ATOM     27  C   UNL     1      15.494  44.116  43.673  0.00  0.00    +0.000 C 
BRANCH  27  28
ATOM     28  C   UNL     1      14.650  43.801  42.456  0.00  0.00    +0.000 A 
ATOM     29  C   UNL     1      13.549  44.604  42.122  0.00  0.00    +0.000 A 
ATOM     30  C   UNL     1      12.760  44.298  41.011  0.00  0.00    +0.000 A 
ATOM     31  C   UNL     1      13.061  43.187  40.225  0.00  0.00    +0.000 A 
ATOM     32  C   UNL     1      14.147  42.377  40.551  0.00  0.00    +0.000 A 
ATOM     33  C   UNL     1      14.936  42.680  41.662  0.00  0.00    +0.000 A 
ENDBRANCH  27  28
ENDBRANCH  10  27
TORSDOF 4
ENDMDL
