MODEL 1
REMARK VINA RESULT:    -6.955      0.000      0.000
REMARK INTER + INTRA:         -11.409
REMARK INTER:                 -10.720
REMARK INTRA:                  -0.688
REMARK UNBOUND:                -1.200
REMARK  Name = 
REMARK  10 active torsions:
REMARK  status: ('A' for Active; 'I' for Inactive)
REMARK    1  A    between atoms: C_1  and  N_2
REMARK    2  A    between atoms: C_3  and  C_5
REMARK    3  A    between atoms: C_8  and  N_9
REMARK    4  A    between atoms: C_13  and  N_14
REMARK    5  A    between atoms: N_14  and  C_15
REMARK    6  A    between atoms: C_17  and  C_18
REMARK    7  A    between atoms: C_27  and  C_28
REMARK    8  A    between atoms: C_29  and  C_30
REMARK    9  A    between atoms: C_38  and  O_39
REMARK   10  A    between atoms: C_40  and  O_41
REMARK                            x       y       z     vdW  Elec       q    Type
REMARK                         _______ _______ _______ _____ _____    ______ ____
ROOT
ATOM      1  N   UNL     1      15.145  40.160  50.554  0.00  0.00    +0.000 N 
ATOM      2  C   UNL     1      14.172  40.582  49.689  0.00  0.00    +0.000 A 
ATOM      3  N   UNL     1      14.259  39.984  48.521  0.00  0.00    +0.000 NA
ATOM      4  C   UNL     1      15.346  39.138  48.623  0.00  0.00    +0.000 A 
ATOM      5  C   UNL     1      15.961  38.240  47.727  0.00  0.00    +0.000 A 
ATOM      6  N   UNL     1      17.025  37.520  48.175  0.00  0.00    +0.000 NA
ATOM      7  C   UNL     1      17.441  37.706  49.443  0.00  0.00    +0.000 A 
ATOM      8  N   UNL     1      16.943  38.536  50.376  0.00  0.00    +0.000 NA
ATOM      9  C   UNL     1      15.898  39.226  49.893  0.00  0.00    +0.000 A 
ENDROOT
BRANCH   1  13
ATOM     10  C   UNL     1      14.736  42.452  53.387  0.00  0.00    +0.000 C 
ATOM     11  C   UNL     1      13.832  41.352  53.929  0.00  0.00    +0.000 C 
ATOM     12  C   UNL     1      14.182  41.388  52.470  0.00  0.00    +0.000 C 
ATOM     13  C   UNL     1      15.343  40.573  51.933  0.00  0.00    +0.000 C 
ATOM     14  C   UNL     1      16.581  41.480  52.154  0.00  0.00    +0.000 C 
ATOM     15  C   UNL     1      16.241  42.278  53.436  0.00  0.00    +0.000 C 
BRANCH  10  18
ATOM     16  C   UNL     1      14.818  46.233  53.346  0.00  0.00    +0.000 C 
ATOM     17  N   UNL     1      15.160  44.832  53.292  0.00  0.00    +0.000 N 
ATOM     18  C   UNL     1      14.219  43.846  53.436  0.00  0.00    +0.000 C 
ATOM     19  O   UNL     1      13.033  44.030  53.658  0.00  0.00    +0.000 OA
ATOM     20  H   UNL     1      16.121  44.593  53.095  0.00  0.00    +0.000 HD
ENDBRANCH  10  18
BRANCH  14  21
ATOM     21  O   UNL     1      17.775  40.722  52.333  0.00  0.00    +0.000 OA
ATOM     22  H   UNL     1      18.457  41.182  51.803  0.00  0.00    +0.000 HD
ENDBRANCH  14  21
BRANCH  15  23
ATOM     23  O   UNL     1      16.623  41.506  54.580  0.00  0.00    +0.000 OA
ATOM     24  H   UNL     1      15.869  41.553  55.202  0.00  0.00    +0.000 HD
ENDBRANCH  15  23
ENDBRANCH   1  13
BRANCH   5  25
ATOM     25  N   UNL     1      15.579  37.999  46.397  0.00  0.00    +0.000 N 
ATOM     26  H   UNL     1      16.139  37.225  46.051  0.00  0.00    +0.000 HD
BRANCH  25  27
ATOM     27  C   UNL     1      15.251  39.097  45.487  0.00  0.00    +0.000 C 
ATOM     28  C   UNL     1      16.011  39.215  44.199  0.00  0.00    +0.000 C 
ATOM     29  C   UNL     1      16.178  40.273  45.265  0.00  0.00    +0.000 C 
BRANCH  29  30
ATOM     30  C   UNL     1      15.677  41.665  44.952  0.00  0.00    +0.000 A 
ATOM     31  C   UNL     1      16.048  42.294  43.744  0.00  0.00    +0.000 A 
ATOM     32  C   UNL     1      15.607  43.582  43.422  0.00  0.00    +0.000 A 
ATOM     33  C   UNL     1      14.786  44.264  44.309  0.00  0.00    +0.000 A 
ATOM     34  F   UNL     1      14.362  45.496  43.997  0.00  0.00    +0.000 F 
ATOM     35  C   UNL     1      14.405  43.669  45.505  0.00  0.00    +0.000 A 
ATOM     36  F   UNL     1      13.604  44.320  46.359  0.00  0.00    +0.000 F 
ATOM     37  C   UNL     1      14.846  42.387  45.825  0.00  0.00    +0.000 A 
ENDBRANCH  29  30
ENDBRANCH  25  27
ENDBRANCH   5  25
BRANCH   7  38
ATOM     38  C   UNL     1      18.550  36.912  49.848  0.00  0.00    +0.000 C 
ATOM     39  C   UNL     1      19.482  36.242  50.202  0.00  0.00    +0.000 C 
BRANCH  39  40
ATOM     40  C   UNL     1      20.583  35.446  50.631  0.00  0.00    +0.000 A 
ATOM     41  C   UNL     1      21.636  35.154  49.777  0.00  0.00    +0.000 A 
ATOM     42  C   UNL     1      22.677  34.370  50.265  0.00  0.00    +0.000 A 
ATOM     43  C   UNL     1      22.625  33.911  51.577  0.00  0.00    +0.000 A 
ATOM     44  C   UNL     1      21.529  34.254  52.352  0.00  0.00    +0.000 A 
ATOM     45  N   UNL     1      20.505  35.013  51.908  0.00  0.00    +0.000 NA
ENDBRANCH  39  40
ENDBRANCH   7  38
TORSDOF 9
ENDMDL
MODEL 2
REMARK VINA RESULT:    -6.879      4.796      8.752
REMARK INTER + INTRA:         -11.296
REMARK INTER:                 -10.126
REMARK INTRA:                  -1.170
REMARK UNBOUND:                -1.200
REMARK  Name = 
REMARK  10 active torsions:
REMARK  status: ('A' for Active; 'I' for Inactive)
REMARK    1  A    between atoms: C_1  and  N_2
REMARK    2  A    between atoms: C_3  and  C_5
REMARK    3  A    between atoms: C_8  and  N_9
REMARK    4  A    between atoms: C_13  and  N_14
REMARK    5  A    between atoms: N_14  and  C_15
REMARK    6  A    between atoms: C_17  and  C_18
REMARK    7  A    between atoms: C_27  and  C_28
REMARK    8  A    between atoms: C_29  and  C_30
REMARK    9  A    between atoms: C_38  and  O_39
REMARK   10  A    between atoms: C_40  and  O_41
REMARK                            x       y       z     vdW  Elec       q    Type
REMARK                         _______ _______ _______ _____ _____    ______ ____
ROOT
ATOM      1  N   UNL     1      14.788  42.318  45.295  0.00  0.00    +0.000 N 
ATOM      2  C   UNL     1      14.513  42.150  46.625  0.00  0.00    +0.000 A 
ATOM      3  N   UNL     1      15.020  41.031  47.095  0.00  0.00    +0.000 NA
ATOM      4  C   UNL     1      15.648  40.434  46.020  0.00  0.00    +0.000 A 
ATOM      5  C   UNL     1      16.364  39.229  45.863  0.00  0.00    +0.000 A 
ATOM      6  N   UNL     1      16.892  38.955  44.640  0.00  0.00    +0.000 NA
ATOM      7  C   UNL     1      16.698  39.840  43.642  0.00  0.00    +0.000 A 
ATOM      8  N   UNL     1      16.029  41.005  43.671  0.00  0.00    +0.000 NA
ATOM      9  C   UNL     1      15.525  41.236  44.894  0.00  0.00    +0.000 A 
ENDROOT
BRANCH   1  13
ATOM     10  C   UNL     1      12.952  45.404  44.550  0.00  0.00    +0.000 C 
ATOM     11  C   UNL     1      14.325  46.052  44.679  0.00  0.00    +0.000 C 
ATOM     12  C   UNL     1      14.082  44.685  45.250  0.00  0.00    +0.000 C 
ATOM     13  C   UNL     1      14.420  43.442  44.451  0.00  0.00    +0.000 C 
ATOM     14  C   UNL     1      13.163  43.196  43.577  0.00  0.00    +0.000 C 
ATOM     15  C   UNL     1      12.610  44.614  43.302  0.00  0.00    +0.000 C 
BRANCH  10  18
ATOM     16  C   UNL     1      10.666  46.300  47.426  0.00  0.00    +0.000 C 
ATOM     17  N   UNL     1      11.725  45.769  46.603  0.00  0.00    +0.000 N 
ATOM     18  C   UNL     1      11.821  46.053  45.266  0.00  0.00    +0.000 C 
ATOM     19  O   UNL     1      11.029  46.729  44.630  0.00  0.00    +0.000 OA
ATOM     20  H   UNL     1      12.434  45.210  47.056  0.00  0.00    +0.000 HD
ENDBRANCH  10  18
BRANCH  14  21
ATOM     21  O   UNL     1      13.483  42.533  42.356  0.00  0.00    +0.000 OA
ATOM     22  H   UNL     1      12.704  42.662  41.777  0.00  0.00    +0.000 HD
ENDBRANCH  14  21
BRANCH  15  23
ATOM     23  O   UNL     1      13.277  45.162  42.159  0.00  0.00    +0.000 OA
ATOM     24  H   UNL     1      13.523  46.077  42.402  0.00  0.00    +0.000 HD
ENDBRANCH  15  23
ENDBRANCH   1  13
BRANCH   5  25
ATOM     25  N   UNL     1      16.600  38.267  46.859  0.00  0.00    +0.000 N 
ATOM     26  H   UNL     1      15.870  37.565  46.788  0.00  0.00    +0.000 HD
BRANCH  25  27
ATOM     27  C   UNL     1      17.092  38.646  48.184  0.00  0.00    +0.000 C 
ATOM     28  C   UNL     1      17.301  37.570  49.209  0.00  0.00    +0.000 C 
ATOM     29  C   UNL     1      16.217  38.602  49.418  0.00  0.00    +0.000 C 
BRANCH  29  30
ATOM     30  C   UNL     1      16.381  39.561  50.575  0.00  0.00    +0.000 A 
ATOM     31  C   UNL     1      15.396  40.540  50.827  0.00  0.00    +0.000 A 
ATOM     32  C   UNL     1      15.516  41.447  51.886  0.00  0.00    +0.000 A 
ATOM     33  C   UNL     1      16.630  41.389  52.711  0.00  0.00    +0.000 A 
ATOM     34  F   UNL     1      16.741  42.255  53.726  0.00  0.00    +0.000 F 
ATOM     35  C   UNL     1      17.615  40.436  52.487  0.00  0.00    +0.000 A 
ATOM     36  F   UNL     1      18.687  40.369  53.288  0.00  0.00    +0.000 F 
ATOM     37  C   UNL     1      17.495  39.534  51.432  0.00  0.00    +0.000 A 
ENDBRANCH  29  30
ENDBRANCH  25  27
ENDBRANCH   5  25
BRANCH   7  38
ATOM     38  C   UNL     1      17.288  39.495  42.393  0.00  0.00    +0.000 C 
ATOM     39  C   UNL     1      17.777  39.211  41.333  0.00  0.00    +0.000 C 
BRANCH  39  40
ATOM     40  C   UNL     1      18.349  38.881  40.072  0.00  0.00    +0.000 A 
ATOM     41  C   UNL     1      19.635  39.279  39.738  0.00  0.00    +0.000 A 
ATOM     42  C   UNL     1      20.128  38.921  38.486  0.00  0.00    +0.000 A 
ATOM     43  C   UNL     1      19.323  38.184  37.624  0.00  0.00    +0.000 A 
ATOM     44  C   UNL     1      18.051  37.835  38.048  0.00  0.00    +0.000 A 
ATOM     45  N   UNL     1      17.545  38.167  39.255  0.00  0.00    +0.000 NA
ENDBRANCH  39  40
ENDBRANCH   7  38
TORSDOF 9
ENDMDL
MODEL 3
REMARK VINA RESULT:    -6.573      5.262      8.581
REMARK INTER + INTRA:         -10.847
REMARK INTER:                  -9.646
REMARK INTRA:                  -1.200
REMARK UNBOUND:                -1.200
REMARK  Name = 
REMARK  10 active torsions:
REMARK  status: ('A' for Active; 'I' for Inactive)
REMARK    1  A    between atoms: C_1  and  N_2
REMARK    2  A    between atoms: C_3  and  C_5
REMARK    3  A    between atoms: C_8  and  N_9
REMARK    4  A    between atoms: C_13  and  N_14
REMARK    5  A    between atoms: N_14  and  C_15
REMARK    6  A    between atoms: C_17  and  C_18
REMARK    7  A    between atoms: C_27  and  C_28
REMARK    8  A    between atoms: C_29  and  C_30
REMARK    9  A    between atoms: C_38  and  O_39
REMARK   10  A    between atoms: C_40  and  O_41
REMARK                            x       y       z     vdW  Elec       q    Type
REMARK                         _______ _______ _______ _____ _____    ______ ____
ROOT
ATOM      1  N   UNL     1      15.405  40.715  45.730  0.00  0.00    +0.000 N 
ATOM      2  C   UNL     1      14.519  41.214  46.646  0.00  0.00    +0.000 A 
ATOM      3  N   UNL     1      14.593  40.581  47.797  0.00  0.00    +0.000 NA
ATOM      4  C   UNL     1      15.566  39.617  47.623  0.00  0.00    +0.000 A 
ATOM      5  C   UNL     1      16.104  38.621  48.464  0.00  0.00    +0.000 A 
ATOM      6  N   UNL     1      17.102  37.839  47.971  0.00  0.00    +0.000 NA
ATOM      7  C   UNL     1      17.519  38.049  46.706  0.00  0.00    +0.000 A 
ATOM      8  N   UNL     1      17.076  38.953  45.815  0.00  0.00    +0.000 NA
ATOM      9  C   UNL     1      16.093  39.701  46.342  0.00  0.00    +0.000 A 
ENDROOT
BRANCH   1  13
ATOM     10  C   UNL     1      15.115  43.147  43.002  0.00  0.00    +0.000 C 
ATOM     11  C   UNL     1      16.612  43.322  43.224  0.00  0.00    +0.000 C 
ATOM     12  C   UNL     1      15.763  42.688  44.286  0.00  0.00    +0.000 C 
ATOM     13  C   UNL     1      15.629  41.180  44.372  0.00  0.00    +0.000 C 
ATOM     14  C   UNL     1      14.481  40.841  43.386  0.00  0.00    +0.000 C 
ATOM     15  C   UNL     1      14.603  41.916  42.280  0.00  0.00    +0.000 C 
BRANCH  10  18
ATOM     16  C   UNL     1      13.221  46.220  44.129  0.00  0.00    +0.000 C 
ATOM     17  N   UNL     1      14.028  45.026  44.070  0.00  0.00    +0.000 N 
ATOM     18  C   UNL     1      14.292  44.382  42.890  0.00  0.00    +0.000 C 
ATOM     19  O   UNL     1      13.859  44.707  41.797  0.00  0.00    +0.000 OA
ATOM     20  H   UNL     1      14.440  44.698  44.932  0.00  0.00    +0.000 HD
ENDBRANCH  10  18
BRANCH  14  21
ATOM     21  O   UNL     1      14.616  39.533  42.837  0.00  0.00    +0.000 OA
ATOM     22  H   UNL     1      13.705  39.181  42.774  0.00  0.00    +0.000 HD
ENDBRANCH  14  21
BRANCH  15  23
ATOM     23  O   UNL     1      15.551  41.473  41.302  0.00  0.00    +0.000 OA
ATOM     24  H   UNL     1      15.080  40.820  40.745  0.00  0.00    +0.000 HD
ENDBRANCH  15  23
ENDBRANCH   1  13
BRANCH   5  25
ATOM     25  N   UNL     1      15.716  38.351  49.787  0.00  0.00    +0.000 N 
ATOM     26  H   UNL     1      15.438  39.232  50.211  0.00  0.00    +0.000 HD
BRANCH  25  27
ATOM     27  C   UNL     1      16.423  37.365  50.603  0.00  0.00    +0.000 C 
ATOM     28  C   UNL     1      16.178  37.345  52.083  0.00  0.00    +0.000 C 
ATOM     29  C   UNL     1      17.536  37.745  51.556  0.00  0.00    +0.000 C 
BRANCH  29  30
ATOM     30  C   UNL     1      18.702  36.831  51.864  0.00  0.00    +0.000 A 
ATOM     31  C   UNL     1      18.619  35.918  52.937  0.00  0.00    +0.000 A 
ATOM     32  C   UNL     1      19.677  35.061  53.254  0.00  0.00    +0.000 A 
ATOM     33  C   UNL     1      20.841  35.105  52.500  0.00  0.00    +0.000 A 
ATOM     34  F   UNL     1      21.852  34.280  52.803  0.00  0.00    +0.000 F 
ATOM     35  C   UNL     1      20.950  35.993  51.437  0.00  0.00    +0.000 A 
ATOM     36  F   UNL     1      22.068  36.032  50.700  0.00  0.00    +0.000 F 
ATOM     37  C   UNL     1      19.896  36.848  51.123  0.00  0.00    +0.000 A 
ENDBRANCH  29  30
ENDBRANCH  25  27
ENDBRANCH   5  25
BRANCH   7  38
ATOM     38  C   UNL     1      18.573  37.204  46.259  0.00  0.00    +0.000 C 
ATOM     39  C   UNL     1      19.463  36.497  45.871  0.00  0.00    +0.000 C 
BRANCH  39  40
ATOM     40  C   UNL     1      20.519  35.664  45.402  0.00  0.00    +0.000 A 
ATOM     41  C   UNL     1      20.656  34.357  45.846  0.00  0.00    +0.000 A 
ATOM     42  C   UNL     1      21.714  33.603  45.345  0.00  0.00    +0.000 A 
ATOM     43  C   UNL     1      22.585  34.179  44.427  0.00  0.00    +0.000 A 
ATOM     44  C   UNL     1      22.365  35.493  44.045  0.00  0.00    +0.000 A 
ATOM     45  N   UNL     1      21.350  36.249  44.513  0.00  0.00    +0.000 NA
ENDBRANCH  39  40
ENDBRANCH   7  38
TORSDOF 9
ENDMDL
