MODEL 1
REMARK VINA RESULT:    -6.874      0.000      0.000
REMARK INTER + INTRA:          -8.574
REMARK INTER:                  -7.661
REMARK INTRA:                  -0.913
REMARK UNBOUND:                -0.494
REMARK  Name = 
REMARK  7 active torsions:
REMARK  status: ('A' for Active; 'I' for Inactive)
REMARK    1  A    between atoms: C_1  and  C_2
REMARK    2  A    between atoms: C_2  and  C_3
REMARK    3  A    between atoms: C_5  and  N_6
REMARK    4  A    between atoms: N_12  and  C_13
REMARK    5  A    between atoms: C_16  and  C_17
REMARK    6  A    between atoms: C_28  and  C_29
REMARK    7  A    between atoms: C_28  and  C_30
REMARK                            x       y       z     vdW  Elec       q    Type
REMARK                         _______ _______ _______ _____ _____    ______ ____
ROOT
ATOM      1  N   UNL     1      14.653  39.295  45.058  0.00  0.00    +0.000 N 
ATOM      2  C   UNL     1      15.021  38.624  46.211  0.00  0.00    +0.000 A 
ATOM      3  N   UNL     1      14.596  37.359  46.295  0.00  0.00    +0.000 NA
ATOM      4  C   UNL     1      14.950  36.679  47.396  0.00  0.00    +0.000 A 
ATOM      5  C   UNL     1      15.701  37.218  48.409  0.00  0.00    +0.000 A 
ATOM      6  C   UNL     1      16.081  38.531  48.251  0.00  0.00    +0.000 A 
ATOM      7  N   UNL     1      16.870  39.206  49.187  0.00  0.00    +0.000 N 
ATOM      8  N   UNL     1      15.766  39.228  47.146  0.00  0.00    +0.000 NA
ATOM      9  H   UNL     1      14.333  38.590  44.403  0.00  0.00    +0.000 HD
ATOM     10  H   UNL     1      17.067  40.134  48.822  0.00  0.00    +0.000 HD
ENDROOT
BRANCH   1  15
ATOM     11  C   UNL     1      14.641  43.052  41.951  0.00  0.00    +0.000 C 
ATOM     12  C   UNL     1      15.591  42.120  42.730  0.00  0.00    +0.000 C 
ATOM     13  C   UNL     1      16.667  42.998  43.395  0.00  0.00    +0.000 C 
ATOM     14  C   UNL     1      14.772  41.357  43.783  0.00  0.00    +0.000 C 
ATOM     15  C   UNL     1      15.584  40.291  44.531  0.00  0.00    +0.000 C 
ATOM     16  C   UNL     1      16.672  39.652  43.655  0.00  0.00    +0.000 C 
ATOM     17  C   UNL     1      16.464  39.834  42.141  0.00  0.00    +0.000 C 
ATOM     18  C   UNL     1      15.310  38.958  41.616  0.00  0.00    +0.000 C 
ATOM     19  C   UNL     1      17.749  39.382  41.417  0.00  0.00    +0.000 C 
ATOM     20  N   UNL     1      16.261  41.238  41.764  0.00  0.00    +0.000 NA
ATOM     21  H   UNL     1      15.834  41.300  40.840  0.00  0.00    +0.000 HD
ENDBRANCH   1  15
BRANCH   7  22
ATOM     22  C   UNL     1      16.919  39.154  50.590  0.00  0.00    +0.000 A 
ATOM     23  C   UNL     1      16.118  39.932  51.428  0.00  0.00    +0.000 A 
ATOM     24  C   UNL     1      16.195  39.809  52.822  0.00  0.00    +0.000 A 
ATOM     25  C   UNL     1      17.077  38.900  53.422  0.00  0.00    +0.000 A 
ATOM     26  C   UNL     1      17.881  38.120  52.581  0.00  0.00    +0.000 A 
ATOM     27  C   UNL     1      17.802  38.245  51.189  0.00  0.00    +0.000 A 
BRANCH  25  28
ATOM     28  C   UNL     1      17.157  38.770  54.885  0.00  0.00    +0.000 A 
ATOM     29  C   UNL     1      17.432  37.530  55.487  0.00  0.00    +0.000 A 
ATOM     30  C   UNL     1      17.513  37.402  56.877  0.00  0.00    +0.000 A 
ATOM     31  C   UNL     1      17.316  38.517  57.689  0.00  0.00    +0.000 A 
ATOM     32  C   UNL     1      17.041  39.752  57.108  0.00  0.00    +0.000 A 
ATOM     33 CL   UNL     1      16.795  41.129  58.110  0.00  0.00    +0.000 Cl
ATOM     34  C   UNL     1      16.962  39.882  55.720  0.00  0.00    +0.000 A 
ENDBRANCH  25  28
ENDBRANCH   7  22
TORSDOF 3
ENDMDL
MODEL 2
REMARK VINA RESULT:    -6.846      2.282      2.947
REMARK INTER + INTRA:          -8.541
REMARK INTER:                  -7.695
REMARK INTRA:                  -0.846
REMARK UNBOUND:                -0.494
REMARK  Name = 
REMARK  7 active torsions:
REMARK  status: ('A' for Active; 'I' for Inactive)
REMARK    1  A    between atoms: C_1  and  C_2
REMARK    2  A    between atoms: C_2  and  C_3
REMARK    3  A    between atoms: C_5  and  N_6
REMARK    4  A    between atoms: N_12  and  C_13
REMARK    5  A    between atoms: C_16  and  C_17
REMARK    6  A    between atoms: C_28  and  C_29
REMARK    7  A    between atoms: C_28  and  C_30
REMARK                            x       y       z     vdW  Elec       q    Type
REMARK                         _______ _______ _______ _____ _____    ______ ____
ROOT
ATOM      1  N   UNL     1      13.183  41.204  46.905  0.00  0.00    +0.000 N 
ATOM      2  C   UNL     1      13.898  40.449  47.820  0.00  0.00    +0.000 A 
ATOM      3  N   UNL     1      13.877  39.129  47.608  0.00  0.00    +0.000 NA
ATOM      4  C   UNL     1      14.574  38.372  48.470  0.00  0.00    +0.000 A 
ATOM      5  C   UNL     1      15.277  38.886  49.530  0.00  0.00    +0.000 A 
ATOM      6  C   UNL     1      15.230  40.253  49.684  0.00  0.00    +0.000 A 
ATOM      7  N   UNL     1      15.919  40.921  50.701  0.00  0.00    +0.000 N 
ATOM      8  N   UNL     1      14.565  41.038  48.820  0.00  0.00    +0.000 NA
ATOM      9  H   UNL     1      12.988  40.595  46.118  0.00  0.00    +0.000 HD
ATOM     10  H   UNL     1      15.780  41.920  50.571  0.00  0.00    +0.000 HD
ENDROOT
BRANCH   1  15
ATOM     11  C   UNL     1      11.972  45.033  44.143  0.00  0.00    +0.000 C 
ATOM     12  C   UNL     1      13.141  44.439  44.954  0.00  0.00    +0.000 C 
ATOM     13  C   UNL     1      13.731  45.569  45.819  0.00  0.00    +0.000 C 
ATOM     14  C   UNL     1      12.597  43.299  45.830  0.00  0.00    +0.000 C 
ATOM     15  C   UNL     1      13.694  42.535  46.583  0.00  0.00    +0.000 C 
ATOM     16  C   UNL     1      15.014  42.468  45.801  0.00  0.00    +0.000 C 
ATOM     17  C   UNL     1      14.880  42.745  44.293  0.00  0.00    +0.000 C 
ATOM     18  C   UNL     1      14.206  41.571  43.557  0.00  0.00    +0.000 C 
ATOM     19  C   UNL     1      16.295  42.905  43.702  0.00  0.00    +0.000 C 
ATOM     20  N   UNL     1      14.179  44.004  44.011  0.00  0.00    +0.000 NA
ATOM     21  H   UNL     1      13.842  44.014  43.049  0.00  0.00    +0.000 HD
ENDBRANCH   1  15
BRANCH   7  22
ATOM     22  C   UNL     1      16.189  40.580  52.037  0.00  0.00    +0.000 A 
ATOM     23  C   UNL     1      17.449  40.198  52.505  0.00  0.00    +0.000 A 
ATOM     24  C   UNL     1      17.657  39.900  53.859  0.00  0.00    +0.000 A 
ATOM     25  C   UNL     1      16.610  39.978  54.788  0.00  0.00    +0.000 A 
ATOM     26  C   UNL     1      15.347  40.360  54.317  0.00  0.00    +0.000 A 
ATOM     27  C   UNL     1      15.143  40.657  52.965  0.00  0.00    +0.000 A 
BRANCH  25  28
ATOM     28  C   UNL     1      16.830  39.666  56.209  0.00  0.00    +0.000 A 
ATOM     29  C   UNL     1      17.354  38.424  56.604  0.00  0.00    +0.000 A 
ATOM     30  C   UNL     1      17.568  38.124  57.953  0.00  0.00    +0.000 A 
ATOM     31  C   UNL     1      17.257  39.066  58.931  0.00  0.00    +0.000 A 
ATOM     32  C   UNL     1      16.735  40.302  58.556  0.00  0.00    +0.000 A 
ATOM     33 CL   UNL     1      16.347  41.465  59.763  0.00  0.00    +0.000 Cl
ATOM     34  C   UNL     1      16.522  40.604  57.210  0.00  0.00    +0.000 A 
ENDBRANCH  25  28
ENDBRANCH   7  22
TORSDOF 3
ENDMDL
MODEL 3
REMARK VINA RESULT:    -6.660      4.505     11.527
REMARK INTER + INTRA:          -8.322
REMARK INTER:                  -7.828
REMARK INTRA:                  -0.494
REMARK UNBOUND:                -0.494
REMARK  Name = 
REMARK  7 active torsions:
REMARK  status: ('A' for Active; 'I' for Inactive)
REMARK    1  A    between atoms: C_1  and  C_2
REMARK    2  A    between atoms: C_2  and  C_3
REMARK    3  A    between atoms: C_5  and  N_6
REMARK    4  A    between atoms: N_12  and  C_13
REMARK    5  A    between atoms: C_16  and  C_17
REMARK    6  A    between atoms: C_28  and  C_29
REMARK    7  A    between atoms: C_28  and  C_30
REMARK                            x       y       z     vdW  Elec       q    Type
REMARK                         _______ _______ _______ _____ _____    ______ ____
ROOT
ATOM      1  N   UNL     1      14.496  39.558  50.888  0.00  0.00    +0.000 N 
ATOM      2  C   UNL     1      13.952  40.187  49.781  0.00  0.00    +0.000 A 
ATOM      3  N   UNL     1      12.618  40.275  49.775  0.00  0.00    +0.000 NA
ATOM      4  C   UNL     1      12.062  40.894  48.721  0.00  0.00    +0.000 A 
ATOM      5  C   UNL     1      12.789  41.416  47.682  0.00  0.00    +0.000 A 
ATOM      6  C   UNL     1      14.155  41.266  47.760  0.00  0.00    +0.000 A 
ATOM      7  N   UNL     1      15.026  41.770  46.789  0.00  0.00    +0.000 N 
ATOM      8  N   UNL     1      14.740  40.677  48.816  0.00  0.00    +0.000 NA
ATOM      9  H   UNL     1      13.760  39.508  51.583  0.00  0.00    +0.000 HD
ATOM     10  H   UNL     1      15.978  41.590  47.096  0.00  0.00    +0.000 HD
ENDROOT
BRANCH   1  15
ATOM     11  C   UNL     1      17.280  39.273  54.880  0.00  0.00    +0.000 C 
ATOM     12  C   UNL     1      17.137  40.037  53.548  0.00  0.00    +0.000 C 
ATOM     13  C   UNL     1      18.527  40.091  52.888  0.00  0.00    +0.000 C 
ATOM     14  C   UNL     1      16.132  39.286  52.659  0.00  0.00    +0.000 C 
ATOM     15  C   UNL     1      15.799  40.026  51.358  0.00  0.00    +0.000 C 
ATOM     16  C   UNL     1      15.835  41.554  51.518  0.00  0.00    +0.000 C 
ATOM     17  C   UNL     1      15.736  42.047  52.972  0.00  0.00    +0.000 C 
ATOM     18  C   UNL     1      14.314  41.868  53.538  0.00  0.00    +0.000 C 
ATOM     19  C   UNL     1      16.051  43.557  52.993  0.00  0.00    +0.000 C 
ATOM     20  N   UNL     1      16.728  41.415  53.851  0.00  0.00    +0.000 NA
ATOM     21  H   UNL     1      16.454  41.520  54.827  0.00  0.00    +0.000 HD
ENDBRANCH   1  15
BRANCH   7  22
ATOM     22  C   UNL     1      14.919  41.879  45.392  0.00  0.00    +0.000 A 
ATOM     23  C   UNL     1      15.532  41.005  44.493  0.00  0.00    +0.000 A 
ATOM     24  C   UNL     1      15.359  41.151  43.109  0.00  0.00    +0.000 A 
ATOM     25  C   UNL     1      14.563  42.177  42.583  0.00  0.00    +0.000 A 
ATOM     26  C   UNL     1      13.948  43.054  43.486  0.00  0.00    +0.000 A 
ATOM     27  C   UNL     1      14.123  42.905  44.867  0.00  0.00    +0.000 A 
BRANCH  25  28
ATOM     28  C   UNL     1      14.380  42.330  41.131  0.00  0.00    +0.000 A 
ATOM     29  C   UNL     1      14.562  43.575  40.506  0.00  0.00    +0.000 A 
ATOM     30  C   UNL     1      14.393  43.724  39.126  0.00  0.00    +0.000 A 
ATOM     31  C   UNL     1      14.036  42.626  38.348  0.00  0.00    +0.000 A 
ATOM     32  C   UNL     1      13.851  41.385  38.952  0.00  0.00    +0.000 A 
ATOM     33 CL   UNL     1      13.407  40.027  37.992  0.00  0.00    +0.000 Cl
ATOM     34  C   UNL     1      14.021  41.233  40.330  0.00  0.00    +0.000 A 
ENDBRANCH  25  28
ENDBRANCH   7  22
TORSDOF 3
ENDMDL
