MODEL 1
REMARK VINA RESULT:    -7.260      0.000      0.000
REMARK INTER + INTRA:          -8.459
REMARK INTER:                  -7.485
REMARK INTRA:                  -0.974
REMARK UNBOUND:                -0.775
REMARK  Name = 
REMARK  1 active torsions:
REMARK  status: ('A' for Active; 'I' for Inactive)
REMARK    1  A    between atoms: C_7  and  C_8
REMARK                            x       y       z     vdW  Elec       q    Type
REMARK                         _______ _______ _______ _____ _____    ______ ____
ROOT
ATOM      1  O   UNL     1      15.567  41.660  46.118  0.00  0.00    +0.000 OA
ATOM      2  C   UNL     1      14.427  41.858  46.497  0.00  0.00    +0.000 C 
ATOM      3  O   UNL     1      13.647  40.966  47.176  0.00  0.00    +0.000 OA
ATOM      4  C   UNL     1      12.395  41.583  47.500  0.00  0.00    +0.000 C 
ATOM      5  C   UNL     1      12.519  42.944  46.940  0.00  0.00    +0.000 C 
ATOM      6  C   UNL     1      13.686  43.095  46.331  0.00  0.00    +0.000 C 
ATOM      7  C   UNL     1      14.130  44.359  45.697  0.00  0.00    +0.000 C 
ATOM      8  C   UNL     1      13.223  45.554  46.103  0.00  0.00    +0.000 A 
ATOM      9  C   UNL     1      11.974  45.300  46.737  0.00  0.00    +0.000 A 
ATOM     10  C   UNL     1      11.077  46.370  46.986  0.00  0.00    +0.000 A 
ATOM     11  C   UNL     1       9.773  46.180  47.508  0.00  0.00    +0.000 A 
ATOM     12  C   UNL     1       8.928  47.253  47.757  0.00  0.00    +0.000 A 
ATOM     13  C   UNL     1       9.403  48.508  47.476  0.00  0.00    +0.000 A 
ATOM     14  N   UNL     1      10.629  48.735  46.969  0.00  0.00    +0.000 NA
ATOM     15  C   UNL     1      11.470  47.700  46.707  0.00  0.00    +0.000 A 
ATOM     16  C   UNL     1      12.733  47.963  46.155  0.00  0.00    +0.000 A 
ATOM     17  N   UNL     1      13.093  49.249  45.913  0.00  0.00    +0.000 NA
ATOM     18  C   UNL     1      14.291  49.533  45.369  0.00  0.00    +0.000 A 
ATOM     19  C   UNL     1      15.208  48.570  45.034  0.00  0.00    +0.000 A 
ATOM     20  C   UNL     1      14.863  47.247  45.276  0.00  0.00    +0.000 A 
ATOM     21  C   UNL     1      13.613  46.897  45.842  0.00  0.00    +0.000 A 
ATOM     22  N   UNL     1      11.604  43.956  47.047  0.00  0.00    +0.000 N 
ATOM     23  H   UNL     1      10.906  43.843  47.775  0.00  0.00    +0.000 HD
ENDROOT
BRANCH   7  24
ATOM     24  C   UNL     1      14.232  44.176  44.180  0.00  0.00    +0.000 A 
ATOM     25  C   UNL     1      15.487  43.922  43.591  0.00  0.00    +0.000 A 
ATOM     26  C   UNL     1      15.604  43.728  42.211  0.00  0.00    +0.000 A 
ATOM     27  C   UNL     1      14.469  43.774  41.412  0.00  0.00    +0.000 A 
ATOM     28  F   UNL     1      14.586  43.586  40.091  0.00  0.00    +0.000 F 
ATOM     29  C   UNL     1      13.223  44.006  41.978  0.00  0.00    +0.000 A 
ATOM     30  F   UNL     1      12.127  44.037  41.208  0.00  0.00    +0.000 F 
ATOM     31  C   UNL     1      13.095  44.200  43.352  0.00  0.00    +0.000 A 
ENDBRANCH   7  24
TORSDOF 1
ENDMDL
MODEL 2
REMARK VINA RESULT:    -6.984      8.274     11.064
REMARK INTER + INTRA:          -8.167
REMARK INTER:                  -7.149
REMARK INTRA:                  -1.019
REMARK UNBOUND:                -0.775
REMARK  Name = 
REMARK  1 active torsions:
REMARK  status: ('A' for Active; 'I' for Inactive)
REMARK    1  A    between atoms: C_7  and  C_8
REMARK                            x       y       z     vdW  Elec       q    Type
REMARK                         _______ _______ _______ _____ _____    ______ ____
ROOT
ATOM      1  O   UNL     1      14.086  41.470  57.111  0.00  0.00    +0.000 OA
ATOM      2  C   UNL     1      15.099  40.881  56.781  0.00  0.00    +0.000 C 
ATOM      3  O   UNL     1      16.054  40.400  57.631  0.00  0.00    +0.000 OA
ATOM      4  C   UNL     1      17.060  39.716  56.874  0.00  0.00    +0.000 C 
ATOM      5  C   UNL     1      16.595  39.841  55.478  0.00  0.00    +0.000 C 
ATOM      6  C   UNL     1      15.473  40.543  55.420  0.00  0.00    +0.000 C 
ATOM      7  C   UNL     1      14.733  40.816  54.165  0.00  0.00    +0.000 C 
ATOM      8  C   UNL     1      15.242  39.930  52.994  0.00  0.00    +0.000 A 
ATOM      9  C   UNL     1      16.469  39.223  53.135  0.00  0.00    +0.000 A 
ATOM     10  C   UNL     1      17.014  38.524  52.027  0.00  0.00    +0.000 A 
ATOM     11  C   UNL     1      18.284  37.896  52.058  0.00  0.00    +0.000 A 
ATOM     12  C   UNL     1      18.777  37.203  50.960  0.00  0.00    +0.000 A 
ATOM     13  C   UNL     1      17.988  37.153  49.840  0.00  0.00    +0.000 A 
ATOM     14  N   UNL     1      16.782  37.744  49.762  0.00  0.00    +0.000 NA
ATOM     15  C   UNL     1      16.282  38.436  50.819  0.00  0.00    +0.000 A 
ATOM     16  C   UNL     1      15.033  39.065  50.702  0.00  0.00    +0.000 A 
ATOM     17  N   UNL     1      14.342  38.950  49.539  0.00  0.00    +0.000 NA
ATOM     18  C   UNL     1      13.149  39.554  49.390  0.00  0.00    +0.000 A 
ATOM     19  C   UNL     1      12.562  40.304  50.376  0.00  0.00    +0.000 A 
ATOM     20  C   UNL     1      13.247  40.433  51.576  0.00  0.00    +0.000 A 
ATOM     21  C   UNL     1      14.507  39.820  51.780  0.00  0.00    +0.000 A 
ATOM     22  N   UNL     1      17.181  39.291  54.371  0.00  0.00    +0.000 N 
ATOM     23  H   UNL     1      17.836  38.537  54.549  0.00  0.00    +0.000 HD
ENDROOT
BRANCH   7  24
ATOM     24  C   UNL     1      14.780  42.313  53.844  0.00  0.00    +0.000 A 
ATOM     25  C   UNL     1      15.956  42.874  53.305  0.00  0.00    +0.000 A 
ATOM     26  C   UNL     1      16.017  44.232  52.981  0.00  0.00    +0.000 A 
ATOM     27  C   UNL     1      14.903  45.037  53.180  0.00  0.00    +0.000 A 
ATOM     28  F   UNL     1      14.967  46.338  52.866  0.00  0.00    +0.000 F 
ATOM     29  C   UNL     1      13.732  44.498  53.693  0.00  0.00    +0.000 A 
ATOM     30  F   UNL     1      12.653  45.273  53.872  0.00  0.00    +0.000 F 
ATOM     31  C   UNL     1      13.659  43.145  54.018  0.00  0.00    +0.000 A 
ENDBRANCH   7  24
TORSDOF 1
ENDMDL
MODEL 3
REMARK VINA RESULT:    -6.481      3.314      6.089
REMARK INTER + INTRA:          -7.635
REMARK INTER:                  -6.860
REMARK INTRA:                  -0.775
REMARK UNBOUND:                -0.775
REMARK  Name = 
REMARK  1 active torsions:
REMARK  status: ('A' for Active; 'I' for Inactive)
REMARK    1  A    between atoms: C_7  and  C_8
REMARK                            x       y       z     vdW  Elec       q    Type
REMARK                         _______ _______ _______ _____ _____    ______ ____
ROOT
ATOM      1  O   UNL     1       9.771  47.300  45.468  0.00  0.00    +0.000 OA
ATOM      2  C   UNL     1      10.257  46.457  46.199  0.00  0.00    +0.000 C 
ATOM      3  O   UNL     1       9.771  46.083  47.419  0.00  0.00    +0.000 OA
ATOM      4  C   UNL     1      10.578  45.024  47.947  0.00  0.00    +0.000 C 
ATOM      5  C   UNL     1      11.597  44.805  46.901  0.00  0.00    +0.000 C 
ATOM      6  C   UNL     1      11.431  45.657  45.900  0.00  0.00    +0.000 C 
ATOM      7  C   UNL     1      12.271  45.672  44.679  0.00  0.00    +0.000 C 
ATOM      8  C   UNL     1      13.146  44.392  44.568  0.00  0.00    +0.000 A 
ATOM      9  C   UNL     1      13.286  43.541  45.701  0.00  0.00    +0.000 A 
ATOM     10  C   UNL     1      14.190  42.448  45.657  0.00  0.00    +0.000 A 
ATOM     11  C   UNL     1      14.466  41.629  46.779  0.00  0.00    +0.000 A 
ATOM     12  C   UNL     1      15.342  40.555  46.694  0.00  0.00    +0.000 A 
ATOM     13  C   UNL     1      15.934  40.318  45.481  0.00  0.00    +0.000 A 
ATOM     14  N   UNL     1      15.710  41.077  44.392  0.00  0.00    +0.000 NA
ATOM     15  C   UNL     1      14.865  42.139  44.452  0.00  0.00    +0.000 A 
ATOM     16  C   UNL     1      14.669  42.928  43.309  0.00  0.00    +0.000 A 
ATOM     17  N   UNL     1      15.315  42.600  42.161  0.00  0.00    +0.000 NA
ATOM     18  C   UNL     1      15.160  43.346  41.052  0.00  0.00    +0.000 A 
ATOM     19  C   UNL     1      14.358  44.458  41.004  0.00  0.00    +0.000 A 
ATOM     20  C   UNL     1      13.685  44.811  42.165  0.00  0.00    +0.000 A 
ATOM     21  C   UNL     1      13.818  44.061  43.358  0.00  0.00    +0.000 A 
ATOM     22  N   UNL     1      12.571  43.843  46.899  0.00  0.00    +0.000 N 
ATOM     23  H   UNL     1      12.424  43.069  47.538  0.00  0.00    +0.000 HD
ENDROOT
BRANCH   7  24
ATOM     24  C   UNL     1      13.094  46.963  44.625  0.00  0.00    +0.000 A 
ATOM     25  C   UNL     1      12.545  48.116  44.028  0.00  0.00    +0.000 A 
ATOM     26  C   UNL     1      13.266  49.313  43.987  0.00  0.00    +0.000 A 
ATOM     27  C   UNL     1      14.534  49.371  44.552  0.00  0.00    +0.000 A 
ATOM     28  F   UNL     1      15.220  50.521  44.512  0.00  0.00    +0.000 F 
ATOM     29  C   UNL     1      15.082  48.250  45.159  0.00  0.00    +0.000 A 
ATOM     30  F   UNL     1      16.300  48.311  45.716  0.00  0.00    +0.000 F 
ATOM     31  C   UNL     1      14.372  47.052  45.207  0.00  0.00    +0.000 A 
ENDBRANCH   7  24
TORSDOF 1
ENDMDL
