MODEL 1
REMARK VINA RESULT:    -6.886      0.000      0.000
REMARK INTER + INTRA:         -10.641
REMARK INTER:                  -9.437
REMARK INTRA:                  -1.204
REMARK UNBOUND:                -1.340
REMARK  Name = 
REMARK  7 active torsions:
REMARK  status: ('A' for Active; 'I' for Inactive)
REMARK    1  A    between atoms: C_1  and  N_2
REMARK    2  A    between atoms: C_5  and  N_6
REMARK    3  A    between atoms: C_7  and  C_9
REMARK    4  A    between atoms: C_9  and  C_10
REMARK    5  A    between atoms: C_10  and  C_11
REMARK    6  A    between atoms: C_20  and  C_21
REMARK    7  A    between atoms: C_24  and  C_25
REMARK                            x       y       z     vdW  Elec       q    Type
REMARK                         _______ _______ _______ _____ _____    ______ ____
ROOT
ATOM      1  C   UNL     1      17.514  39.990  54.313  0.00  0.00    +0.000 C 
ATOM      2  N   UNL     1      17.340  39.092  53.180  0.00  0.00    +0.000 N 
ATOM      3  C   UNL     1      17.056  39.684  51.940  0.00  0.00    +0.000 C 
ATOM      4  O   UNL     1      17.121  40.907  51.767  0.00  0.00    +0.000 OA
ATOM      5  C   UNL     1      16.629  38.723  50.792  0.00  0.00    +0.000 C 
ATOM      6  N   UNL     1      17.826  38.029  50.341  0.00  0.00    +0.000 NA
ATOM      7  C   UNL     1      18.314  37.131  51.132  0.00  0.00    +0.000 C 
ATOM      8  C   UNL     1      17.700  36.734  52.436  0.00  0.00    +0.000 A 
ATOM      9  C   UNL     1      17.577  35.355  52.692  0.00  0.00    +0.000 A 
ATOM     10  C   UNL     1      17.115  34.902  53.924  0.00  0.00    +0.000 A 
ATOM     11  C   UNL     1      16.775  35.821  54.908  0.00  0.00    +0.000 A 
ATOM     12  C   UNL     1      16.871  37.192  54.652  0.00  0.00    +0.000 A 
ATOM     13  C   UNL     1      17.307  37.679  53.406  0.00  0.00    +0.000 A 
ENDROOT
BRANCH   7  14
ATOM     14  C   UNL     1      19.574  36.452  50.692  0.00  0.00    +0.000 A 
ATOM     15  C   UNL     1      20.754  36.548  51.441  0.00  0.00    +0.000 A 
ATOM     16  C   UNL     1      21.914  35.908  50.999  0.00  0.00    +0.000 A 
ATOM     17  C   UNL     1      21.914  35.184  49.799  0.00  0.00    +0.000 A 
ATOM     18  C   UNL     1      20.735  35.091  49.049  0.00  0.00    +0.000 A 
ATOM     19  C   UNL     1      19.572  35.730  49.492  0.00  0.00    +0.000 A 
BRANCH  17  20
ATOM     20  C   UNL     1      23.175  34.520  49.377  0.00  0.00    +0.000 C 
ATOM     21  N   UNL     1      23.156  33.807  48.210  0.00  0.00    +0.000 N 
ATOM     22  O   UNL     1      24.207  34.629  50.028  0.00  0.00    +0.000 OA
ATOM     23  H   UNL     1      22.432  33.930  47.517  0.00  0.00    +0.000 HD
ATOM     24  H   UNL     1      24.055  33.477  47.883  0.00  0.00    +0.000 HD
ENDBRANCH  17  20
ENDBRANCH   7  14
BRANCH   5  25
ATOM     25  N   UNL     1      16.170  39.487  49.660  0.00  0.00    +0.000 N 
ATOM     26  C   UNL     1      14.826  39.724  49.493  0.00  0.00    +0.000 C 
ATOM     27  O   UNL     1      13.955  39.159  50.145  0.00  0.00    +0.000 OA
ATOM     28  H   UNL     1      16.826  40.182  49.339  0.00  0.00    +0.000 HD
BRANCH  26  29
ATOM     29  C   UNL     1      14.541  40.752  48.419  0.00  0.00    +0.000 C 
BRANCH  29  30
ATOM     30  C   UNL     1      14.876  40.218  47.028  0.00  0.00    +0.000 C 
BRANCH  30  31
ATOM     31  C   UNL     1      15.057  41.335  46.025  0.00  0.00    +0.000 A 
ATOM     32  C   UNL     1      14.483  42.591  46.303  0.00  0.00    +0.000 A 
ATOM     33  C   UNL     1      14.637  43.655  45.414  0.00  0.00    +0.000 A 
ATOM     34 CL   UNL     1      13.924  45.179  45.775  0.00  0.00    +0.000 Cl
ATOM     35  C   UNL     1      15.366  43.494  44.241  0.00  0.00    +0.000 A 
ATOM     36  C   UNL     1      15.948  42.258  43.954  0.00  0.00    +0.000 A 
ATOM     37  C   UNL     1      15.797  41.185  44.839  0.00  0.00    +0.000 A 
ATOM     38 CL   UNL     1      16.555  39.692  44.417  0.00  0.00    +0.000 Cl
ENDBRANCH  30  31
ENDBRANCH  29  30
ENDBRANCH  26  29
ENDBRANCH   5  25
TORSDOF 6
ENDMDL
MODEL 2
REMARK VINA RESULT:    -6.826      2.546      5.270
REMARK INTER + INTRA:         -10.560
REMARK INTER:                  -9.563
REMARK INTRA:                  -0.997
REMARK UNBOUND:                -1.340
REMARK  Name = 
REMARK  7 active torsions:
REMARK  status: ('A' for Active; 'I' for Inactive)
REMARK    1  A    between atoms: C_1  and  N_2
REMARK    2  A    between atoms: C_5  and  N_6
REMARK    3  A    between atoms: C_7  and  C_9
REMARK    4  A    between atoms: C_9  and  C_10
REMARK    5  A    between atoms: C_10  and  C_11
REMARK    6  A    between atoms: C_20  and  C_21
REMARK    7  A    between atoms: C_24  and  C_25
REMARK                            x       y       z     vdW  Elec       q    Type
REMARK                         _______ _______ _______ _____ _____    ______ ____
ROOT
ATOM      1  C   UNL     1      17.031  34.218  48.952  0.00  0.00    +0.000 C 
ATOM      2  N   UNL     1      17.431  35.564  49.340  0.00  0.00    +0.000 N 
ATOM      3  C   UNL     1      16.628  36.620  48.883  0.00  0.00    +0.000 C 
ATOM      4  O   UNL     1      15.539  36.424  48.330  0.00  0.00    +0.000 OA
ATOM      5  C   UNL     1      17.189  38.058  49.087  0.00  0.00    +0.000 C 
ATOM      6  N   UNL     1      17.049  38.380  50.500  0.00  0.00    +0.000 NA
ATOM      7  C   UNL     1      17.847  37.777  51.319  0.00  0.00    +0.000 C 
ATOM      8  C   UNL     1      18.920  36.825  50.901  0.00  0.00    +0.000 A 
ATOM      9  C   UNL     1      20.192  37.001  51.478  0.00  0.00    +0.000 A 
ATOM     10  C   UNL     1      21.216  36.094  51.224  0.00  0.00    +0.000 A 
ATOM     11  C   UNL     1      20.978  35.006  50.395  0.00  0.00    +0.000 A 
ATOM     12  C   UNL     1      19.725  34.838  49.799  0.00  0.00    +0.000 A 
ATOM     13  C   UNL     1      18.679  35.755  50.014  0.00  0.00    +0.000 A 
ENDROOT
BRANCH   7  14
ATOM     14  C   UNL     1      17.670  38.070  52.777  0.00  0.00    +0.000 A 
ATOM     15  C   UNL     1      17.480  37.042  53.709  0.00  0.00    +0.000 A 
ATOM     16  C   UNL     1      17.312  37.350  55.061  0.00  0.00    +0.000 A 
ATOM     17  C   UNL     1      17.312  38.684  55.492  0.00  0.00    +0.000 A 
ATOM     18  C   UNL     1      17.499  39.712  54.559  0.00  0.00    +0.000 A 
ATOM     19  C   UNL     1      17.668  39.404  53.205  0.00  0.00    +0.000 A 
BRANCH  17  20
ATOM     20  C   UNL     1      17.132  38.955  56.943  0.00  0.00    +0.000 C 
ATOM     21  N   UNL     1      17.078  40.262  57.341  0.00  0.00    +0.000 N 
ATOM     22  O   UNL     1      17.004  38.047  57.754  0.00  0.00    +0.000 OA
ATOM     23  H   UNL     1      16.893  41.014  56.693  0.00  0.00    +0.000 HD
ATOM     24  H   UNL     1      16.827  40.416  58.309  0.00  0.00    +0.000 HD
ENDBRANCH  17  20
ENDBRANCH   7  14
BRANCH   5  25
ATOM     25  N   UNL     1      16.364  39.008  48.386  0.00  0.00    +0.000 N 
ATOM     26  C   UNL     1      16.551  39.216  47.040  0.00  0.00    +0.000 C 
ATOM     27  O   UNL     1      17.516  38.784  46.419  0.00  0.00    +0.000 OA
ATOM     28  H   UNL     1      15.434  39.105  48.764  0.00  0.00    +0.000 HD
BRANCH  26  29
ATOM     29  C   UNL     1      15.443  40.034  46.413  0.00  0.00    +0.000 C 
BRANCH  29  30
ATOM     30  C   UNL     1      15.576  40.087  44.893  0.00  0.00    +0.000 C 
BRANCH  30  31
ATOM     31  C   UNL     1      15.576  41.509  44.378  0.00  0.00    +0.000 A 
ATOM     32  C   UNL     1      14.884  42.493  45.112  0.00  0.00    +0.000 A 
ATOM     33  C   UNL     1      14.869  43.820  44.684  0.00  0.00    +0.000 A 
ATOM     34 CL   UNL     1      14.016  45.003  45.597  0.00  0.00    +0.000 Cl
ATOM     35  C   UNL     1      15.542  44.196  43.526  0.00  0.00    +0.000 A 
ATOM     36  C   UNL     1      16.238  43.235  42.790  0.00  0.00    +0.000 A 
ATOM     37  C   UNL     1      16.257  41.900  43.212  0.00  0.00    +0.000 A 
ATOM     38 CL   UNL     1      17.148  40.775  42.253  0.00  0.00    +0.000 Cl
ENDBRANCH  30  31
ENDBRANCH  29  30
ENDBRANCH  26  29
ENDBRANCH   5  25
TORSDOF 6
ENDMDL
MODEL 3
REMARK VINA RESULT:    -6.602      1.124      2.209
REMARK INTER + INTRA:         -10.258
REMARK INTER:                  -8.918
REMARK INTRA:                  -1.340
REMARK UNBOUND:                -1.340
REMARK  Name = 
REMARK  7 active torsions:
REMARK  status: ('A' for Active; 'I' for Inactive)
REMARK    1  A    between atoms: C_1  and  N_2
REMARK    2  A    between atoms: C_5  and  N_6
REMARK    3  A    between atoms: C_7  and  C_9
REMARK    4  A    between atoms: C_9  and  C_10
REMARK    5  A    between atoms: C_10  and  C_11
REMARK    6  A    between atoms: C_20  and  C_21
REMARK    7  A    between atoms: C_24  and  C_25
REMARK                            x       y       z     vdW  Elec       q    Type
REMARK                         _______ _______ _______ _____ _____    ______ ____
ROOT
ATOM      1  C   UNL     1      16.670  40.651  54.025  0.00  0.00    +0.000 C 
ATOM      2  N   UNL     1      16.490  39.690  52.946  0.00  0.00    +0.000 N 
ATOM      3  C   UNL     1      16.218  40.213  51.672  0.00  0.00    +0.000 C 
ATOM      4  O   UNL     1      16.300  41.423  51.429  0.00  0.00    +0.000 OA
ATOM      5  C   UNL     1      15.785  39.192  50.580  0.00  0.00    +0.000 C 
ATOM      6  N   UNL     1      16.975  38.458  50.176  0.00  0.00    +0.000 NA
ATOM      7  C   UNL     1      17.448  37.601  51.020  0.00  0.00    +0.000 C 
ATOM      8  C   UNL     1      16.823  37.289  52.342  0.00  0.00    +0.000 A 
ATOM      9  C   UNL     1      16.682  35.928  52.677  0.00  0.00    +0.000 A 
ATOM     10  C   UNL     1      16.209  35.554  53.930  0.00  0.00    +0.000 A 
ATOM     11  C   UNL     1      15.875  36.532  54.857  0.00  0.00    +0.000 A 
ATOM     12  C   UNL     1      15.990  37.885  54.523  0.00  0.00    +0.000 A 
ATOM     13  C   UNL     1      16.438  38.293  53.253  0.00  0.00    +0.000 A 
ENDROOT
BRANCH   7  14
ATOM     14  C   UNL     1      18.702  36.882  50.627  0.00  0.00    +0.000 A 
ATOM     15  C   UNL     1      18.768  36.123  49.452  0.00  0.00    +0.000 A 
ATOM     16  C   UNL     1      19.951  35.460  49.118  0.00  0.00    +0.000 A 
ATOM     17  C   UNL     1      21.069  35.531  49.960  0.00  0.00    +0.000 A 
ATOM     18  C   UNL     1      21.001  36.288  51.137  0.00  0.00    +0.000 A 
ATOM     19  C   UNL     1      19.817  36.954  51.471  0.00  0.00    +0.000 A 
BRANCH  17  20
ATOM     20  C   UNL     1      22.304  34.808  49.555  0.00  0.00    +0.000 C 
ATOM     21  N   UNL     1      23.504  35.343  49.932  0.00  0.00    +0.000 N 
ATOM     22  O   UNL     1      22.255  33.754  48.934  0.00  0.00    +0.000 OA
ATOM     23  H   UNL     1      23.579  36.029  50.670  0.00  0.00    +0.000 HD
ATOM     24  H   UNL     1      24.317  34.766  49.756  0.00  0.00    +0.000 HD
ENDBRANCH  17  20
ENDBRANCH   7  14
BRANCH   5  25
ATOM     25  N   UNL     1      15.341  39.894  49.403  0.00  0.00    +0.000 N 
ATOM     26  C   UNL     1      14.370  39.342  48.601  0.00  0.00    +0.000 C 
ATOM     27  O   UNL     1      13.983  38.184  48.710  0.00  0.00    +0.000 OA
ATOM     28  H   UNL     1      15.389  40.899  49.479  0.00  0.00    +0.000 HD
BRANCH  26  29
ATOM     29  C   UNL     1      13.836  40.316  47.572  0.00  0.00    +0.000 C 
BRANCH  29  30
ATOM     30  C   UNL     1      14.756  41.524  47.413  0.00  0.00    +0.000 C 
BRANCH  30  31
ATOM     31  C   UNL     1      15.223  41.692  45.984  0.00  0.00    +0.000 A 
ATOM     32  C   UNL     1      15.836  40.598  45.342  0.00  0.00    +0.000 A 
ATOM     33  C   UNL     1      16.269  40.701  44.020  0.00  0.00    +0.000 A 
ATOM     34 CL   UNL     1      17.017  39.352  43.258  0.00  0.00    +0.000 Cl
ATOM     35  C   UNL     1      16.096  41.886  43.312  0.00  0.00    +0.000 A 
ATOM     36  C   UNL     1      15.484  42.977  43.931  0.00  0.00    +0.000 A 
ATOM     37  C   UNL     1      15.048  42.882  45.257  0.00  0.00    +0.000 A 
ATOM     38 CL   UNL     1      14.292  44.273  45.948  0.00  0.00    +0.000 Cl
ENDBRANCH  30  31
ENDBRANCH  29  30
ENDBRANCH  26  29
ENDBRANCH   5  25
TORSDOF 6
ENDMDL
