MODEL 1
REMARK VINA RESULT:    -6.268      0.000      0.000
REMARK INTER + INTRA:         -10.893
REMARK INTER:                  -9.977
REMARK INTRA:                  -0.915
REMARK UNBOUND:                -1.143
REMARK  Name = 
REMARK  11 active torsions:
REMARK  status: ('A' for Active; 'I' for Inactive)
REMARK    1  A    between atoms: C_1  and  N_2
REMARK    2  A    between atoms: N_2  and  C_3
REMARK    3  A    between atoms: C_3  and  C_4
REMARK    4  A    between atoms: C_7  and  O_8
REMARK    5  A    between atoms: O_8  and  C_9
REMARK    6  A    between atoms: C_9  and  C_10
REMARK    7  A    between atoms: C_10  and  C_11
REMARK    8  A    between atoms: C_11  and  N_12
REMARK    9  A    between atoms: C_20  and  O_21
REMARK   10  A    between atoms: O_21  and  C_22
REMARK   11  A    between atoms: C_26  and  C_27
REMARK                            x       y       z     vdW  Elec       q    Type
REMARK                         _______ _______ _______ _____ _____    ______ ____
ROOT
ATOM      1  C   UNL     1      13.492  44.475  42.777  0.00  0.00    +0.000 C 
ATOM      2  N   UNL     1      12.671  44.414  43.984  0.00  0.00    +0.000 N 
ATOM      3  C   UNL     1      13.089  43.538  44.952  0.00  0.00    +0.000 A 
ATOM      4  N   UNL     1      14.180  42.809  44.838  0.00  0.00    +0.000 NA
ATOM      5  C   UNL     1      14.351  41.982  45.933  0.00  0.00    +0.000 A 
ATOM      6  C   UNL     1      15.427  41.093  46.135  0.00  0.00    +0.000 A 
ATOM      7  C   UNL     1      15.473  40.308  47.293  0.00  0.00    +0.000 A 
ATOM      8  C   UNL     1      14.447  40.393  48.234  0.00  0.00    +0.000 A 
ATOM      9  C   UNL     1      13.386  41.286  48.071  0.00  0.00    +0.000 A 
ATOM     10  C   UNL     1      13.358  42.067  46.904  0.00  0.00    +0.000 A 
ATOM     11  S   UNL     1      12.193  43.224  46.404  0.00  0.00    +0.000 S 
ENDROOT
BRANCH   2  12
ATOM     12  C   UNL     1      11.993  45.658  44.349  0.00  0.00    +0.000 C 
BRANCH  12  13
ATOM     13  C   UNL     1      12.997  46.769  44.581  0.00  0.00    +0.000 A 
ATOM     14  C   UNL     1      14.182  46.533  45.292  0.00  0.00    +0.000 A 
ATOM     15  C   UNL     1      15.105  47.564  45.510  0.00  0.00    +0.000 A 
ATOM     16  C   UNL     1      14.854  48.846  45.023  0.00  0.00    +0.000 A 
ATOM     17  C   UNL     1      13.670  49.087  44.322  0.00  0.00    +0.000 A 
ATOM     18  C   UNL     1      12.750  48.060  44.098  0.00  0.00    +0.000 A 
BRANCH  16  19
ATOM     19  O   UNL     1      15.663  49.939  45.154  0.00  0.00    +0.000 OA
BRANCH  19  20
ATOM     20  C   UNL     1      15.970  50.719  43.998  0.00  0.00    +0.000 C 
BRANCH  20  21
ATOM     21  C   UNL     1      16.858  51.910  44.361  0.00  0.00    +0.000 C 
BRANCH  21  22
ATOM     22  C   UNL     1      18.334  51.524  44.324  0.00  0.00    +0.000 C 
BRANCH  22  23
ATOM     23  N   UNL     1      18.527  50.137  44.737  0.00  0.00    +0.000 NA
ATOM     24  H   UNL     1      18.157  50.003  45.680  0.00  0.00    +0.000 HD
ATOM     25  H   UNL     1      19.525  49.930  44.802  0.00  0.00    +0.000 HD
ENDBRANCH  22  23
ENDBRANCH  21  22
ENDBRANCH  20  21
ENDBRANCH  19  20
ENDBRANCH  16  19
ENDBRANCH  12  13
ENDBRANCH   2  12
BRANCH   8  26
ATOM     26  O   UNL     1      14.470  39.659  49.400  0.00  0.00    +0.000 OA
BRANCH  26  27
ATOM     27  C   UNL     1      15.430  39.985  50.334  0.00  0.00    +0.000 A 
ATOM     28  C   UNL     1      16.615  39.264  50.499  0.00  0.00    +0.000 A 
ATOM     29  C   UNL     1      17.519  39.632  51.494  0.00  0.00    +0.000 A 
ATOM     30  C   UNL     1      17.237  40.712  52.332  0.00  0.00    +0.000 A 
ATOM     31  C   UNL     1      16.044  41.437  52.184  0.00  0.00    +0.000 A 
ATOM     32  C   UNL     1      15.135  41.052  51.184  0.00  0.00    +0.000 A 
BRANCH  31  33
ATOM     33  C   UNL     1      15.720  42.588  53.104  0.00  0.00    +0.000 C 
ATOM     34  F   UNL     1      15.815  42.257  54.423  0.00  0.00    +0.000 F 
ATOM     35  F   UNL     1      14.459  43.072  52.933  0.00  0.00    +0.000 F 
ATOM     36  F   UNL     1      16.556  43.649  52.921  0.00  0.00    +0.000 F 
ENDBRANCH  31  33
ENDBRANCH  26  27
ENDBRANCH   8  26
TORSDOF 10
ENDMDL
MODEL 2
REMARK VINA RESULT:    -6.145      5.223     10.809
REMARK INTER + INTRA:         -10.702
REMARK INTER:                  -9.453
REMARK INTRA:                  -1.249
REMARK UNBOUND:                -1.143
REMARK  Name = 
REMARK  11 active torsions:
REMARK  status: ('A' for Active; 'I' for Inactive)
REMARK    1  A    between atoms: C_1  and  N_2
REMARK    2  A    between atoms: N_2  and  C_3
REMARK    3  A    between atoms: C_3  and  C_4
REMARK    4  A    between atoms: C_7  and  O_8
REMARK    5  A    between atoms: O_8  and  C_9
REMARK    6  A    between atoms: C_9  and  C_10
REMARK    7  A    between atoms: C_10  and  C_11
REMARK    8  A    between atoms: C_11  and  N_12
REMARK    9  A    between atoms: C_20  and  O_21
REMARK   10  A    between atoms: O_21  and  C_22
REMARK   11  A    between atoms: C_26  and  C_27
REMARK                            x       y       z     vdW  Elec       q    Type
REMARK                         _______ _______ _______ _____ _____    ______ ____
ROOT
ATOM      1  C   UNL     1      18.801  37.050  51.417  0.00  0.00    +0.000 C 
ATOM      2  N   UNL     1      17.501  37.714  51.442  0.00  0.00    +0.000 N 
ATOM      3  C   UNL     1      17.017  38.133  50.231  0.00  0.00    +0.000 A 
ATOM      4  N   UNL     1      17.652  37.932  49.094  0.00  0.00    +0.000 NA
ATOM      5  C   UNL     1      16.969  38.488  48.028  0.00  0.00    +0.000 A 
ATOM      6  C   UNL     1      17.365  38.432  46.675  0.00  0.00    +0.000 A 
ATOM      7  C   UNL     1      16.578  39.046  45.695  0.00  0.00    +0.000 A 
ATOM      8  C   UNL     1      15.415  39.725  46.057  0.00  0.00    +0.000 A 
ATOM      9  C   UNL     1      14.986  39.770  47.386  0.00  0.00    +0.000 A 
ATOM     10  C   UNL     1      15.788  39.148  48.357  0.00  0.00    +0.000 A 
ATOM     11  S   UNL     1      15.553  39.048  50.054  0.00  0.00    +0.000 S 
ENDROOT
BRANCH   2  12
ATOM     12  C   UNL     1      16.587  37.272  52.495  0.00  0.00    +0.000 C 
BRANCH  12  13
ATOM     13  C   UNL     1      16.815  38.057  53.770  0.00  0.00    +0.000 A 
ATOM     14  C   UNL     1      17.168  37.408  54.963  0.00  0.00    +0.000 A 
ATOM     15  C   UNL     1      17.372  38.137  56.142  0.00  0.00    +0.000 A 
ATOM     16  C   UNL     1      17.225  39.523  56.145  0.00  0.00    +0.000 A 
ATOM     17  C   UNL     1      16.865  40.172  54.961  0.00  0.00    +0.000 A 
ATOM     18  C   UNL     1      16.665  39.449  53.783  0.00  0.00    +0.000 A 
BRANCH  16  19
ATOM     19  O   UNL     1      17.399  40.357  57.214  0.00  0.00    +0.000 OA
BRANCH  19  20
ATOM     20  C   UNL     1      16.743  40.053  58.445  0.00  0.00    +0.000 C 
BRANCH  20  21
ATOM     21  C   UNL     1      15.731  41.142  58.809  0.00  0.00    +0.000 C 
BRANCH  21  22
ATOM     22  C   UNL     1      16.411  42.302  59.530  0.00  0.00    +0.000 C 
BRANCH  22  23
ATOM     23  N   UNL     1      17.830  42.375  59.193  0.00  0.00    +0.000 NA
ATOM     24  H   UNL     1      18.391  42.176  60.023  0.00  0.00    +0.000 HD
ATOM     25  H   UNL     1      18.073  43.327  58.918  0.00  0.00    +0.000 HD
ENDBRANCH  22  23
ENDBRANCH  21  22
ENDBRANCH  20  21
ENDBRANCH  19  20
ENDBRANCH  16  19
ENDBRANCH  12  13
ENDBRANCH   2  12
BRANCH   8  26
ATOM     26  O   UNL     1      14.597  40.316  45.119  0.00  0.00    +0.000 OA
BRANCH  26  27
ATOM     27  C   UNL     1      14.931  41.586  44.701  0.00  0.00    +0.000 A 
ATOM     28  C   UNL     1      15.982  41.853  43.821  0.00  0.00    +0.000 A 
ATOM     29  C   UNL     1      16.284  43.170  43.477  0.00  0.00    +0.000 A 
ATOM     30  C   UNL     1      15.543  44.222  44.018  0.00  0.00    +0.000 A 
ATOM     31  C   UNL     1      14.492  43.968  44.913  0.00  0.00    +0.000 A 
ATOM     32  C   UNL     1      14.202  42.638  45.260  0.00  0.00    +0.000 A 
BRANCH  31  33
ATOM     33  C   UNL     1      13.705  45.102  45.522  0.00  0.00    +0.000 C 
ATOM     34  F   UNL     1      13.059  44.746  46.668  0.00  0.00    +0.000 F 
ATOM     35  F   UNL     1      12.743  45.593  44.691  0.00  0.00    +0.000 F 
ATOM     36  F   UNL     1      14.494  46.165  45.848  0.00  0.00    +0.000 F 
ENDBRANCH  31  33
ENDBRANCH  26  27
ENDBRANCH   8  26
TORSDOF 10
ENDMDL
MODEL 3
REMARK VINA RESULT:    -5.800      6.142      9.237
REMARK INTER + INTRA:         -10.165
REMARK INTER:                  -9.021
REMARK INTRA:                  -1.143
REMARK UNBOUND:                -1.143
REMARK  Name = 
REMARK  11 active torsions:
REMARK  status: ('A' for Active; 'I' for Inactive)
REMARK    1  A    between atoms: C_1  and  N_2
REMARK    2  A    between atoms: N_2  and  C_3
REMARK    3  A    between atoms: C_3  and  C_4
REMARK    4  A    between atoms: C_7  and  O_8
REMARK    5  A    between atoms: O_8  and  C_9
REMARK    6  A    between atoms: C_9  and  C_10
REMARK    7  A    between atoms: C_10  and  C_11
REMARK    8  A    between atoms: C_11  and  N_12
REMARK    9  A    between atoms: C_20  and  O_21
REMARK   10  A    between atoms: O_21  and  C_22
REMARK   11  A    between atoms: C_26  and  C_27
REMARK                            x       y       z     vdW  Elec       q    Type
REMARK                         _______ _______ _______ _____ _____    ______ ____
ROOT
ATOM      1  C   UNL     1      15.328  41.085  51.341  0.00  0.00    +0.000 C 
ATOM      2  N   UNL     1      15.493  39.724  50.839  0.00  0.00    +0.000 N 
ATOM      3  C   UNL     1      16.011  38.815  51.724  0.00  0.00    +0.000 A 
ATOM      4  N   UNL     1      16.317  39.119  52.969  0.00  0.00    +0.000 NA
ATOM      5  C   UNL     1      16.857  38.035  53.635  0.00  0.00    +0.000 A 
ATOM      6  C   UNL     1      17.270  38.017  54.984  0.00  0.00    +0.000 A 
ATOM      7  C   UNL     1      17.807  36.847  55.532  0.00  0.00    +0.000 A 
ATOM      8  C   UNL     1      17.949  35.707  54.741  0.00  0.00    +0.000 A 
ATOM      9  C   UNL     1      17.522  35.690  53.411  0.00  0.00    +0.000 A 
ATOM     10  C   UNL     1      16.984  36.874  52.878  0.00  0.00    +0.000 A 
ATOM     11  S   UNL     1      16.399  37.180  51.294  0.00  0.00    +0.000 S 
ENDROOT
BRANCH   2  12
ATOM     12  C   UNL     1      14.528  39.305  49.822  0.00  0.00    +0.000 C 
BRANCH  12  13
ATOM     13  C   UNL     1      14.902  39.862  48.464  0.00  0.00    +0.000 A 
ATOM     14  C   UNL     1      15.879  39.239  47.674  0.00  0.00    +0.000 A 
ATOM     15  C   UNL     1      16.227  39.760  46.421  0.00  0.00    +0.000 A 
ATOM     16  C   UNL     1      15.605  40.912  45.942  0.00  0.00    +0.000 A 
ATOM     17  C   UNL     1      14.637  41.540  46.730  0.00  0.00    +0.000 A 
ATOM     18  C   UNL     1      14.285  41.021  47.977  0.00  0.00    +0.000 A 
BRANCH  16  19
ATOM     19  O   UNL     1      15.839  41.524  44.743  0.00  0.00    +0.000 OA
BRANCH  19  20
ATOM     20  C   UNL     1      16.286  40.737  43.638  0.00  0.00    +0.000 C 
BRANCH  20  21
ATOM     21  C   UNL     1      16.230  41.540  42.337  0.00  0.00    +0.000 C 
BRANCH  21  22
ATOM     22  C   UNL     1      15.732  42.960  42.590  0.00  0.00    +0.000 C 
BRANCH  22  23
ATOM     23  N   UNL     1      16.731  43.750  43.302  0.00  0.00    +0.000 NA
ATOM     24  H   UNL     1      17.075  43.226  44.109  0.00  0.00    +0.000 HD
ATOM     25  H   UNL     1      16.298  44.592  43.686  0.00  0.00    +0.000 HD
ENDBRANCH  22  23
ENDBRANCH  21  22
ENDBRANCH  20  21
ENDBRANCH  19  20
ENDBRANCH  16  19
ENDBRANCH  12  13
ENDBRANCH   2  12
BRANCH   8  26
ATOM     26  O   UNL     1      18.445  34.527  55.250  0.00  0.00    +0.000 OA
BRANCH  26  27
ATOM     27  C   UNL     1      19.813  34.419  55.378  0.00  0.00    +0.000 A 
ATOM     28  C   UNL     1      20.499  34.714  56.558  0.00  0.00    +0.000 A 
ATOM     29  C   UNL     1      21.889  34.620  56.596  0.00  0.00    +0.000 A 
ATOM     30  C   UNL     1      22.596  34.241  55.453  0.00  0.00    +0.000 A 
ATOM     31  C   UNL     1      21.920  33.953  54.258  0.00  0.00    +0.000 A 
ATOM     32  C   UNL     1      20.519  34.060  54.228  0.00  0.00    +0.000 A 
BRANCH  31  33
ATOM     33  C   UNL     1      22.680  33.569  53.013  0.00  0.00    +0.000 C 
ATOM     34  F   UNL     1      22.388  32.311  52.579  0.00  0.00    +0.000 F 
ATOM     35  F   UNL     1      24.032  33.599  53.181  0.00  0.00    +0.000 F 
ATOM     36  F   UNL     1      22.416  34.401  51.966  0.00  0.00    +0.000 F 
ENDBRANCH  31  33
ENDBRANCH  26  27
ENDBRANCH   8  26
TORSDOF 10
ENDMDL
