MODEL 1
REMARK VINA RESULT:    -6.161      0.000      0.000
REMARK INTER + INTRA:         -10.605
REMARK INTER:                  -8.756
REMARK INTRA:                  -1.848
REMARK UNBOUND:                -1.563
REMARK  Name = 
REMARK  10 active torsions:
REMARK  status: ('A' for Active; 'I' for Inactive)
REMARK    1  A    between atoms: C_1  and  C_2
REMARK    2  A    between atoms: C_2  and  N_3
REMARK    3  A    between atoms: N_3  and  C_4
REMARK    4  A    between atoms: C_4  and  C_5
REMARK    5  A    between atoms: C_6  and  C_8
REMARK    6  A    between atoms: C_11  and  C_12
REMARK    7  A    between atoms: N_13  and  C_14
REMARK    8  A    between atoms: N_25  and  C_26
REMARK    9  A    between atoms: C_26  and  C_27
REMARK   10  A    between atoms: C_27  and  C_28
REMARK                            x       y       z     vdW  Elec       q    Type
REMARK                         _______ _______ _______ _____ _____    ______ ____
ROOT
ATOM      1  C   UNL     1      17.517  37.306  49.225  0.00  0.00    +0.000 C 
ATOM      2  N   UNL     1      18.392  36.363  49.051  0.00  0.00    +0.000 NA
ATOM      3  N   UNL     1      17.099  37.844  50.440  0.00  0.00    +0.000 N 
ATOM      4  C   UNL     1      17.357  39.248  50.750  0.00  0.00    +0.000 C 
ATOM      5  C   UNL     1      17.994  39.425  52.126  0.00  0.00    +0.000 C 
ATOM      6  C   UNL     1      17.518  38.461  53.212  0.00  0.00    +0.000 C 
ATOM      7  N   UNL     1      16.074  38.377  53.437  0.00  0.00    +0.000 NA
ATOM      8  C   UNL     1      15.289  38.007  52.244  0.00  0.00    +0.000 C 
ATOM      9  C   UNL     1      15.998  37.163  51.157  0.00  0.00    +0.000 C 
ENDROOT
BRANCH   2  10
ATOM     10  C   UNL     1      19.038  35.812  50.173  0.00  0.00    +0.000 A 
ATOM     11  C   UNL     1      20.190  36.437  50.669  0.00  0.00    +0.000 A 
ATOM     12  C   UNL     1      20.873  35.913  51.770  0.00  0.00    +0.000 A 
ATOM     13  C   UNL     1      20.417  34.746  52.379  0.00  0.00    +0.000 A 
ATOM     14  C   UNL     1      19.286  34.098  51.883  0.00  0.00    +0.000 A 
ATOM     15  C   UNL     1      18.604  34.622  50.781  0.00  0.00    +0.000 A 
ATOM     16 CL   UNL     1      17.212  33.772  50.201  0.00  0.00    +0.000 Cl
ENDBRANCH   2  10
BRANCH   1  20
ATOM     17  C   UNL     1      15.692  38.812  45.673  0.00  0.00    +0.000 A 
ATOM     18  C   UNL     1      14.905  38.536  46.796  0.00  0.00    +0.000 A 
ATOM     19  C   UNL     1      15.508  38.046  47.956  0.00  0.00    +0.000 A 
ATOM     20  C   UNL     1      16.889  37.829  47.978  0.00  0.00    +0.000 A 
ATOM     21  C   UNL     1      17.668  38.052  46.840  0.00  0.00    +0.000 A 
ATOM     22  C   UNL     1      17.067  38.547  45.683  0.00  0.00    +0.000 A 
BRANCH  17  24
ATOM     23  N   UNL     1      14.996  40.701  44.218  0.00  0.00    +0.000 N 
ATOM     24  C   UNL     1      15.077  39.321  44.429  0.00  0.00    +0.000 C 
ATOM     25  O   UNL     1      14.672  38.486  43.623  0.00  0.00    +0.000 OA
BRANCH  23  27
ATOM     26  C   UNL     1      14.881  42.257  46.155  0.00  0.00    +0.000 C 
ATOM     27  C   UNL     1      15.717  41.708  45.008  0.00  0.00    +0.000 C 
ENDBRANCH  23  27
BRANCH  23  28
ATOM     28  C   UNL     1      14.357  41.150  42.980  0.00  0.00    +0.000 C 
ATOM     29  C   UNL     1      12.884  41.483  43.175  0.00  0.00    +0.000 C 
ENDBRANCH  23  28
ENDBRANCH  17  24
ENDBRANCH   1  20
BRANCH   7  30
ATOM     30  C   UNL     1      15.542  39.563  54.130  0.00  0.00    +0.000 C 
BRANCH  30  31
ATOM     31  C   UNL     1      14.484  40.358  53.342  0.00  0.00    +0.000 C 
BRANCH  31  32
ATOM     32  C   UNL     1      14.718  41.850  53.341  0.00  0.00    +0.000 A 
ATOM     33  C   UNL     1      15.946  42.378  52.915  0.00  0.00    +0.000 A 
ATOM     34  C   UNL     1      16.164  43.757  52.917  0.00  0.00    +0.000 A 
ATOM     35  C   UNL     1      15.161  44.622  53.348  0.00  0.00    +0.000 A 
ATOM     36  C   UNL     1      13.940  44.109  53.782  0.00  0.00    +0.000 A 
ATOM     37  C   UNL     1      13.720  42.730  53.781  0.00  0.00    +0.000 A 
ENDBRANCH  31  32
ENDBRANCH  30  31
ENDBRANCH   7  30
TORSDOF 8
ENDMDL
MODEL 2
REMARK VINA RESULT:    -5.962      5.324      8.953
REMARK INTER + INTRA:         -10.313
REMARK INTER:                  -8.651
REMARK INTRA:                  -1.662
REMARK UNBOUND:                -1.563
REMARK  Name = 
REMARK  10 active torsions:
REMARK  status: ('A' for Active; 'I' for Inactive)
REMARK    1  A    between atoms: C_1  and  C_2
REMARK    2  A    between atoms: C_2  and  N_3
REMARK    3  A    between atoms: N_3  and  C_4
REMARK    4  A    between atoms: C_4  and  C_5
REMARK    5  A    between atoms: C_6  and  C_8
REMARK    6  A    between atoms: C_11  and  C_12
REMARK    7  A    between atoms: N_13  and  C_14
REMARK    8  A    between atoms: N_25  and  C_26
REMARK    9  A    between atoms: C_26  and  C_27
REMARK   10  A    between atoms: C_27  and  C_28
REMARK                            x       y       z     vdW  Elec       q    Type
REMARK                         _______ _______ _______ _____ _____    ______ ____
ROOT
ATOM      1  C   UNL     1      14.311  43.764  43.962  0.00  0.00    +0.000 C 
ATOM      2  N   UNL     1      14.932  43.661  42.826  0.00  0.00    +0.000 NA
ATOM      3  N   UNL     1      13.967  42.725  44.823  0.00  0.00    +0.000 N 
ATOM      4  C   UNL     1      14.547  42.656  46.161  0.00  0.00    +0.000 C 
ATOM      5  C   UNL     1      15.122  41.275  46.468  0.00  0.00    +0.000 C 
ATOM      6  C   UNL     1      14.354  40.088  45.888  0.00  0.00    +0.000 C 
ATOM      7  N   UNL     1      12.924  40.013  46.191  0.00  0.00    +0.000 NA
ATOM      8  C   UNL     1      12.146  41.195  45.774  0.00  0.00    +0.000 C 
ATOM      9  C   UNL     1      12.688  42.020  44.581  0.00  0.00    +0.000 C 
ENDROOT
BRANCH   2  10
ATOM     10  C   UNL     1      15.349  42.392  42.386  0.00  0.00    +0.000 A 
ATOM     11  C   UNL     1      16.564  41.874  42.856  0.00  0.00    +0.000 A 
ATOM     12  C   UNL     1      17.024  40.625  42.431  0.00  0.00    +0.000 A 
ATOM     13  C   UNL     1      16.279  39.884  41.516  0.00  0.00    +0.000 A 
ATOM     14  C   UNL     1      15.080  40.396  41.019  0.00  0.00    +0.000 A 
ATOM     15  C   UNL     1      14.620  41.646  41.445  0.00  0.00    +0.000 A 
ATOM     16 CL   UNL     1      13.131  42.235  40.789  0.00  0.00    +0.000 Cl
ENDBRANCH   2  10
BRANCH   1  20
ATOM     17  C   UNL     1      13.143  47.725  45.038  0.00  0.00    +0.000 A 
ATOM     18  C   UNL     1      12.615  47.133  43.886  0.00  0.00    +0.000 A 
ATOM     19  C   UNL     1      12.999  45.836  43.540  0.00  0.00    +0.000 A 
ATOM     20  C   UNL     1      13.913  45.149  44.345  0.00  0.00    +0.000 A 
ATOM     21  C   UNL     1      14.483  45.759  45.465  0.00  0.00    +0.000 A 
ATOM     22  C   UNL     1      14.094  47.052  45.814  0.00  0.00    +0.000 A 
BRANCH  17  24
ATOM     23  N   UNL     1      13.588  50.169  45.056  0.00  0.00    +0.000 N 
ATOM     24  C   UNL     1      12.761  49.101  45.420  0.00  0.00    +0.000 C 
ATOM     25  O   UNL     1      11.709  49.238  46.041  0.00  0.00    +0.000 OA
BRANCH  23  27
ATOM     26  C   UNL     1      16.043  49.931  44.747  0.00  0.00    +0.000 C 
ATOM     27  C   UNL     1      14.683  50.079  44.082  0.00  0.00    +0.000 C 
ENDBRANCH  23  27
BRANCH  23  28
ATOM     28  C   UNL     1      13.174  51.508  45.480  0.00  0.00    +0.000 C 
ATOM     29  C   UNL     1      13.804  51.919  46.804  0.00  0.00    +0.000 C 
ENDBRANCH  23  28
ENDBRANCH  17  24
ENDBRANCH   1  20
BRANCH   7  30
ATOM     30  C   UNL     1      12.663  39.617  47.586  0.00  0.00    +0.000 C 
BRANCH  30  31
ATOM     31  C   UNL     1      12.128  40.741  48.493  0.00  0.00    +0.000 C 
BRANCH  31  32
ATOM     32  C   UNL     1      12.877  40.879  49.798  0.00  0.00    +0.000 A 
ATOM     33  C   UNL     1      14.254  40.621  49.859  0.00  0.00    +0.000 A 
ATOM     34  C   UNL     1      14.946  40.746  51.064  0.00  0.00    +0.000 A 
ATOM     35  C   UNL     1      14.270  41.126  52.222  0.00  0.00    +0.000 A 
ATOM     36  C   UNL     1      12.900  41.377  52.176  0.00  0.00    +0.000 A 
ATOM     37  C   UNL     1      12.206  41.252  50.970  0.00  0.00    +0.000 A 
ENDBRANCH  31  32
ENDBRANCH  30  31
ENDBRANCH   7  30
TORSDOF 8
ENDMDL
MODEL 3
REMARK VINA RESULT:    -5.902      3.442      7.743
REMARK INTER + INTRA:         -10.225
REMARK INTER:                  -8.662
REMARK INTRA:                  -1.563
REMARK UNBOUND:                -1.563
REMARK  Name = 
REMARK  10 active torsions:
REMARK  status: ('A' for Active; 'I' for Inactive)
REMARK    1  A    between atoms: C_1  and  C_2
REMARK    2  A    between atoms: C_2  and  N_3
REMARK    3  A    between atoms: N_3  and  C_4
REMARK    4  A    between atoms: C_4  and  C_5
REMARK    5  A    between atoms: C_6  and  C_8
REMARK    6  A    between atoms: C_11  and  C_12
REMARK    7  A    between atoms: N_13  and  C_14
REMARK    8  A    between atoms: N_25  and  C_26
REMARK    9  A    between atoms: C_26  and  C_27
REMARK   10  A    between atoms: C_27  and  C_28
REMARK                            x       y       z     vdW  Elec       q    Type
REMARK                         _______ _______ _______ _____ _____    ______ ____
ROOT
ATOM      1  C   UNL     1      17.768  36.809  49.780  0.00  0.00    +0.000 C 
ATOM      2  N   UNL     1      17.199  36.483  48.660  0.00  0.00    +0.000 NA
ATOM      3  N   UNL     1      17.231  37.604  50.790  0.00  0.00    +0.000 N 
ATOM      4  C   UNL     1      16.974  37.041  52.112  0.00  0.00    +0.000 C 
ATOM      5  C   UNL     1      15.563  37.351  52.604  0.00  0.00    +0.000 C 
ATOM      6  C   UNL     1      15.006  38.721  52.218  0.00  0.00    +0.000 C 
ATOM      7  N   UNL     1      15.824  39.887  52.557  0.00  0.00    +0.000 NA
ATOM      8  C   UNL     1      17.185  39.867  51.988  0.00  0.00    +0.000 C 
ATOM      9  C   UNL     1      17.398  39.071  50.678  0.00  0.00    +0.000 C 
ENDROOT
BRANCH   2  10
ATOM     10  C   UNL     1      15.891  36.931  48.400  0.00  0.00    +0.000 A 
ATOM     11  C   UNL     1      14.807  36.190  48.891  0.00  0.00    +0.000 A 
ATOM     12  C   UNL     1      13.492  36.590  48.642  0.00  0.00    +0.000 A 
ATOM     13  C   UNL     1      13.245  37.731  47.883  0.00  0.00    +0.000 A 
ATOM     14  C   UNL     1      14.311  38.467  47.366  0.00  0.00    +0.000 A 
ATOM     15  C   UNL     1      15.627  38.067  47.616  0.00  0.00    +0.000 A 
ATOM     16 CL   UNL     1      16.911  39.012  46.942  0.00  0.00    +0.000 Cl
ENDBRANCH   2  10
BRANCH   1  20
ATOM     17  C   UNL     1      21.727  35.317  50.345  0.00  0.00    +0.000 A 
ATOM     18  C   UNL     1      21.195  36.240  51.252  0.00  0.00    +0.000 A 
ATOM     19  C   UNL     1      19.898  36.722  51.064  0.00  0.00    +0.000 A 
ATOM     20  C   UNL     1      19.151  36.284  49.966  0.00  0.00    +0.000 A 
ATOM     21  C   UNL     1      19.700  35.405  49.030  0.00  0.00    +0.000 A 
ATOM     22  C   UNL     1      20.993  34.918  49.221  0.00  0.00    +0.000 A 
BRANCH  17  24
ATOM     23  N   UNL     1      23.369  33.894  51.548  0.00  0.00    +0.000 N 
ATOM     24  C   UNL     1      23.100  34.799  50.516  0.00  0.00    +0.000 C 
ATOM     25  O   UNL     1      23.949  35.191  49.718  0.00  0.00    +0.000 OA
BRANCH  23  27
ATOM     26  C   UNL     1      22.287  33.659  53.774  0.00  0.00    +0.000 C 
ATOM     27  C   UNL     1      22.343  33.190  52.327  0.00  0.00    +0.000 C 
ENDBRANCH  23  27
BRANCH  23  28
ATOM     28  C   UNL     1      24.752  33.432  51.685  0.00  0.00    +0.000 C 
ATOM     29  C   UNL     1      24.886  31.931  51.470  0.00  0.00    +0.000 C 
ENDBRANCH  23  28
ENDBRANCH  17  24
ENDBRANCH   1  20
BRANCH   7  30
ATOM     30  C   UNL     1      15.808  40.186  53.999  0.00  0.00    +0.000 C 
BRANCH  30  31
ATOM     31  C   UNL     1      17.187  40.153  54.687  0.00  0.00    +0.000 C 
BRANCH  31  32
ATOM     32  C   UNL     1      17.224  39.303  55.935  0.00  0.00    +0.000 A 
ATOM     33  C   UNL     1      17.405  37.915  55.846  0.00  0.00    +0.000 A 
ATOM     34  C   UNL     1      17.437  37.129  56.999  0.00  0.00    +0.000 A 
ATOM     35  C   UNL     1      17.285  37.719  58.252  0.00  0.00    +0.000 A 
ATOM     36  C   UNL     1      17.097  39.096  58.352  0.00  0.00    +0.000 A 
ATOM     37  C   UNL     1      17.064  39.884  57.200  0.00  0.00    +0.000 A 
ENDBRANCH  31  32
ENDBRANCH  30  31
ENDBRANCH   7  30
TORSDOF 8
ENDMDL
