MODEL 1
REMARK VINA RESULT:    -6.277      0.000      0.000
REMARK INTER + INTRA:          -8.868
REMARK INTER:                  -8.163
REMARK INTRA:                  -0.705
REMARK UNBOUND:                -0.756
REMARK  Name = 
REMARK  5 active torsions:
REMARK  status: ('A' for Active; 'I' for Inactive)
REMARK    1  A    between atoms: N_3  and  N_4
REMARK    2  A    between atoms: C_9  and  C_10
REMARK    3  A    between atoms: N_15  and  C_16
REMARK    4  A    between atoms: C_18  and  C_19
REMARK    5  A    between atoms: C_24  and  C_25
REMARK                            x       y       z     vdW  Elec       q    Type
REMARK                         _______ _______ _______ _____ _____    ______ ____
ROOT
ATOM      1  O   UNL     1      13.331  43.790  44.462  0.00  0.00    +0.000 OA
ATOM      2  C   UNL     1      14.435  44.319  44.530  0.00  0.00    +0.000 C 
ATOM      3  N   UNL     1      14.586  45.694  44.654  0.00  0.00    +0.000 N 
ATOM      4  N   UNL     1      15.661  43.689  44.459  0.00  0.00    +0.000 N 
ATOM      5  H   UNL     1      15.381  46.065  45.163  0.00  0.00    +0.000 HD
ATOM      6  H   UNL     1      16.450  44.305  44.325  0.00  0.00    +0.000 HD
ENDROOT
BRANCH   3   7
ATOM      7  N   UNL     1      13.397  46.428  44.883  0.00  0.00    +0.000 N 
ATOM      8  C   UNL     1      13.532  47.784  44.551  0.00  0.00    +0.000 A 
ATOM      9  N   UNL     1      12.466  48.384  44.007  0.00  0.00    +0.000 NA
ATOM     10  C   UNL     1      12.582  49.687  43.698  0.00  0.00    +0.000 A 
ATOM     11  C   UNL     1      13.726  50.415  43.910  0.00  0.00    +0.000 A 
ATOM     12  C   UNL     1      14.788  49.729  44.470  0.00  0.00    +0.000 A 
ATOM     13  N   UNL     1      14.694  48.414  44.800  0.00  0.00    +0.000 NA
ATOM     14  H   UNL     1      12.603  46.068  44.345  0.00  0.00    +0.000 HD
BRANCH  12  15
ATOM     15  C   UNL     1      16.081  50.473  44.754  0.00  0.00    +0.000 C 
ATOM     16  F   UNL     1      17.093  49.636  45.125  0.00  0.00    +0.000 F 
ATOM     17  F   UNL     1      15.955  51.369  45.778  0.00  0.00    +0.000 F 
ATOM     18  F   UNL     1      16.554  51.189  43.696  0.00  0.00    +0.000 F 
ENDBRANCH  12  15
ENDBRANCH   3   7
BRANCH   4  19
ATOM     19  C   UNL     1      15.912  42.305  44.386  0.00  0.00    +0.000 A 
ATOM     20  C   UNL     1      16.306  41.648  43.219  0.00  0.00    +0.000 A 
ATOM     21  C   UNL     1      16.529  40.259  43.208  0.00  0.00    +0.000 A 
ATOM     22  C   UNL     1      16.360  39.532  44.395  0.00  0.00    +0.000 A 
ATOM     23  C   UNL     1      15.966  40.173  45.580  0.00  0.00    +0.000 A 
ATOM     24  C   UNL     1      15.736  41.559  45.557  0.00  0.00    +0.000 A 
BRANCH  21  25
ATOM     25  C   UNL     1      16.962  39.581  41.930  0.00  0.00    +0.000 C 
ATOM     26  F   UNL     1      17.211  38.254  42.101  0.00  0.00    +0.000 F 
ATOM     27  F   UNL     1      18.099  40.118  41.406  0.00  0.00    +0.000 F 
ATOM     28  F   UNL     1      16.027  39.661  40.940  0.00  0.00    +0.000 F 
ENDBRANCH  21  25
BRANCH  23  29
ATOM     29  C   UNL     1      15.757  39.380  46.847  0.00  0.00    +0.000 C 
ATOM     30  F   UNL     1      15.021  38.253  46.653  0.00  0.00    +0.000 F 
ATOM     31  F   UNL     1      15.105  40.098  47.801  0.00  0.00    +0.000 F 
ATOM     32  F   UNL     1      16.924  38.971  47.419  0.00  0.00    +0.000 F 
ENDBRANCH  23  29
ENDBRANCH   4  19
TORSDOF 5
ENDMDL
MODEL 2
REMARK VINA RESULT:    -6.246      3.079      9.523
REMARK INTER + INTRA:          -8.828
REMARK INTER:                  -8.038
REMARK INTRA:                  -0.790
REMARK UNBOUND:                -0.756
REMARK  Name = 
REMARK  5 active torsions:
REMARK  status: ('A' for Active; 'I' for Inactive)
REMARK    1  A    between atoms: N_3  and  N_4
REMARK    2  A    between atoms: C_9  and  C_10
REMARK    3  A    between atoms: N_15  and  C_16
REMARK    4  A    between atoms: C_18  and  C_19
REMARK    5  A    between atoms: C_24  and  C_25
REMARK                            x       y       z     vdW  Elec       q    Type
REMARK                         _______ _______ _______ _____ _____    ______ ____
ROOT
ATOM      1  O   UNL     1      14.191  44.659  43.028  0.00  0.00    +0.000 OA
ATOM      2  C   UNL     1      14.903  44.485  44.011  0.00  0.00    +0.000 C 
ATOM      3  N   UNL     1      15.913  43.532  44.027  0.00  0.00    +0.000 N 
ATOM      4  N   UNL     1      14.812  45.133  45.225  0.00  0.00    +0.000 N 
ATOM      5  H   UNL     1      16.747  43.698  44.580  0.00  0.00    +0.000 HD
ATOM      6  H   UNL     1      15.343  44.713  45.975  0.00  0.00    +0.000 HD
ENDROOT
BRANCH   3   7
ATOM      7  N   UNL     1      16.194  42.908  42.788  0.00  0.00    +0.000 N 
ATOM      8  C   UNL     1      16.024  41.516  42.838  0.00  0.00    +0.000 A 
ATOM      9  N   UNL     1      15.524  40.926  41.745  0.00  0.00    +0.000 NA
ATOM     10  C   UNL     1      15.371  39.591  41.780  0.00  0.00    +0.000 A 
ATOM     11  C   UNL     1      15.696  38.821  42.868  0.00  0.00    +0.000 A 
ATOM     12  C   UNL     1      16.201  39.498  43.963  0.00  0.00    +0.000 A 
ATOM     13  N   UNL     1      16.375  40.846  43.951  0.00  0.00    +0.000 NA
ATOM     14  H   UNL     1      15.597  43.252  42.030  0.00  0.00    +0.000 HD
BRANCH  12  15
ATOM     15  C   UNL     1      16.603  38.712  45.198  0.00  0.00    +0.000 C 
ATOM     16  F   UNL     1      15.668  37.784  45.552  0.00  0.00    +0.000 F 
ATOM     17  F   UNL     1      16.761  39.508  46.297  0.00  0.00    +0.000 F 
ATOM     18  F   UNL     1      17.777  38.032  45.067  0.00  0.00    +0.000 F 
ENDBRANCH  12  15
ENDBRANCH   3   7
BRANCH   4  19
ATOM     19  C   UNL     1      13.951  46.193  45.571  0.00  0.00    +0.000 A 
ATOM     20  C   UNL     1      12.751  46.024  46.266  0.00  0.00    +0.000 A 
ATOM     21  C   UNL     1      11.928  47.122  46.569  0.00  0.00    +0.000 A 
ATOM     22  C   UNL     1      12.330  48.406  46.172  0.00  0.00    +0.000 A 
ATOM     23  C   UNL     1      13.531  48.598  45.475  0.00  0.00    +0.000 A 
ATOM     24  C   UNL     1      14.327  47.480  45.172  0.00  0.00    +0.000 A 
BRANCH  21  25
ATOM     25  C   UNL     1      10.641  46.905  47.329  0.00  0.00    +0.000 C 
ATOM     26  F   UNL     1       9.571  46.730  46.506  0.00  0.00    +0.000 F 
ATOM     27  F   UNL     1      10.327  47.947  48.146  0.00  0.00    +0.000 F 
ATOM     28  F   UNL     1      10.676  45.803  48.133  0.00  0.00    +0.000 F 
ENDBRANCH  21  25
BRANCH  23  29
ATOM     29  C   UNL     1      13.944  49.979  45.024  0.00  0.00    +0.000 C 
ATOM     30  F   UNL     1      14.073  50.081  43.674  0.00  0.00    +0.000 F 
ATOM     31  F   UNL     1      15.141  50.355  45.549  0.00  0.00    +0.000 F 
ATOM     32  F   UNL     1      13.056  50.947  45.388  0.00  0.00    +0.000 F 
ENDBRANCH  23  29
ENDBRANCH   4  19
TORSDOF 5
ENDMDL
MODEL 3
REMARK VINA RESULT:    -6.217      4.691      8.015
REMARK INTER + INTRA:          -8.791
REMARK INTER:                  -8.034
REMARK INTRA:                  -0.756
REMARK UNBOUND:                -0.756
REMARK  Name = 
REMARK  5 active torsions:
REMARK  status: ('A' for Active; 'I' for Inactive)
REMARK    1  A    between atoms: N_3  and  N_4
REMARK    2  A    between atoms: C_9  and  C_10
REMARK    3  A    between atoms: N_15  and  C_16
REMARK    4  A    between atoms: C_18  and  C_19
REMARK    5  A    between atoms: C_24  and  C_25
REMARK                            x       y       z     vdW  Elec       q    Type
REMARK                         _______ _______ _______ _____ _____    ______ ____
ROOT
ATOM      1  O   UNL     1      13.213  41.491  47.567  0.00  0.00    +0.000 OA
ATOM      2  C   UNL     1      14.434  41.377  47.541  0.00  0.00    +0.000 C 
ATOM      3  N   UNL     1      15.117  40.586  48.456  0.00  0.00    +0.000 N 
ATOM      4  N   UNL     1      15.307  42.006  46.678  0.00  0.00    +0.000 N 
ATOM      5  H   UNL     1      15.977  40.127  48.175  0.00  0.00    +0.000 HD
ATOM      6  H   UNL     1      16.281  41.952  46.941  0.00  0.00    +0.000 HD
ENDROOT
BRANCH   3   7
ATOM      7  N   UNL     1      14.314  39.779  49.297  0.00  0.00    +0.000 N 
ATOM      8  C   UNL     1      14.081  40.372  50.547  0.00  0.00    +0.000 A 
ATOM      9  N   UNL     1      12.873  40.181  51.093  0.00  0.00    +0.000 NA
ATOM     10  C   UNL     1      12.646  40.735  52.296  0.00  0.00    +0.000 A 
ATOM     11  C   UNL     1      13.580  41.476  52.976  0.00  0.00    +0.000 A 
ATOM     12  C   UNL     1      14.802  41.635  52.350  0.00  0.00    +0.000 A 
ATOM     13  N   UNL     1      15.062  41.079  51.137  0.00  0.00    +0.000 NA
ATOM     14  H   UNL     1      13.397  39.577  48.888  0.00  0.00    +0.000 HD
BRANCH  12  15
ATOM     15  C   UNL     1      15.893  42.425  53.050  0.00  0.00    +0.000 C 
ATOM     16  F   UNL     1      17.047  41.710  53.190  0.00  0.00    +0.000 F 
ATOM     17  F   UNL     1      15.540  42.798  54.316  0.00  0.00    +0.000 F 
ATOM     18  F   UNL     1      16.241  43.578  52.412  0.00  0.00    +0.000 F 
ENDBRANCH  12  15
ENDBRANCH   3   7
BRANCH   4  19
ATOM     19  C   UNL     1      14.987  42.839  45.588  0.00  0.00    +0.000 A 
ATOM     20  C   UNL     1      15.108  42.450  44.252  0.00  0.00    +0.000 A 
ATOM     21  C   UNL     1      14.784  43.334  43.208  0.00  0.00    +0.000 A 
ATOM     22  C   UNL     1      14.324  44.621  43.522  0.00  0.00    +0.000 A 
ATOM     23  C   UNL     1      14.194  45.031  44.857  0.00  0.00    +0.000 A 
ATOM     24  C   UNL     1      14.539  44.132  45.880  0.00  0.00    +0.000 A 
BRANCH  21  25
ATOM     25  C   UNL     1      14.918  42.878  41.774  0.00  0.00    +0.000 C 
ATOM     26  F   UNL     1      13.732  42.476  41.240  0.00  0.00    +0.000 F 
ATOM     27  F   UNL     1      15.775  41.830  41.630  0.00  0.00    +0.000 F 
ATOM     28  F   UNL     1      15.387  43.854  40.945  0.00  0.00    +0.000 F 
ENDBRANCH  21  25
BRANCH  23  29
ATOM     29  C   UNL     1      13.726  46.428  45.188  0.00  0.00    +0.000 C 
ATOM     30  F   UNL     1      12.929  46.474  46.289  0.00  0.00    +0.000 F 
ATOM     31  F   UNL     1      13.006  46.982  44.176  0.00  0.00    +0.000 F 
ATOM     32  F   UNL     1      14.752  47.291  45.432  0.00  0.00    +0.000 F 
ENDBRANCH  23  29
ENDBRANCH   4  19
TORSDOF 5
ENDMDL
