MODEL 1
REMARK VINA RESULT:    -7.514      0.000      0.000
REMARK INTER + INTRA:         -10.992
REMARK INTER:                 -10.425
REMARK INTRA:                  -0.567
REMARK UNBOUND:                -0.843
REMARK  Name = 
REMARK  6 active torsions:
REMARK  status: ('A' for Active; 'I' for Inactive)
REMARK    1  A    between atoms: S_2  and  N_4
REMARK    2  A    between atoms: S_2  and  C_27
REMARK    3  A    between atoms: N_4  and  C_5
REMARK    4  A    between atoms: C_11  and  O_12
REMARK    5  A    between atoms: O_12  and  C_13
REMARK    6  A    between atoms: C_13  and  C_14
REMARK                            x       y       z     vdW  Elec       q    Type
REMARK                         _______ _______ _______ _____ _____    ______ ____
ROOT
ATOM      1  C   UNL     1      13.932  49.169  44.788  0.00  0.00    +0.000 A 
ATOM      2  C   UNL     1      12.886  49.584  45.606  0.00  0.00    +0.000 A 
ATOM      3  C   UNL     1      12.150  48.642  46.328  0.00  0.00    +0.000 A 
ATOM      4  C   UNL     1      12.455  47.275  46.240  0.00  0.00    +0.000 A 
ATOM      5  C   UNL     1      11.725  46.315  46.955  0.00  0.00    +0.000 A 
ATOM      6  C   UNL     1      12.039  44.954  46.861  0.00  0.00    +0.000 A 
ATOM      7  C   UNL     1      13.089  44.535  46.049  0.00  0.00    +0.000 A 
ATOM      8  C   UNL     1      13.822  45.485  45.331  0.00  0.00    +0.000 A 
ATOM      9  C   UNL     1      13.521  46.855  45.415  0.00  0.00    +0.000 A 
ATOM     10  C   UNL     1      14.253  47.814  44.693  0.00  0.00    +0.000 A 
ENDROOT
BRANCH   1  11
ATOM     11  N   UNL     1      14.673  50.112  44.018  0.00  0.00    +0.000 N 
ATOM     12  H   UNL     1      14.178  50.960  43.736  0.00  0.00    +0.000 HD
BRANCH  11  14
ATOM     13  O   UNL     1      16.764  49.338  45.273  0.00  0.00    +0.000 OA
ATOM     14  S   UNL     1      16.266  50.473  44.518  0.00  0.00    +0.000 S 
ATOM     15  O   UNL     1      16.936  50.858  43.285  0.00  0.00    +0.000 OA
BRANCH  14  16
ATOM     16  C   UNL     1      16.080  51.971  45.619  0.00  0.00    +0.000 C 
ATOM     17  F   UNL     1      15.437  51.680  46.782  0.00  0.00    +0.000 F 
ATOM     18  F   UNL     1      17.299  52.486  45.958  0.00  0.00    +0.000 F 
ATOM     19  F   UNL     1      15.384  52.976  45.019  0.00  0.00    +0.000 F 
ENDBRANCH  14  16
ENDBRANCH  11  14
ENDBRANCH   1  11
BRANCH   7  20
ATOM     20  O   UNL     1      13.503  43.245  45.867  0.00  0.00    +0.000 OA
BRANCH  20  21
ATOM     21  C   UNL     1      14.872  42.953  46.163  0.00  0.00    +0.000 C 
BRANCH  21  22
ATOM     22  C   UNL     1      15.507  42.209  45.008  0.00  0.00    +0.000 A 
ATOM     23  C   UNL     1      15.837  42.875  43.833  0.00  0.00    +0.000 A 
ATOM     24  C   UNL     1      16.448  42.161  42.807  0.00  0.00    +0.000 A 
ATOM     25  C   UNL     1      16.724  40.800  42.976  0.00  0.00    +0.000 A 
ATOM     26  C   UNL     1      17.339  40.038  41.968  0.00  0.00    +0.000 A 
ATOM     27  C   UNL     1      17.602  38.685  42.168  0.00  0.00    +0.000 A 
ATOM     28  C   UNL     1      17.253  38.090  43.376  0.00  0.00    +0.000 A 
ATOM     29  C   UNL     1      16.642  38.852  44.376  0.00  0.00    +0.000 A 
ATOM     30  C   UNL     1      16.368  40.202  44.203  0.00  0.00    +0.000 A 
ATOM     31  N   UNL     1      15.780  40.892  45.197  0.00  0.00    +0.000 NA
ENDBRANCH  21  22
ENDBRANCH  20  21
ENDBRANCH   7  20
TORSDOF 6
ENDMDL
MODEL 2
REMARK VINA RESULT:    -6.747      5.169      7.584
REMARK INTER + INTRA:          -9.956
REMARK INTER:                  -9.299
REMARK INTRA:                  -0.657
REMARK UNBOUND:                -0.843
REMARK  Name = 
REMARK  6 active torsions:
REMARK  status: ('A' for Active; 'I' for Inactive)
REMARK    1  A    between atoms: S_2  and  N_4
REMARK    2  A    between atoms: S_2  and  C_27
REMARK    3  A    between atoms: N_4  and  C_5
REMARK    4  A    between atoms: C_11  and  O_12
REMARK    5  A    between atoms: O_12  and  C_13
REMARK    6  A    between atoms: C_13  and  C_14
REMARK                            x       y       z     vdW  Elec       q    Type
REMARK                         _______ _______ _______ _____ _____    ______ ____
ROOT
ATOM      1  C   UNL     1      15.512  42.899  44.344  0.00  0.00    +0.000 A 
ATOM      2  C   UNL     1      16.028  42.091  43.336  0.00  0.00    +0.000 A 
ATOM      3  C   UNL     1      16.338  40.756  43.602  0.00  0.00    +0.000 A 
ATOM      4  C   UNL     1      16.134  40.216  44.881  0.00  0.00    +0.000 A 
ATOM      5  C   UNL     1      16.443  38.878  45.169  0.00  0.00    +0.000 A 
ATOM      6  C   UNL     1      16.235  38.350  46.448  0.00  0.00    +0.000 A 
ATOM      7  C   UNL     1      15.713  39.153  47.458  0.00  0.00    +0.000 A 
ATOM      8  C   UNL     1      15.402  40.488  47.181  0.00  0.00    +0.000 A 
ATOM      9  C   UNL     1      15.605  41.035  45.903  0.00  0.00    +0.000 A 
ATOM     10  C   UNL     1      15.298  42.376  45.620  0.00  0.00    +0.000 A 
ENDROOT
BRANCH   1  11
ATOM     11  N   UNL     1      15.220  44.273  44.099  0.00  0.00    +0.000 N 
ATOM     12  H   UNL     1      15.753  44.726  43.354  0.00  0.00    +0.000 HD
BRANCH  11  14
ATOM     13  O   UNL     1      13.410  45.658  42.936  0.00  0.00    +0.000 OA
ATOM     14  S   UNL     1      13.579  44.743  44.050  0.00  0.00    +0.000 S 
ATOM     15  O   UNL     1      12.859  43.478  44.049  0.00  0.00    +0.000 OA
BRANCH  14  16
ATOM     16  C   UNL     1      13.297  45.618  45.676  0.00  0.00    +0.000 C 
ATOM     17  F   UNL     1      13.112  44.748  46.706  0.00  0.00    +0.000 F 
ATOM     18  F   UNL     1      14.366  46.401  46.005  0.00  0.00    +0.000 F 
ATOM     19  F   UNL     1      12.208  46.437  45.646  0.00  0.00    +0.000 F 
ENDBRANCH  14  16
ENDBRANCH  11  14
ENDBRANCH   1  11
BRANCH   7  20
ATOM     20  O   UNL     1      15.457  38.767  48.745  0.00  0.00    +0.000 OA
BRANCH  20  21
ATOM     21  C   UNL     1      15.658  37.387  49.062  0.00  0.00    +0.000 C 
BRANCH  21  22
ATOM     22  C   UNL     1      17.009  37.195  49.718  0.00  0.00    +0.000 A 
ATOM     23  C   UNL     1      17.285  37.772  50.952  0.00  0.00    +0.000 A 
ATOM     24  C   UNL     1      18.528  37.546  51.535  0.00  0.00    +0.000 A 
ATOM     25  C   UNL     1      19.467  36.743  50.879  0.00  0.00    +0.000 A 
ATOM     26  C   UNL     1      20.735  36.487  51.428  0.00  0.00    +0.000 A 
ATOM     27  C   UNL     1      21.648  35.682  50.750  0.00  0.00    +0.000 A 
ATOM     28  C   UNL     1      21.296  35.130  49.523  0.00  0.00    +0.000 A 
ATOM     29  C   UNL     1      20.033  35.386  48.981  0.00  0.00    +0.000 A 
ATOM     30  C   UNL     1      19.104  36.186  49.635  0.00  0.00    +0.000 A 
ATOM     31  N   UNL     1      17.902  36.401  49.071  0.00  0.00    +0.000 NA
ENDBRANCH  21  22
ENDBRANCH  20  21
ENDBRANCH   7  20
TORSDOF 6
ENDMDL
MODEL 3
REMARK VINA RESULT:    -6.596      6.140      9.755
REMARK INTER + INTRA:          -9.752
REMARK INTER:                  -8.910
REMARK INTRA:                  -0.843
REMARK UNBOUND:                -0.843
REMARK  Name = 
REMARK  6 active torsions:
REMARK  status: ('A' for Active; 'I' for Inactive)
REMARK    1  A    between atoms: S_2  and  N_4
REMARK    2  A    between atoms: S_2  and  C_27
REMARK    3  A    between atoms: N_4  and  C_5
REMARK    4  A    between atoms: C_11  and  O_12
REMARK    5  A    between atoms: O_12  and  C_13
REMARK    6  A    between atoms: C_13  and  C_14
REMARK                            x       y       z     vdW  Elec       q    Type
REMARK                         _______ _______ _______ _____ _____    ______ ____
ROOT
ATOM      1  C   UNL     1      16.895  38.478  51.367  0.00  0.00    +0.000 A 
ATOM      2  C   UNL     1      17.823  37.456  51.187  0.00  0.00    +0.000 A 
ATOM      3  C   UNL     1      18.117  37.001  49.901  0.00  0.00    +0.000 A 
ATOM      4  C   UNL     1      17.487  37.563  48.781  0.00  0.00    +0.000 A 
ATOM      5  C   UNL     1      17.767  37.116  47.481  0.00  0.00    +0.000 A 
ATOM      6  C   UNL     1      17.133  37.685  46.371  0.00  0.00    +0.000 A 
ATOM      7  C   UNL     1      16.209  38.712  46.545  0.00  0.00    +0.000 A 
ATOM      8  C   UNL     1      15.922  39.164  47.837  0.00  0.00    +0.000 A 
ATOM      9  C   UNL     1      16.550  38.604  48.963  0.00  0.00    +0.000 A 
ATOM     10  C   UNL     1      16.263  39.053  50.263  0.00  0.00    +0.000 A 
ENDROOT
BRANCH   1  11
ATOM     11  N   UNL     1      16.557  38.934  52.675  0.00  0.00    +0.000 N 
ATOM     12  H   UNL     1      16.470  38.218  53.399  0.00  0.00    +0.000 HD
BRANCH  11  14
ATOM     13  O   UNL     1      17.442  40.195  54.719  0.00  0.00    +0.000 OA
ATOM     14  S   UNL     1      17.370  40.312  53.273  0.00  0.00    +0.000 S 
ATOM     15  O   UNL     1      18.602  40.348  52.499  0.00  0.00    +0.000 OA
BRANCH  14  16
ATOM     16  C   UNL     1      16.281  41.746  52.777  0.00  0.00    +0.000 C 
ATOM     17  F   UNL     1      16.319  41.985  51.438  0.00  0.00    +0.000 F 
ATOM     18  F   UNL     1      14.976  41.507  53.101  0.00  0.00    +0.000 F 
ATOM     19  F   UNL     1      16.631  42.907  53.399  0.00  0.00    +0.000 F 
ENDBRANCH  14  16
ENDBRANCH  11  14
ENDBRANCH   1  11
BRANCH   7  20
ATOM     20  O   UNL     1      15.522  39.356  45.554  0.00  0.00    +0.000 OA
BRANCH  20  21
ATOM     21  C   UNL     1      16.294  40.088  44.598  0.00  0.00    +0.000 C 
BRANCH  21  22
ATOM     22  C   UNL     1      15.820  41.525  44.537  0.00  0.00    +0.000 A 
ATOM     23  C   UNL     1      16.319  42.395  43.575  0.00  0.00    +0.000 A 
ATOM     24  C   UNL     1      15.834  43.698  43.534  0.00  0.00    +0.000 A 
ATOM     25  C   UNL     1      14.856  44.104  44.447  0.00  0.00    +0.000 A 
ATOM     26  C   UNL     1      14.336  45.411  44.444  0.00  0.00    +0.000 A 
ATOM     27  C   UNL     1      13.361  45.784  45.367  0.00  0.00    +0.000 A 
ATOM     28  C   UNL     1      12.902  44.854  46.293  0.00  0.00    +0.000 A 
ATOM     29  C   UNL     1      13.421  43.556  46.292  0.00  0.00    +0.000 A 
ATOM     30  C   UNL     1      14.394  43.157  45.384  0.00  0.00    +0.000 A 
ATOM     31  N   UNL     1      14.859  41.896  45.424  0.00  0.00    +0.000 NA
ENDBRANCH  21  22
ENDBRANCH  20  21
ENDBRANCH   7  20
TORSDOF 6
ENDMDL
