MODEL 1
REMARK VINA RESULT:    -6.820      0.000      0.000
REMARK INTER + INTRA:         -10.545
REMARK INTER:                  -8.546
REMARK INTRA:                  -1.999
REMARK UNBOUND:                -1.333
REMARK  Name = 
REMARK  8 active torsions:
REMARK  status: ('A' for Active; 'I' for Inactive)
REMARK    1  A    between atoms: C_1  and  C_2
REMARK    2  A    between atoms: C_4  and  O_5
REMARK    3  A    between atoms: O_5  and  C_6
REMARK    4  A    between atoms: C_6  and  C_7
REMARK    5  A    between atoms: C_10  and  C_11
REMARK    6  A    between atoms: C_16  and  C_17
REMARK    7  A    between atoms: C_24  and  C_25
REMARK    8  A    between atoms: C_31  and  C_32
REMARK                            x       y       z     vdW  Elec       q    Type
REMARK                         _______ _______ _______ _____ _____    ______ ____
ROOT
ATOM      1  C   UNL     1      18.954  36.652  50.533  0.00  0.00    +0.000 A 
ATOM      2  C   UNL     1      19.295  35.790  49.483  0.00  0.00    +0.000 A 
ATOM      3  C   UNL     1      20.555  35.189  49.441  0.00  0.00    +0.000 A 
ATOM      4  C   UNL     1      21.506  35.448  50.437  0.00  0.00    +0.000 A 
ATOM      5  C   UNL     1      21.181  36.351  51.458  0.00  0.00    +0.000 A 
ATOM      6  C   UNL     1      19.919  36.949  51.505  0.00  0.00    +0.000 A 
ENDROOT
BRANCH   4   7
ATOM      7  C   UNL     1      22.814  34.776  50.413  0.00  0.00    +0.000 A 
ATOM      8  C   UNL     1      23.824  35.312  49.588  0.00  0.00    +0.000 A 
ATOM      9  C   UNL     1      25.072  34.698  49.476  0.00  0.00    +0.000 A 
ATOM     10  C   UNL     1      25.335  33.532  50.186  0.00  0.00    +0.000 A 
ATOM     11  C   UNL     1      24.353  32.985  51.011  0.00  0.00    +0.000 A 
ATOM     12  C   UNL     1      23.091  33.598  51.146  0.00  0.00    +0.000 A 
BRANCH  12  13
ATOM     13  C   UNL     1      22.119  32.989  52.051  0.00  0.00    +0.000 A 
ATOM     14  N   UNL     1      22.185  33.087  53.422  0.00  0.00    +0.000 NA
ATOM     15  N   UNL     1      21.164  32.398  53.910  0.00  0.00    +0.000 NA
ATOM     16  N   UNL     1      20.539  31.919  52.831  0.00  0.00    +0.000 N 
ATOM     17  N   UNL     1      21.088  32.222  51.645  0.00  0.00    +0.000 NA
ATOM     18  H   UNL     1      19.699  31.352  52.910  0.00  0.00    +0.000 HD
ENDBRANCH  12  13
ENDBRANCH   4   7
BRANCH   1  19
ATOM     19  C   UNL     1      17.579  37.278  50.625  0.00  0.00    +0.000 C 
BRANCH  19  20
ATOM     20  O   UNL     1      16.959  37.112  51.903  0.00  0.00    +0.000 OA
BRANCH  20  24
ATOM     21  C   UNL     1      16.711  41.937  52.976  0.00  0.00    +0.000 C 
ATOM     22  C   UNL     1      16.820  40.493  53.368  0.00  0.00    +0.000 A 
ATOM     23  C   UNL     1      16.816  39.507  52.390  0.00  0.00    +0.000 A 
ATOM     24  C   UNL     1      16.927  38.173  52.777  0.00  0.00    +0.000 A 
ATOM     25  C   UNL     1      17.056  37.849  54.142  0.00  0.00    +0.000 A 
ATOM     26  C   UNL     1      17.047  38.915  55.058  0.00  0.00    +0.000 A 
ATOM     27  C   UNL     1      17.179  38.684  56.538  0.00  0.00    +0.000 C 
ATOM     28  N   UNL     1      16.926  40.215  54.684  0.00  0.00    +0.000 NA
BRANCH  25  29
ATOM     29  C   UNL     1      17.196  36.453  54.583  0.00  0.00    +0.000 A 
ATOM     30  C   UNL     1      16.071  35.688  54.908  0.00  0.00    +0.000 A 
ATOM     31  C   UNL     1      16.251  34.376  55.315  0.00  0.00    +0.000 A 
ATOM     32  N   UNL     1      17.459  33.781  55.419  0.00  0.00    +0.000 NA
ATOM     33  C   UNL     1      18.534  34.536  55.110  0.00  0.00    +0.000 A 
ATOM     34  C   UNL     1      18.455  35.856  54.695  0.00  0.00    +0.000 A 
ENDBRANCH  25  29
ENDBRANCH  20  24
ENDBRANCH  19  20
ENDBRANCH   1  19
TORSDOF 6
ENDMDL
MODEL 2
REMARK VINA RESULT:    -6.768      9.849     13.096
REMARK INTER + INTRA:         -10.474
REMARK INTER:                  -9.141
REMARK INTRA:                  -1.333
REMARK UNBOUND:                -1.333
REMARK  Name = 
REMARK  8 active torsions:
REMARK  status: ('A' for Active; 'I' for Inactive)
REMARK    1  A    between atoms: C_1  and  C_2
REMARK    2  A    between atoms: C_4  and  O_5
REMARK    3  A    between atoms: O_5  and  C_6
REMARK    4  A    between atoms: C_6  and  C_7
REMARK    5  A    between atoms: C_10  and  C_11
REMARK    6  A    between atoms: C_16  and  C_17
REMARK    7  A    between atoms: C_24  and  C_25
REMARK    8  A    between atoms: C_31  and  C_32
REMARK                            x       y       z     vdW  Elec       q    Type
REMARK                         _______ _______ _______ _____ _____    ______ ____
ROOT
ATOM      1  C   UNL     1      14.466  43.941  43.140  0.00  0.00    +0.000 A 
ATOM      2  C   UNL     1      13.807  42.767  42.757  0.00  0.00    +0.000 A 
ATOM      3  C   UNL     1      14.499  41.555  42.692  0.00  0.00    +0.000 A 
ATOM      4  C   UNL     1      15.866  41.493  42.994  0.00  0.00    +0.000 A 
ATOM      5  C   UNL     1      16.535  42.679  43.326  0.00  0.00    +0.000 A 
ATOM      6  C   UNL     1      15.843  43.891  43.397  0.00  0.00    +0.000 A 
ENDROOT
BRANCH   4   7
ATOM      7  C   UNL     1      16.578  40.207  42.970  0.00  0.00    +0.000 A 
ATOM      8  C   UNL     1      17.316  39.874  41.815  0.00  0.00    +0.000 A 
ATOM      9  C   UNL     1      17.974  38.649  41.702  0.00  0.00    +0.000 A 
ATOM     10  C   UNL     1      17.906  37.729  42.742  0.00  0.00    +0.000 A 
ATOM     11  C   UNL     1      17.186  38.037  43.896  0.00  0.00    +0.000 A 
ATOM     12  C   UNL     1      16.525  39.274  44.033  0.00  0.00    +0.000 A 
BRANCH  12  13
ATOM     13  C   UNL     1      15.814  39.545  45.280  0.00  0.00    +0.000 A 
ATOM     14  N   UNL     1      14.524  39.135  45.529  0.00  0.00    +0.000 NA
ATOM     15  N   UNL     1      14.203  39.576  46.736  0.00  0.00    +0.000 NA
ATOM     16  N   UNL     1      15.292  40.225  47.155  0.00  0.00    +0.000 N 
ATOM     17  N   UNL     1      16.322  40.270  46.296  0.00  0.00    +0.000 NA
ATOM     18  H   UNL     1      15.332  40.665  48.071  0.00  0.00    +0.000 HD
ENDBRANCH  12  13
ENDBRANCH   4   7
BRANCH   1  19
ATOM     19  C   UNL     1      13.728  45.256  43.262  0.00  0.00    +0.000 C 
BRANCH  19  20
ATOM     20  O   UNL     1      14.088  46.010  44.423  0.00  0.00    +0.000 OA
BRANCH  20  24
ATOM     21  C   UNL     1      10.636  44.628  47.690  0.00  0.00    +0.000 C 
ATOM     22  C   UNL     1      11.446  45.668  46.972  0.00  0.00    +0.000 A 
ATOM     23  C   UNL     1      12.401  45.282  46.041  0.00  0.00    +0.000 A 
ATOM     24  C   UNL     1      13.135  46.265  45.380  0.00  0.00    +0.000 A 
ATOM     25  C   UNL     1      12.889  47.625  45.656  0.00  0.00    +0.000 A 
ATOM     26  C   UNL     1      11.905  47.918  46.616  0.00  0.00    +0.000 A 
ATOM     27  C   UNL     1      11.561  49.334  46.986  0.00  0.00    +0.000 C 
ATOM     28  N   UNL     1      11.197  46.960  47.270  0.00  0.00    +0.000 NA
BRANCH  25  29
ATOM     29  C   UNL     1      13.631  48.688  44.962  0.00  0.00    +0.000 A 
ATOM     30  C   UNL     1      14.981  48.922  45.245  0.00  0.00    +0.000 A 
ATOM     31  C   UNL     1      15.640  49.932  44.564  0.00  0.00    +0.000 A 
ATOM     32  N   UNL     1      15.056  50.715  43.632  0.00  0.00    +0.000 NA
ATOM     33  C   UNL     1      13.751  50.482  43.378  0.00  0.00    +0.000 A 
ATOM     34  C   UNL     1      13.008  49.497  44.007  0.00  0.00    +0.000 A 
ENDBRANCH  25  29
ENDBRANCH  20  24
ENDBRANCH  19  20
ENDBRANCH   1  19
TORSDOF 6
ENDMDL
MODEL 3
REMARK VINA RESULT:    -6.730      6.842     10.276
REMARK INTER + INTRA:         -10.423
REMARK INTER:                  -8.741
REMARK INTRA:                  -1.683
REMARK UNBOUND:                -1.333
REMARK  Name = 
REMARK  8 active torsions:
REMARK  status: ('A' for Active; 'I' for Inactive)
REMARK    1  A    between atoms: C_1  and  C_2
REMARK    2  A    between atoms: C_4  and  O_5
REMARK    3  A    between atoms: O_5  and  C_6
REMARK    4  A    between atoms: C_6  and  C_7
REMARK    5  A    between atoms: C_10  and  C_11
REMARK    6  A    between atoms: C_16  and  C_17
REMARK    7  A    between atoms: C_24  and  C_25
REMARK    8  A    between atoms: C_31  and  C_32
REMARK                            x       y       z     vdW  Elec       q    Type
REMARK                         _______ _______ _______ _____ _____    ______ ____
ROOT
ATOM      1  C   UNL     1      13.011  41.021  49.492  0.00  0.00    +0.000 A 
ATOM      2  C   UNL     1      14.365  40.709  49.319  0.00  0.00    +0.000 A 
ATOM      3  C   UNL     1      15.158  40.361  50.415  0.00  0.00    +0.000 A 
ATOM      4  C   UNL     1      14.620  40.331  51.708  0.00  0.00    +0.000 A 
ATOM      5  C   UNL     1      13.278  40.694  51.886  0.00  0.00    +0.000 A 
ATOM      6  C   UNL     1      12.482  41.037  50.790  0.00  0.00    +0.000 A 
ENDROOT
BRANCH   4   7
ATOM      7  C   UNL     1      15.447  39.917  52.852  0.00  0.00    +0.000 A 
ATOM      8  C   UNL     1      15.687  38.540  53.037  0.00  0.00    +0.000 A 
ATOM      9  C   UNL     1      16.420  38.072  54.129  0.00  0.00    +0.000 A 
ATOM     10  C   UNL     1      16.924  38.972  55.060  0.00  0.00    +0.000 A 
ATOM     11  C   UNL     1      16.702  40.339  54.896  0.00  0.00    +0.000 A 
ATOM     12  C   UNL     1      15.976  40.831  53.793  0.00  0.00    +0.000 A 
BRANCH  12  13
ATOM     13  C   UNL     1      15.806  42.276  53.665  0.00  0.00    +0.000 A 
ATOM     14  N   UNL     1      15.022  43.032  54.508  0.00  0.00    +0.000 NA
ATOM     15  N   UNL     1      15.085  44.283  54.079  0.00  0.00    +0.000 NA
ATOM     16  N   UNL     1      15.887  44.230  53.012  0.00  0.00    +0.000 N 
ATOM     17  N   UNL     1      16.351  43.016  52.680  0.00  0.00    +0.000 NA
ATOM     18  H   UNL     1      16.124  45.064  52.481  0.00  0.00    +0.000 HD
ENDBRANCH  12  13
ENDBRANCH   4   7
BRANCH   1  19
ATOM     19  C   UNL     1      12.121  41.356  48.315  0.00  0.00    +0.000 C 
BRANCH  19  20
ATOM     20  O   UNL     1      12.778  41.240  47.050  0.00  0.00    +0.000 OA
BRANCH  20  24
ATOM     21  C   UNL     1      12.773  46.102  46.125  0.00  0.00    +0.000 C 
ATOM     22  C   UNL     1      13.314  44.715  45.940  0.00  0.00    +0.000 A 
ATOM     23  C   UNL     1      12.751  43.652  46.634  0.00  0.00    +0.000 A 
ATOM     24  C   UNL     1      13.265  42.372  46.439  0.00  0.00    +0.000 A 
ATOM     25  C   UNL     1      14.329  42.175  45.537  0.00  0.00    +0.000 A 
ATOM     26  C   UNL     1      14.834  43.311  44.882  0.00  0.00    +0.000 A 
ATOM     27  C   UNL     1      15.967  43.215  43.898  0.00  0.00    +0.000 C 
ATOM     28  N   UNL     1      14.343  44.562  45.080  0.00  0.00    +0.000 NA
BRANCH  25  29
ATOM     29  C   UNL     1      14.880  40.833  45.293  0.00  0.00    +0.000 A 
ATOM     30  C   UNL     1      14.358  40.016  44.285  0.00  0.00    +0.000 A 
ATOM     31  C   UNL     1      14.911  38.761  44.090  0.00  0.00    +0.000 A 
ATOM     32  N   UNL     1      15.937  38.270  44.818  0.00  0.00    +0.000 NA
ATOM     33  C   UNL     1      16.423  39.068  45.792  0.00  0.00    +0.000 A 
ATOM     34  C   UNL     1      15.936  40.337  46.064  0.00  0.00    +0.000 A 
ENDBRANCH  25  29
ENDBRANCH  20  24
ENDBRANCH  19  20
ENDBRANCH   1  19
TORSDOF 6
ENDMDL
