MODEL 1
REMARK VINA RESULT:    -7.517      0.000      0.000
REMARK INTER + INTRA:          -8.099
REMARK INTER:                  -7.873
REMARK INTRA:                  -0.226
REMARK UNBOUND:                -0.142
REMARK  Name = 
REMARK  3 active torsions:
REMARK  status: ('A' for Active; 'I' for Inactive)
REMARK    1  A    between atoms: C_1  and  C_2
REMARK    2  A    between atoms: C_15  and  C_16
REMARK    3  A    between atoms: C_20  and  C_21
REMARK                            x       y       z     vdW  Elec       q    Type
REMARK                         _______ _______ _______ _____ _____    ______ ____
ROOT
ATOM      1  C   UNL     1      12.853  41.128  43.532  0.00  0.00    +0.000 C 
ATOM      2  C   UNL     1      13.887  41.404  44.647  0.00  0.00    +0.000 C 
ATOM      3  C   UNL     1      15.244  40.916  44.148  0.00  0.00    +0.000 C 
ATOM      4  C   UNL     1      16.131  40.291  44.936  0.00  0.00    +0.000 C 
ATOM      5  C   UNL     1      15.868  40.063  46.373  0.00  0.00    +0.000 C 
ATOM      6  O   UNL     1      16.725  39.600  47.114  0.00  0.00    +0.000 OA
ATOM      7  N   UNL     1      14.625  40.410  46.822  0.00  0.00    +0.000 N 
ATOM      8  C   UNL     1      13.497  40.564  45.911  0.00  0.00    +0.000 C 
ATOM      9  C   UNL     1      12.281  41.120  46.656  0.00  0.00    +0.000 C 
ATOM     10  C   UNL     1      12.427  42.599  46.998  0.00  0.00    +0.000 C 
ATOM     11  C   UNL     1      12.704  43.441  45.746  0.00  0.00    +0.000 C 
ATOM     12  C   UNL     1      13.979  42.928  45.010  0.00  0.00    +0.000 C 
ATOM     13  C   UNL     1      14.358  43.844  43.813  0.00  0.00    +0.000 C 
ATOM     14  C   UNL     1      14.453  45.331  44.197  0.00  0.00    +0.000 C 
ATOM     15  C   UNL     1      13.164  45.822  44.870  0.00  0.00    +0.000 C 
ATOM     16  C   UNL     1      11.995  45.803  43.848  0.00  0.00    +0.000 C 
ATOM     17  C   UNL     1      12.899  44.920  46.100  0.00  0.00    +0.000 C 
ATOM     18  C   UNL     1      11.787  45.657  46.837  0.00  0.00    +0.000 C 
ATOM     19  C   UNL     1      12.129  47.144  46.625  0.00  0.00    +0.000 C 
ATOM     20  C   UNL     1      13.294  47.191  45.604  0.00  0.00    +0.000 C 
ATOM     21  H   UNL     1      14.456  40.102  47.772  0.00  0.00    +0.000 HD
ENDROOT
BRANCH  20  22
ATOM     22  C   UNL     1      13.276  48.444  44.736  0.00  0.00    +0.000 C 
ATOM     23  O   UNL     1      12.300  48.850  44.118  0.00  0.00    +0.000 OA
ATOM     24  N   UNL     1      14.501  49.160  44.647  0.00  0.00    +0.000 N 
ATOM     25  C   UNL     1      15.734  48.779  45.160  0.00  0.00    +0.000 A 
ATOM     26  C   UNL     1      16.675  49.738  44.872  0.00  0.00    +0.000 A 
ATOM     27  C   UNL     1      16.031  50.760  44.141  0.00  0.00    +0.000 A 
ATOM     28  C   UNL     1      16.484  51.973  43.582  0.00  0.00    +0.000 A 
ATOM     29  C   UNL     1      15.588  52.796  42.896  0.00  0.00    +0.000 A 
ATOM     30  C   UNL     1      14.256  52.427  42.762  0.00  0.00    +0.000 A 
ATOM     31  C   UNL     1      13.786  51.229  43.309  0.00  0.00    +0.000 A 
ATOM     32  C   UNL     1      14.688  50.394  44.000  0.00  0.00    +0.000 A 
ENDBRANCH  20  22
TORSDOF 1
ENDMDL
MODEL 2
REMARK VINA RESULT:    -6.840      3.349      7.762
REMARK INTER + INTRA:          -7.382
REMARK INTER:                  -7.240
REMARK INTRA:                  -0.142
REMARK UNBOUND:                -0.142
REMARK  Name = 
REMARK  3 active torsions:
REMARK  status: ('A' for Active; 'I' for Inactive)
REMARK    1  A    between atoms: C_1  and  C_2
REMARK    2  A    between atoms: C_15  and  C_16
REMARK    3  A    between atoms: C_20  and  C_21
REMARK                            x       y       z     vdW  Elec       q    Type
REMARK                         _______ _______ _______ _____ _____    ______ ____
ROOT
ATOM      1  C   UNL     1       7.735  46.232  47.157  0.00  0.00    +0.000 C 
ATOM      2  C   UNL     1       8.773  46.274  48.300  0.00  0.00    +0.000 C 
ATOM      3  C   UNL     1       8.376  45.213  49.323  0.00  0.00    +0.000 C 
ATOM      4  C   UNL     1       8.474  45.402  50.647  0.00  0.00    +0.000 C 
ATOM      5  C   UNL     1       9.019  46.654  51.215  0.00  0.00    +0.000 C 
ATOM      6  O   UNL     1       9.216  46.777  52.417  0.00  0.00    +0.000 OA
ATOM      7  N   UNL     1       9.297  47.651  50.324  0.00  0.00    +0.000 N 
ATOM      8  C   UNL     1       8.699  47.677  48.993  0.00  0.00    +0.000 C 
ATOM      9  C   UNL     1       9.315  48.800  48.154  0.00  0.00    +0.000 C 
ATOM     10  C   UNL     1      10.734  48.482  47.698  0.00  0.00    +0.000 C 
ATOM     11  C   UNL     1      10.794  47.159  46.925  0.00  0.00    +0.000 C 
ATOM     12  C   UNL     1      10.231  45.991  47.791  0.00  0.00    +0.000 C 
ATOM     13  C   UNL     1      10.401  44.618  47.084  0.00  0.00    +0.000 C 
ATOM     14  C   UNL     1      11.840  44.359  46.604  0.00  0.00    +0.000 C 
ATOM     15  C   UNL     1      12.349  45.498  45.709  0.00  0.00    +0.000 C 
ATOM     16  C   UNL     1      11.541  45.527  44.383  0.00  0.00    +0.000 C 
ATOM     17  C   UNL     1      12.231  46.817  46.511  0.00  0.00    +0.000 C 
ATOM     18  C   UNL     1      13.009  47.812  45.657  0.00  0.00    +0.000 C 
ATOM     19  C   UNL     1      14.174  46.976  45.092  0.00  0.00    +0.000 C 
ATOM     20  C   UNL     1      13.889  45.501  45.473  0.00  0.00    +0.000 C 
ATOM     21  H   UNL     1       9.529  48.524  50.780  0.00  0.00    +0.000 HD
ENDROOT
BRANCH  20  22
ATOM     22  C   UNL     1      14.433  44.507  44.454  0.00  0.00    +0.000 C 
ATOM     23  O   UNL     1      14.527  44.720  43.252  0.00  0.00    +0.000 OA
ATOM     24  N   UNL     1      14.835  43.244  44.968  0.00  0.00    +0.000 N 
ATOM     25  C   UNL     1      14.673  42.776  46.266  0.00  0.00    +0.000 A 
ATOM     26  C   UNL     1      15.194  41.510  46.373  0.00  0.00    +0.000 A 
ATOM     27  C   UNL     1      15.695  41.146  45.105  0.00  0.00    +0.000 A 
ATOM     28  C   UNL     1      16.327  39.983  44.618  0.00  0.00    +0.000 A 
ATOM     29  C   UNL     1      16.717  39.916  43.278  0.00  0.00    +0.000 A 
ATOM     30  C   UNL     1      16.487  40.988  42.426  0.00  0.00    +0.000 A 
ATOM     31  C   UNL     1      15.863  42.150  42.887  0.00  0.00    +0.000 A 
ATOM     32  C   UNL     1      15.465  42.221  44.238  0.00  0.00    +0.000 A 
ENDBRANCH  20  22
TORSDOF 1
ENDMDL
MODEL 3
REMARK VINA RESULT:    -6.809      4.415     10.451
REMARK INTER + INTRA:          -7.350
REMARK INTER:                  -7.079
REMARK INTRA:                  -0.271
REMARK UNBOUND:                -0.142
REMARK  Name = 
REMARK  3 active torsions:
REMARK  status: ('A' for Active; 'I' for Inactive)
REMARK    1  A    between atoms: C_1  and  C_2
REMARK    2  A    between atoms: C_15  and  C_16
REMARK    3  A    between atoms: C_20  and  C_21
REMARK                            x       y       z     vdW  Elec       q    Type
REMARK                         _______ _______ _______ _____ _____    ______ ____
ROOT
ATOM      1  C   UNL     1      11.784  41.458  45.555  0.00  0.00    +0.000 C 
ATOM      2  C   UNL     1      12.995  42.385  45.801  0.00  0.00    +0.000 C 
ATOM      3  C   UNL     1      12.484  43.628  46.525  0.00  0.00    +0.000 C 
ATOM      4  C   UNL     1      12.932  44.864  46.260  0.00  0.00    +0.000 C 
ATOM      5  C   UNL     1      13.996  45.107  45.261  0.00  0.00    +0.000 C 
ATOM      6  O   UNL     1      14.484  46.219  45.106  0.00  0.00    +0.000 OA
ATOM      7  N   UNL     1      14.405  44.023  44.538  0.00  0.00    +0.000 N 
ATOM      8  C   UNL     1      13.578  42.828  44.416  0.00  0.00    +0.000 C 
ATOM      9  C   UNL     1      14.349  41.716  43.700  0.00  0.00    +0.000 C 
ATOM     10  C   UNL     1      15.426  41.089  44.578  0.00  0.00    +0.000 C 
ATOM     11  C   UNL     1      14.841  40.558  45.893  0.00  0.00    +0.000 C 
ATOM     12  C   UNL     1      14.108  41.695  46.667  0.00  0.00    +0.000 C 
ATOM     13  C   UNL     1      13.620  41.217  48.063  0.00  0.00    +0.000 C 
ATOM     14  C   UNL     1      14.730  40.554  48.897  0.00  0.00    +0.000 C 
ATOM     15  C   UNL     1      15.398  39.403  48.131  0.00  0.00    +0.000 C 
ATOM     16  C   UNL     1      14.382  38.247  47.926  0.00  0.00    +0.000 C 
ATOM     17  C   UNL     1      15.935  39.973  46.796  0.00  0.00    +0.000 C 
ATOM     18  C   UNL     1      16.806  38.841  46.262  0.00  0.00    +0.000 C 
ATOM     19  C   UNL     1      17.444  38.241  47.529  0.00  0.00    +0.000 C 
ATOM     20  C   UNL     1      16.747  38.914  48.739  0.00  0.00    +0.000 C 
ATOM     21  H   UNL     1      15.026  44.275  43.780  0.00  0.00    +0.000 HD
ENDROOT
BRANCH  20  22
ATOM     22  C   UNL     1      16.665  38.006  49.961  0.00  0.00    +0.000 C 
ATOM     23  O   UNL     1      16.364  36.819  49.928  0.00  0.00    +0.000 OA
ATOM     24  N   UNL     1      16.947  38.616  51.213  0.00  0.00    +0.000 N 
ATOM     25  C   UNL     1      17.166  39.966  51.458  0.00  0.00    +0.000 A 
ATOM     26  C   UNL     1      17.409  40.164  52.795  0.00  0.00    +0.000 A 
ATOM     27  C   UNL     1      17.332  38.906  53.433  0.00  0.00    +0.000 A 
ATOM     28  C   UNL     1      17.484  38.497  54.773  0.00  0.00    +0.000 A 
ATOM     29  C   UNL     1      17.344  37.148  55.107  0.00  0.00    +0.000 A 
ATOM     30  C   UNL     1      17.056  36.209  54.124  0.00  0.00    +0.000 A 
ATOM     31  C   UNL     1      16.901  36.592  52.789  0.00  0.00    +0.000 A 
ATOM     32  C   UNL     1      17.039  37.954  52.450  0.00  0.00    +0.000 A 
ENDBRANCH  20  22
TORSDOF 1
ENDMDL
