MODEL 1
REMARK VINA RESULT:    -7.643      0.000      0.000
REMARK INTER + INTRA:          -8.820
REMARK INTER:                  -8.207
REMARK INTRA:                  -0.612
REMARK UNBOUND:                -0.283
REMARK  Name = 
REMARK  2 active torsions:
REMARK  status: ('A' for Active; 'I' for Inactive)
REMARK    1  A    between atoms: C_4  and  C_5
REMARK    2  A    between atoms: C_8  and  C_9
REMARK                            x       y       z     vdW  Elec       q    Type
REMARK                         _______ _______ _______ _____ _____    ______ ____
ROOT
ATOM      1  O   UNL     1      14.553  49.149  45.067  0.00  0.00    +0.000 OA
ATOM      2  C   UNL     1      13.946  48.150  45.423  0.00  0.00    +0.000 C 
ATOM      3  C   UNL     1      14.433  46.807  45.062  0.00  0.00    +0.000 C 
ATOM      4  C   UNL     1      13.795  45.683  45.431  0.00  0.00    +0.000 C 
ATOM      5  C   UNL     1      12.549  45.758  46.234  0.00  0.00    +0.000 A 
ATOM      6  C   UNL     1      11.877  44.587  46.624  0.00  0.00    +0.000 A 
ATOM      7  C   UNL     1      10.702  44.646  47.381  0.00  0.00    +0.000 A 
ATOM      8  C   UNL     1      10.176  45.877  47.762  0.00  0.00    +0.000 A 
ATOM      9  C   UNL     1      10.825  47.050  47.387  0.00  0.00    +0.000 A 
ATOM     10  C   UNL     1      12.003  46.988  46.628  0.00  0.00    +0.000 A 
ATOM     11  C   UNL     1      12.672  48.246  46.243  0.00  0.00    +0.000 C 
ATOM     12  O   UNL     1      12.223  49.335  46.571  0.00  0.00    +0.000 OA
ENDROOT
BRANCH   4  13
ATOM     13  C   UNL     1      14.435  44.432  44.974  0.00  0.00    +0.000 A 
ATOM     14  C   UNL     1      14.737  44.247  43.621  0.00  0.00    +0.000 A 
ATOM     15  C   UNL     1      15.342  43.061  43.192  0.00  0.00    +0.000 A 
ATOM     16  C   UNL     1      15.658  42.036  44.099  0.00  0.00    +0.000 A 
ATOM     17  C   UNL     1      15.350  42.237  45.455  0.00  0.00    +0.000 A 
ATOM     18  C   UNL     1      14.746  43.422  45.890  0.00  0.00    +0.000 A 
BRANCH  16  19
ATOM     19  C   UNL     1      16.295  40.789  43.644  0.00  0.00    +0.000 A 
ATOM     20  C   UNL     1      16.346  39.657  44.473  0.00  0.00    +0.000 A 
ATOM     21  C   UNL     1      16.949  38.473  44.042  0.00  0.00    +0.000 A 
ATOM     22  C   UNL     1      17.514  38.401  42.771  0.00  0.00    +0.000 A 
ATOM     23  C   UNL     1      17.474  39.512  41.932  0.00  0.00    +0.000 A 
ATOM     24  C   UNL     1      16.870  40.695  42.365  0.00  0.00    +0.000 A 
ENDBRANCH  16  19
ENDBRANCH   4  13
TORSDOF 2
ENDMDL
MODEL 2
REMARK VINA RESULT:    -7.411      1.412      2.955
REMARK INTER + INTRA:          -8.560
REMARK INTER:                  -7.674
REMARK INTRA:                  -0.886
REMARK UNBOUND:                -0.283
REMARK  Name = 
REMARK  2 active torsions:
REMARK  status: ('A' for Active; 'I' for Inactive)
REMARK    1  A    between atoms: C_4  and  C_5
REMARK    2  A    between atoms: C_8  and  C_9
REMARK                            x       y       z     vdW  Elec       q    Type
REMARK                         _______ _______ _______ _____ _____    ______ ____
ROOT
ATOM      1  O   UNL     1       9.994  44.733  48.038  0.00  0.00    +0.000 OA
ATOM      2  C   UNL     1      10.927  45.177  47.386  0.00  0.00    +0.000 C 
ATOM      3  C   UNL     1      11.863  44.269  46.699  0.00  0.00    +0.000 C 
ATOM      4  C   UNL     1      12.902  44.715  45.973  0.00  0.00    +0.000 C 
ATOM      5  C   UNL     1      13.148  46.172  45.833  0.00  0.00    +0.000 A 
ATOM      6  C   UNL     1      14.233  46.645  45.074  0.00  0.00    +0.000 A 
ATOM      7  C   UNL     1      14.473  48.016  44.936  0.00  0.00    +0.000 A 
ATOM      8  C   UNL     1      13.636  48.940  45.554  0.00  0.00    +0.000 A 
ATOM      9  C   UNL     1      12.556  48.494  46.310  0.00  0.00    +0.000 A 
ATOM     10  C   UNL     1      12.316  47.118  46.447  0.00  0.00    +0.000 A 
ATOM     11  C   UNL     1      11.165  46.671  47.254  0.00  0.00    +0.000 C 
ATOM     12  O   UNL     1      10.419  47.471  47.802  0.00  0.00    +0.000 OA
ENDROOT
BRANCH   4  13
ATOM     13  C   UNL     1      13.729  43.653  45.362  0.00  0.00    +0.000 A 
ATOM     14  C   UNL     1      13.505  43.256  44.040  0.00  0.00    +0.000 A 
ATOM     15  C   UNL     1      14.288  42.250  43.465  0.00  0.00    +0.000 A 
ATOM     16  C   UNL     1      15.310  41.618  44.194  0.00  0.00    +0.000 A 
ATOM     17  C   UNL     1      15.523  42.029  45.521  0.00  0.00    +0.000 A 
ATOM     18  C   UNL     1      14.744  43.035  46.100  0.00  0.00    +0.000 A 
BRANCH  16  19
ATOM     19  C   UNL     1      16.132  40.560  43.586  0.00  0.00    +0.000 A 
ATOM     20  C   UNL     1      16.726  40.738  42.326  0.00  0.00    +0.000 A 
ATOM     21  C   UNL     1      17.509  39.734  41.749  0.00  0.00    +0.000 A 
ATOM     22  C   UNL     1      17.710  38.533  42.423  0.00  0.00    +0.000 A 
ATOM     23  C   UNL     1      17.131  38.335  43.674  0.00  0.00    +0.000 A 
ATOM     24  C   UNL     1      16.349  39.341  44.250  0.00  0.00    +0.000 A 
ENDBRANCH  16  19
ENDBRANCH   4  13
TORSDOF 2
ENDMDL
MODEL 3
REMARK VINA RESULT:    -7.170      3.681      8.490
REMARK INTER + INTRA:          -8.292
REMARK INTER:                  -8.009
REMARK INTRA:                  -0.283
REMARK UNBOUND:                -0.283
REMARK  Name = 
REMARK  2 active torsions:
REMARK  status: ('A' for Active; 'I' for Inactive)
REMARK    1  A    between atoms: C_4  and  C_5
REMARK    2  A    between atoms: C_8  and  C_9
REMARK                            x       y       z     vdW  Elec       q    Type
REMARK                         _______ _______ _______ _____ _____    ______ ____
ROOT
ATOM      1  O   UNL     1      17.308  39.019  40.931  0.00  0.00    +0.000 OA
ATOM      2  C   UNL     1      17.149  39.114  42.140  0.00  0.00    +0.000 C 
ATOM      3  C   UNL     1      16.512  40.308  42.723  0.00  0.00    +0.000 C 
ATOM      4  C   UNL     1      16.319  40.453  44.044  0.00  0.00    +0.000 C 
ATOM      5  C   UNL     1      16.752  39.390  44.985  0.00  0.00    +0.000 A 
ATOM      6  C   UNL     1      16.553  39.534  46.369  0.00  0.00    +0.000 A 
ATOM      7  C   UNL     1      16.957  38.538  47.264  0.00  0.00    +0.000 A 
ATOM      8  C   UNL     1      17.568  37.379  46.794  0.00  0.00    +0.000 A 
ATOM      9  C   UNL     1      17.774  37.215  45.428  0.00  0.00    +0.000 A 
ATOM     10  C   UNL     1      17.369  38.215  44.531  0.00  0.00    +0.000 A 
ATOM     11  C   UNL     1      17.599  38.016  43.088  0.00  0.00    +0.000 C 
ATOM     12  O   UNL     1      18.133  37.003  42.659  0.00  0.00    +0.000 OA
ENDROOT
BRANCH   4  13
ATOM     13  C   UNL     1      15.666  41.718  44.438  0.00  0.00    +0.000 A 
ATOM     14  C   UNL     1      14.863  41.773  45.582  0.00  0.00    +0.000 A 
ATOM     15  C   UNL     1      14.246  42.973  45.951  0.00  0.00    +0.000 A 
ATOM     16  C   UNL     1      14.413  44.141  45.189  0.00  0.00    +0.000 A 
ATOM     17  C   UNL     1      15.223  44.071  44.043  0.00  0.00    +0.000 A 
ATOM     18  C   UNL     1      15.844  42.874  43.670  0.00  0.00    +0.000 A 
BRANCH  16  19
ATOM     19  C   UNL     1      13.762  45.402  45.580  0.00  0.00    +0.000 A 
ATOM     20  C   UNL     1      12.575  45.402  46.333  0.00  0.00    +0.000 A 
ATOM     21  C   UNL     1      11.957  46.597  46.706  0.00  0.00    +0.000 A 
ATOM     22  C   UNL     1      12.515  47.817  46.330  0.00  0.00    +0.000 A 
ATOM     23  C   UNL     1      13.690  47.841  45.584  0.00  0.00    +0.000 A 
ATOM     24  C   UNL     1      14.308  46.643  45.213  0.00  0.00    +0.000 A 
ENDBRANCH  16  19
ENDBRANCH   4  13
TORSDOF 2
ENDMDL
