MODEL 1
REMARK VINA RESULT:    -7.084      0.000      0.000
REMARK INTER + INTRA:         -13.499
REMARK INTER:                 -11.166
REMARK INTRA:                  -2.333
REMARK UNBOUND:                -1.860
REMARK  Name = 
REMARK  13 active torsions:
REMARK  status: ('A' for Active; 'I' for Inactive)
REMARK    1  A    between atoms: C_1  and  N_2
REMARK    2  A    between atoms: N_2  and  C_3
REMARK    3  A    between atoms: N_2  and  C_16
REMARK    4  A    between atoms: C_3  and  C_4
REMARK    5  A    between atoms: C_12  and  N_13
REMARK    6  A    between atoms: C_19  and  C_20
REMARK    7  A    between atoms: N_22  and  CA_23
REMARK    8  A    between atoms: CA_23  and  C_24
REMARK    9  A    between atoms: CA_23  and  C_38
REMARK   10  A    between atoms: C_24  and  C_25
REMARK   11  A    between atoms: C_25  and  C_26
REMARK   12  A    between atoms: N_28  and  C_29
REMARK   13  A    between atoms: C_38  and  OXT_40
REMARK                            x       y       z     vdW  Elec       q    Type
REMARK                         _______ _______ _______ _____ _____    ______ ____
ROOT
ATOM      1  C   UNL     1      18.665  37.309  51.018  0.00  0.00    +0.000 A 
ATOM      2  C   UNL     1      18.554  36.438  49.919  0.00  0.00    +0.000 A 
ATOM      3  C   UNL     1      19.569  35.529  49.583  0.00  0.00    +0.000 A 
ATOM      4  C   UNL     1      20.725  35.450  50.359  0.00  0.00    +0.000 A 
ATOM      5  C   UNL     1      20.851  36.276  51.472  0.00  0.00    +0.000 A 
ATOM      6  C   UNL     1      19.831  37.181  51.796  0.00  0.00    +0.000 A 
ENDROOT
BRANCH   4   7
ATOM      7  C   UNL     1      21.843  34.536  50.008  0.00  0.00    +0.000 C 
ATOM      8  O   UNL     1      21.648  33.333  49.880  0.00  0.00    +0.000 OA
ATOM      9  N   UNL     1      23.072  35.134  49.801  0.00  0.00    +0.000 N 
ATOM     10  H   UNL     1      23.047  36.096  49.488  0.00  0.00    +0.000 HD
BRANCH   9  11
ATOM     11  CA  UNL     1      24.203  34.323  49.334  0.00  0.00    +0.000 C 
BRANCH  11  12
ATOM     12  C   UNL     1      24.899  35.001  48.144  0.00  0.00    +0.000 C 
ATOM     13  O   UNL     1      26.099  35.215  48.040  0.00  0.00    +0.000 OA
BRANCH  12  14
ATOM     14  OXT UNL     1      24.052  35.476  47.200  0.00  0.00    +0.000 OA
ATOM     15  HXT UNL     1      24.428  35.141  46.358  0.00  0.00    +0.000 HD
ENDBRANCH  12  14
ENDBRANCH  11  12
BRANCH  11  16
ATOM     16  C   UNL     1      25.202  34.144  50.490  0.00  0.00    +0.000 C 
BRANCH  16  17
ATOM     17  C   UNL     1      25.213  32.740  51.101  0.00  0.00    +0.000 C 
BRANCH  17  18
ATOM     18  C   UNL     1      24.209  32.570  52.231  0.00  0.00    +0.000 C 
ATOM     19  O   UNL     1      23.451  31.609  52.275  0.00  0.00    +0.000 OA
ATOM     20  N   UNL     1      24.258  33.629  53.121  0.00  0.00    +0.000 N 
ATOM     21  H   UNL     1      24.954  34.342  52.943  0.00  0.00    +0.000 HD
BRANCH  20  22
ATOM     22  C   UNL     1      23.472  33.816  54.279  0.00  0.00    +0.000 A 
ATOM     23  C   UNL     1      23.950  33.630  55.591  0.00  0.00    +0.000 A 
ATOM     24  C   UNL     1      23.119  33.834  56.701  0.00  0.00    +0.000 A 
ATOM     25  C   UNL     1      21.818  34.219  56.468  0.00  0.00    +0.000 A 
ATOM     26  C   UNL     1      21.343  34.405  55.194  0.00  0.00    +0.000 A 
ATOM     27  C   UNL     1      22.140  34.214  54.083  0.00  0.00    +0.000 A 
ATOM     28  O   UNL     1      20.037  34.788  55.178  0.00  0.00    +0.000 OA
ATOM     29  C   UNL     1      19.751  34.828  56.592  0.00  0.00    +0.000 C 
ATOM     30  O   UNL     1      20.875  34.459  57.417  0.00  0.00    +0.000 OA
ENDBRANCH  20  22
ENDBRANCH  17  18
ENDBRANCH  16  17
ENDBRANCH  11  16
ENDBRANCH   9  11
ENDBRANCH   4   7
BRANCH   1  32
ATOM     31  C   UNL     1      16.467  38.315  50.522  0.00  0.00    +0.000 C 
ATOM     32  N   UNL     1      17.673  38.248  51.346  0.00  0.00    +0.000 N 
BRANCH  32  33
ATOM     33  C   UNL     1      18.151  39.552  51.859  0.00  0.00    +0.000 C 
BRANCH  33  34
ATOM     34  C   UNL     1      17.395  40.011  53.087  0.00  0.00    +0.000 A 
ATOM     35  C   UNL     1      16.606  41.149  53.065  0.00  0.00    +0.000 A 
ATOM     36  N   UNL     1      15.957  41.621  54.159  0.00  0.00    +0.000 NA
ATOM     37  C   UNL     1      16.066  40.931  55.300  0.00  0.00    +0.000 A 
ATOM     38  N   UNL     1      15.417  41.399  56.362  0.00  0.00    +0.000 NA
ATOM     39  C   UNL     1      15.506  40.708  57.492  0.00  0.00    +0.000 A 
ATOM     40  N   UNL     1      14.829  41.191  58.589  0.00  0.00    +0.000 N 
ATOM     41  N   UNL     1      16.231  39.604  57.655  0.00  0.00    +0.000 NA
ATOM     42  C   UNL     1      16.886  39.153  56.576  0.00  0.00    +0.000 A 
ATOM     43  C   UNL     1      16.854  39.772  55.329  0.00  0.00    +0.000 A 
ATOM     44  N   UNL     1      17.544  39.314  54.238  0.00  0.00    +0.000 NA
ATOM     45  H   UNL     1      15.239  40.858  59.450  0.00  0.00    +0.000 HD
ATOM     46  H   UNL     1      14.640  42.179  58.496  0.00  0.00    +0.000 HD
BRANCH  42  47
ATOM     47  N   UNL     1      17.574  37.943  56.757  0.00  0.00    +0.000 N 
ATOM     48  H   UNL     1      17.001  37.165  56.446  0.00  0.00    +0.000 HD
ATOM     49  H   UNL     1      17.952  37.852  57.695  0.00  0.00    +0.000 HD
ENDBRANCH  42  47
ENDBRANCH  33  34
ENDBRANCH  32  33
ENDBRANCH   1  32
TORSDOF 12
ENDMDL
MODEL 2
REMARK VINA RESULT:    -7.025      4.075     10.057
REMARK INTER + INTRA:         -13.403
REMARK INTER:                 -11.846
REMARK INTRA:                  -1.557
REMARK UNBOUND:                -1.860
REMARK  Name = 
REMARK  13 active torsions:
REMARK  status: ('A' for Active; 'I' for Inactive)
REMARK    1  A    between atoms: C_1  and  N_2
REMARK    2  A    between atoms: N_2  and  C_3
REMARK    3  A    between atoms: N_2  and  C_16
REMARK    4  A    between atoms: C_3  and  C_4
REMARK    5  A    between atoms: C_12  and  N_13
REMARK    6  A    between atoms: C_19  and  C_20
REMARK    7  A    between atoms: N_22  and  CA_23
REMARK    8  A    between atoms: CA_23  and  C_24
REMARK    9  A    between atoms: CA_23  and  C_38
REMARK   10  A    between atoms: C_24  and  C_25
REMARK   11  A    between atoms: C_25  and  C_26
REMARK   12  A    between atoms: N_28  and  C_29
REMARK   13  A    between atoms: C_38  and  OXT_40
REMARK                            x       y       z     vdW  Elec       q    Type
REMARK                         _______ _______ _______ _____ _____    ______ ____
ROOT
ATOM      1  C   UNL     1      20.821  35.477  49.845  0.00  0.00    +0.000 A 
ATOM      2  C   UNL     1      20.893  36.249  51.019  0.00  0.00    +0.000 A 
ATOM      3  C   UNL     1      19.801  36.993  51.489  0.00  0.00    +0.000 A 
ATOM      4  C   UNL     1      18.586  36.967  50.804  0.00  0.00    +0.000 A 
ATOM      5  C   UNL     1      18.474  36.188  49.657  0.00  0.00    +0.000 A 
ATOM      6  C   UNL     1      19.573  35.450  49.196  0.00  0.00    +0.000 A 
ENDROOT
BRANCH   4   7
ATOM      7  C   UNL     1      17.421  37.780  51.243  0.00  0.00    +0.000 C 
ATOM      8  O   UNL     1      16.295  37.299  51.250  0.00  0.00    +0.000 OA
ATOM      9  N   UNL     1      17.705  39.062  51.670  0.00  0.00    +0.000 N 
ATOM     10  H   UNL     1      18.633  39.207  52.048  0.00  0.00    +0.000 HD
BRANCH   9  11
ATOM     11  CA  UNL     1      16.632  39.893  52.232  0.00  0.00    +0.000 C 
BRANCH  11  12
ATOM     12  C   UNL     1      17.174  40.782  53.362  0.00  0.00    +0.000 C 
ATOM     13  O   UNL     1      17.616  40.391  54.435  0.00  0.00    +0.000 OA
BRANCH  12  14
ATOM     14  OXT UNL     1      17.033  42.111  53.143  0.00  0.00    +0.000 OA
ATOM     15  HXT UNL     1      17.084  42.503  54.041  0.00  0.00    +0.000 HD
ENDBRANCH  12  14
ENDBRANCH  11  12
BRANCH  11  16
ATOM     16  C   UNL     1      16.041  40.770  51.116  0.00  0.00    +0.000 C 
BRANCH  16  17
ATOM     17  C   UNL     1      14.663  40.318  50.624  0.00  0.00    +0.000 C 
BRANCH  17  18
ATOM     18  C   UNL     1      14.702  39.672  49.247  0.00  0.00    +0.000 C 
ATOM     19  O   UNL     1      13.740  39.058  48.801  0.00  0.00    +0.000 OA
ATOM     20  N   UNL     1      15.932  39.842  48.636  0.00  0.00    +0.000 N 
ATOM     21  H   UNL     1      16.620  40.388  49.141  0.00  0.00    +0.000 HD
BRANCH  20  22
ATOM     22  C   UNL     1      16.334  39.376  47.367  0.00  0.00    +0.000 A 
ATOM     23  C   UNL     1      17.088  38.203  47.164  0.00  0.00    +0.000 A 
ATOM     24  C   UNL     1      17.456  37.791  45.876  0.00  0.00    +0.000 A 
ATOM     25  C   UNL     1      17.060  38.571  44.814  0.00  0.00    +0.000 A 
ATOM     26  C   UNL     1      16.324  39.714  45.000  0.00  0.00    +0.000 A 
ATOM     27  C   UNL     1      15.945  40.142  46.257  0.00  0.00    +0.000 A 
ATOM     28  O   UNL     1      16.030  40.339  43.827  0.00  0.00    +0.000 OA
ATOM     29  C   UNL     1      16.662  39.450  42.882  0.00  0.00    +0.000 C 
ATOM     30  O   UNL     1      17.326  38.329  43.503  0.00  0.00    +0.000 OA
ENDBRANCH  20  22
ENDBRANCH  17  18
ENDBRANCH  16  17
ENDBRANCH  11  16
ENDBRANCH   9  11
ENDBRANCH   4   7
BRANCH   1  32
ATOM     31  C   UNL     1      22.279  34.915  47.935  0.00  0.00    +0.000 C 
ATOM     32  N   UNL     1      21.917  34.755  49.342  0.00  0.00    +0.000 N 
BRANCH  32  33
ATOM     33  C   UNL     1      22.102  33.389  49.883  0.00  0.00    +0.000 C 
BRANCH  33  34
ATOM     34  C   UNL     1      22.746  33.383  51.253  0.00  0.00    +0.000 A 
ATOM     35  C   UNL     1      24.071  33.024  51.426  0.00  0.00    +0.000 A 
ATOM     36  N   UNL     1      24.667  32.956  52.643  0.00  0.00    +0.000 NA
ATOM     37  C   UNL     1      23.940  33.283  53.717  0.00  0.00    +0.000 A 
ATOM     38  N   UNL     1      24.539  33.221  54.902  0.00  0.00    +0.000 NA
ATOM     39  C   UNL     1      23.827  33.564  55.970  0.00  0.00    +0.000 A 
ATOM     40  N   UNL     1      24.451  33.504  57.196  0.00  0.00    +0.000 N 
ATOM     41  N   UNL     1      22.546  33.923  55.949  0.00  0.00    +0.000 NA
ATOM     42  C   UNL     1      21.957  33.969  54.745  0.00  0.00    +0.000 A 
ATOM     43  C   UNL     1      22.600  33.659  53.551  0.00  0.00    +0.000 A 
ATOM     44  N   UNL     1      21.982  33.690  52.328  0.00  0.00    +0.000 NA
ATOM     45  H   UNL     1      23.780  33.399  57.945  0.00  0.00    +0.000 HD
ATOM     46  H   UNL     1      25.247  32.884  57.172  0.00  0.00    +0.000 HD
BRANCH  42  47
ATOM     47  N   UNL     1      20.631  34.431  54.747  0.00  0.00    +0.000 N 
ATOM     48  H   UNL     1      20.442  34.954  53.897  0.00  0.00    +0.000 HD
ATOM     49  H   UNL     1      20.392  34.910  55.610  0.00  0.00    +0.000 HD
ENDBRANCH  42  47
ENDBRANCH  33  34
ENDBRANCH  32  33
ENDBRANCH   1  32
TORSDOF 12
ENDMDL
MODEL 3
REMARK VINA RESULT:    -6.786      7.052     10.625
REMARK INTER + INTRA:         -13.011
REMARK INTER:                 -11.151
REMARK INTRA:                  -1.860
REMARK UNBOUND:                -1.860
REMARK  Name = 
REMARK  13 active torsions:
REMARK  status: ('A' for Active; 'I' for Inactive)
REMARK    1  A    between atoms: C_1  and  N_2
REMARK    2  A    between atoms: N_2  and  C_3
REMARK    3  A    between atoms: N_2  and  C_16
REMARK    4  A    between atoms: C_3  and  C_4
REMARK    5  A    between atoms: C_12  and  N_13
REMARK    6  A    between atoms: C_19  and  C_20
REMARK    7  A    between atoms: N_22  and  CA_23
REMARK    8  A    between atoms: CA_23  and  C_24
REMARK    9  A    between atoms: CA_23  and  C_38
REMARK   10  A    between atoms: C_24  and  C_25
REMARK   11  A    between atoms: C_25  and  C_26
REMARK   12  A    between atoms: N_28  and  C_29
REMARK   13  A    between atoms: C_38  and  OXT_40
REMARK                            x       y       z     vdW  Elec       q    Type
REMARK                         _______ _______ _______ _____ _____    ______ ____
ROOT
ATOM      1  C   UNL     1      14.285  41.366  46.617  0.00  0.00    +0.000 A 
ATOM      2  C   UNL     1      13.677  41.334  47.885  0.00  0.00    +0.000 A 
ATOM      3  C   UNL     1      14.097  40.451  48.891  0.00  0.00    +0.000 A 
ATOM      4  C   UNL     1      15.165  39.583  48.661  0.00  0.00    +0.000 A 
ATOM      5  C   UNL     1      15.808  39.613  47.428  0.00  0.00    +0.000 A 
ATOM      6  C   UNL     1      15.377  40.498  46.430  0.00  0.00    +0.000 A 
ENDROOT
BRANCH   4   7
ATOM      7  C   UNL     1      15.608  38.599  49.684  0.00  0.00    +0.000 C 
ATOM      8  O   UNL     1      14.806  37.826  50.193  0.00  0.00    +0.000 OA
ATOM      9  N   UNL     1      16.959  38.595  49.974  0.00  0.00    +0.000 N 
ATOM     10  H   UNL     1      17.570  38.910  49.232  0.00  0.00    +0.000 HD
BRANCH   9  11
ATOM     11  CA  UNL     1      17.502  37.577  50.882  0.00  0.00    +0.000 C 
BRANCH  11  12
ATOM     12  C   UNL     1      18.597  36.758  50.182  0.00  0.00    +0.000 C 
ATOM     13  O   UNL     1      18.467  36.123  49.144  0.00  0.00    +0.000 OA
BRANCH  12  14
ATOM     14  OXT UNL     1      19.762  36.683  50.868  0.00  0.00    +0.000 OA
ATOM     15  HXT UNL     1      19.690  37.402  51.532  0.00  0.00    +0.000 HD
ENDBRANCH  12  14
ENDBRANCH  11  12
BRANCH  11  16
ATOM     16  C   UNL     1      18.084  38.274  52.124  0.00  0.00    +0.000 C 
BRANCH  16  17
ATOM     17  C   UNL     1      18.338  39.774  51.942  0.00  0.00    +0.000 C 
BRANCH  17  18
ATOM     18  C   UNL     1      17.487  40.640  52.858  0.00  0.00    +0.000 C 
ATOM     19  O   UNL     1      17.558  40.543  54.077  0.00  0.00    +0.000 OA
ATOM     20  N   UNL     1      16.646  41.471  52.139  0.00  0.00    +0.000 N 
ATOM     21  H   UNL     1      16.721  41.433  51.130  0.00  0.00    +0.000 HD
BRANCH  20  22
ATOM     22  C   UNL     1      15.714  42.400  52.649  0.00  0.00    +0.000 A 
ATOM     23  C   UNL     1      16.039  43.725  53.001  0.00  0.00    +0.000 A 
ATOM     24  C   UNL     1      15.065  44.602  53.501  0.00  0.00    +0.000 A 
ATOM     25  C   UNL     1      13.782  44.125  53.640  0.00  0.00    +0.000 A 
ATOM     26  C   UNL     1      13.455  42.837  53.298  0.00  0.00    +0.000 A 
ATOM     27  C   UNL     1      14.392  41.954  52.800  0.00  0.00    +0.000 A 
ATOM     28  O   UNL     1      12.137  42.564  53.505  0.00  0.00    +0.000 OA
ATOM     29  C   UNL     1      11.675  43.834  54.011  0.00  0.00    +0.000 C 
ATOM     30  O   UNL     1      12.717  44.828  54.108  0.00  0.00    +0.000 OA
ENDBRANCH  20  22
ENDBRANCH  17  18
ENDBRANCH  16  17
ENDBRANCH  11  16
ENDBRANCH   9  11
ENDBRANCH   4   7
BRANCH   1  32
ATOM     31  C   UNL     1      13.425  41.632  44.319  0.00  0.00    +0.000 C 
ATOM     32  N   UNL     1      13.852  42.220  45.588  0.00  0.00    +0.000 N 
BRANCH  32  33
ATOM     33  C   UNL     1      14.564  43.513  45.469  0.00  0.00    +0.000 C 
BRANCH  33  34
ATOM     34  C   UNL     1      13.712  44.691  45.890  0.00  0.00    +0.000 A 
ATOM     35  C   UNL     1      12.527  44.513  46.584  0.00  0.00    +0.000 A 
ATOM     36  N   UNL     1      11.711  45.540  46.931  0.00  0.00    +0.000 NA
ATOM     37  C   UNL     1      12.093  46.781  46.610  0.00  0.00    +0.000 A 
ATOM     38  N   UNL     1      11.289  47.779  46.964  0.00  0.00    +0.000 NA
ATOM     39  C   UNL     1      11.672  49.014  46.664  0.00  0.00    +0.000 A 
ATOM     40  N   UNL     1      10.841  50.047  47.036  0.00  0.00    +0.000 N 
ATOM     41  N   UNL     1      12.780  49.328  45.997  0.00  0.00    +0.000 NA
ATOM     42  C   UNL     1      13.573  48.308  45.639  0.00  0.00    +0.000 A 
ATOM     43  C   UNL     1      13.296  46.972  45.916  0.00  0.00    +0.000 A 
ATOM     44  N   UNL     1      14.103  45.935  45.527  0.00  0.00    +0.000 NA
ATOM     45  H   UNL     1      10.991  50.865  46.463  0.00  0.00    +0.000 HD
ATOM     46  H   UNL     1       9.894  49.723  47.175  0.00  0.00    +0.000 HD
BRANCH  42  47
ATOM     47  N   UNL     1      14.773  48.675  45.011  0.00  0.00    +0.000 N 
ATOM     48  H   UNL     1      15.493  47.984  45.200  0.00  0.00    +0.000 HD
ATOM     49  H   UNL     1      15.034  49.636  45.214  0.00  0.00    +0.000 HD
ENDBRANCH  42  47
ENDBRANCH  33  34
ENDBRANCH  32  33
ENDBRANCH   1  32
TORSDOF 12
ENDMDL
