MODEL 1
REMARK VINA RESULT:    -6.279      0.000      0.000
REMARK INTER + INTRA:          -8.330
REMARK INTER:                  -7.767
REMARK INTRA:                  -0.563
REMARK UNBOUND:                -0.583
REMARK  Name = 
REMARK  4 active torsions:
REMARK  status: ('A' for Active; 'I' for Inactive)
REMARK    1  A    between atoms: C_5  and  C_6
REMARK    2  A    between atoms: C_6  and  N_7
REMARK    3  A    between atoms: C_10  and  C_11
REMARK    4  A    between atoms: C_13  and  C_14
REMARK                            x       y       z     vdW  Elec       q    Type
REMARK                         _______ _______ _______ _____ _____    ______ ____
ROOT
ATOM      1  N   UNL     1      16.376  38.018  47.096  0.00  0.00    +0.000 NA
ATOM      2  C   UNL     1      16.532  38.294  45.668  0.00  0.00    +0.000 C 
ATOM      3  C   UNL     1      16.379  39.788  45.382  0.00  0.00    +0.000 C 
ATOM      4  C   UNL     1      15.034  40.310  45.906  0.00  0.00    +0.000 C 
ATOM      5  C   UNL     1      14.876  39.950  47.389  0.00  0.00    +0.000 C 
ATOM      6  C   UNL     1      15.077  38.451  47.611  0.00  0.00    +0.000 C 
ENDROOT
BRANCH   4   7
ATOM      7  C   UNL     1      14.854  41.777  45.654  0.00  0.00    +0.000 A 
ATOM      8  C   UNL     1      13.968  42.665  46.307  0.00  0.00    +0.000 A 
ATOM      9  C   UNL     1      14.188  43.886  45.713  0.00  0.00    +0.000 A 
ATOM     10  O   UNL     1      15.152  43.730  44.759  0.00  0.00    +0.000 OA
ATOM     11  N   UNL     1      15.570  42.414  44.720  0.00  0.00    +0.000 NA
BRANCH   9  12
ATOM     12  C   UNL     1      13.642  45.229  45.877  0.00  0.00    +0.000 A 
ATOM     13  C   UNL     1      12.423  45.448  46.538  0.00  0.00    +0.000 A 
ATOM     14  C   UNL     1      11.906  46.740  46.690  0.00  0.00    +0.000 A 
ATOM     15  C   UNL     1      12.607  47.830  46.182  0.00  0.00    +0.000 A 
ATOM     16 CL   UNL     1      11.974  49.418  46.368  0.00  0.00    +0.000 Cl
ATOM     17  C   UNL     1      13.818  47.638  45.523  0.00  0.00    +0.000 A 
ATOM     18  C   UNL     1      14.331  46.345  45.372  0.00  0.00    +0.000 A 
ENDBRANCH   9  12
ENDBRANCH   4   7
BRANCH   1  19
ATOM     19  C   UNL     1      16.731  36.641  47.472  0.00  0.00    +0.000 C 
BRANCH  19  24
ATOM     20 CL   UNL     1      21.135  35.982  51.552  0.00  0.00    +0.000 Cl
ATOM     21  C   UNL     1      19.883  36.172  50.388  0.00  0.00    +0.000 A 
ATOM     22  C   UNL     1      18.788  36.983  50.677  0.00  0.00    +0.000 A 
ATOM     23  C   UNL     1      17.769  37.137  49.733  0.00  0.00    +0.000 A 
ATOM     24  C   UNL     1      17.837  36.477  48.495  0.00  0.00    +0.000 A 
ATOM     25  C   UNL     1      18.952  35.669  48.220  0.00  0.00    +0.000 A 
ATOM     26  C   UNL     1      19.970  35.515  49.163  0.00  0.00    +0.000 A 
ENDBRANCH  19  24
ENDBRANCH   1  19
TORSDOF 4
ENDMDL
MODEL 2
REMARK VINA RESULT:    -6.027      1.493      2.023
REMARK INTER + INTRA:          -8.020
REMARK INTER:                  -7.717
REMARK INTRA:                  -0.303
REMARK UNBOUND:                -0.583
REMARK  Name = 
REMARK  4 active torsions:
REMARK  status: ('A' for Active; 'I' for Inactive)
REMARK    1  A    between atoms: C_5  and  C_6
REMARK    2  A    between atoms: C_6  and  N_7
REMARK    3  A    between atoms: C_10  and  C_11
REMARK    4  A    between atoms: C_13  and  C_14
REMARK                            x       y       z     vdW  Elec       q    Type
REMARK                         _______ _______ _______ _____ _____    ______ ____
ROOT
ATOM      1  N   UNL     1      17.134  37.593  49.370  0.00  0.00    +0.000 NA
ATOM      2  C   UNL     1      17.358  37.389  47.939  0.00  0.00    +0.000 C 
ATOM      3  C   UNL     1      17.099  38.679  47.158  0.00  0.00    +0.000 C 
ATOM      4  C   UNL     1      15.685  39.208  47.430  0.00  0.00    +0.000 C 
ATOM      5  C   UNL     1      15.462  39.352  48.941  0.00  0.00    +0.000 C 
ATOM      6  C   UNL     1      15.773  38.041  49.665  0.00  0.00    +0.000 C 
ENDROOT
BRANCH   4   7
ATOM      7  C   UNL     1      15.400  40.480  46.689  0.00  0.00    +0.000 A 
ATOM      8  C   UNL     1      14.568  41.550  47.095  0.00  0.00    +0.000 A 
ATOM      9  C   UNL     1      14.645  42.466  46.071  0.00  0.00    +0.000 A 
ATOM     10  O   UNL     1      15.475  41.966  45.111  0.00  0.00    +0.000 OA
ATOM     11  N   UNL     1      15.949  40.725  45.494  0.00  0.00    +0.000 NA
BRANCH   9  12
ATOM     12  C   UNL     1      14.060  43.778  45.811  0.00  0.00    +0.000 A 
ATOM     13  C   UNL     1      12.940  44.234  46.524  0.00  0.00    +0.000 A 
ATOM     14  C   UNL     1      12.385  45.494  46.268  0.00  0.00    +0.000 A 
ATOM     15  C   UNL     1      12.949  46.312  45.294  0.00  0.00    +0.000 A 
ATOM     16 CL   UNL     1      12.270  47.860  44.978  0.00  0.00    +0.000 Cl
ATOM     17  C   UNL     1      14.060  45.881  44.574  0.00  0.00    +0.000 A 
ATOM     18  C   UNL     1      14.611  44.622  44.832  0.00  0.00    +0.000 A 
ENDBRANCH   9  12
ENDBRANCH   4   7
BRANCH   1  19
ATOM     19  C   UNL     1      17.577  36.465  50.202  0.00  0.00    +0.000 C 
BRANCH  19  24
ATOM     20 CL   UNL     1      23.475  35.164  50.111  0.00  0.00    +0.000 Cl
ATOM     21  C   UNL     1      21.795  35.537  50.135  0.00  0.00    +0.000 A 
ATOM     22  C   UNL     1      21.271  36.300  51.175  0.00  0.00    +0.000 A 
ATOM     23  C   UNL     1      19.907  36.602  51.196  0.00  0.00    +0.000 A 
ATOM     24  C   UNL     1      19.057  36.140  50.178  0.00  0.00    +0.000 A 
ATOM     25  C   UNL     1      19.605  35.378  49.134  0.00  0.00    +0.000 A 
ATOM     26  C   UNL     1      20.968  35.076  49.113  0.00  0.00    +0.000 A 
ENDBRANCH  19  24
ENDBRANCH   1  19
TORSDOF 4
ENDMDL
MODEL 3
REMARK VINA RESULT:    -5.901      2.448     10.661
REMARK INTER + INTRA:          -7.865
REMARK INTER:                  -7.281
REMARK INTRA:                  -0.583
REMARK UNBOUND:                -0.583
REMARK  Name = 
REMARK  4 active torsions:
REMARK  status: ('A' for Active; 'I' for Inactive)
REMARK    1  A    between atoms: C_5  and  C_6
REMARK    2  A    between atoms: C_6  and  N_7
REMARK    3  A    between atoms: C_10  and  C_11
REMARK    4  A    between atoms: C_13  and  C_14
REMARK                            x       y       z     vdW  Elec       q    Type
REMARK                         _______ _______ _______ _____ _____    ______ ____
ROOT
ATOM      1  N   UNL     1      13.677  46.142  45.168  0.00  0.00    +0.000 NA
ATOM      2  C   UNL     1      12.988  45.201  46.051  0.00  0.00    +0.000 C 
ATOM      3  C   UNL     1      13.815  43.929  46.243  0.00  0.00    +0.000 C 
ATOM      4  C   UNL     1      14.143  43.282  44.891  0.00  0.00    +0.000 C 
ATOM      5  C   UNL     1      14.808  44.311  43.967  0.00  0.00    +0.000 C 
ATOM      6  C   UNL     1      13.951  45.571  43.848  0.00  0.00    +0.000 C 
ENDROOT
BRANCH   4   7
ATOM      7  C   UNL     1      14.964  42.036  45.039  0.00  0.00    +0.000 A 
ATOM      8  C   UNL     1      15.227  41.309  46.225  0.00  0.00    +0.000 A 
ATOM      9  C   UNL     1      16.022  40.259  45.827  0.00  0.00    +0.000 A 
ATOM     10  O   UNL     1      16.220  40.358  44.480  0.00  0.00    +0.000 OA
ATOM     11  N   UNL     1      15.560  41.467  43.985  0.00  0.00    +0.000 NA
BRANCH   9  12
ATOM     12  C   UNL     1      16.659  39.132  46.500  0.00  0.00    +0.000 A 
ATOM     13  C   UNL     1      17.450  38.210  45.795  0.00  0.00    +0.000 A 
ATOM     14  C   UNL     1      18.058  37.132  46.448  0.00  0.00    +0.000 A 
ATOM     15  C   UNL     1      17.880  36.964  47.818  0.00  0.00    +0.000 A 
ATOM     16 CL   UNL     1      18.625  35.640  48.624  0.00  0.00    +0.000 Cl
ATOM     17  C   UNL     1      17.100  37.865  48.539  0.00  0.00    +0.000 A 
ATOM     18  C   UNL     1      16.494  38.942  47.882  0.00  0.00    +0.000 A 
ENDBRANCH   9  12
ENDBRANCH   4   7
BRANCH   1  19
ATOM     19  C   UNL     1      13.050  47.470  45.117  0.00  0.00    +0.000 C 
BRANCH  19  24
ATOM     20 CL   UNL     1      16.615  52.109  43.614  0.00  0.00    +0.000 Cl
ATOM     21  C   UNL     1      15.601  50.786  44.040  0.00  0.00    +0.000 A 
ATOM     22  C   UNL     1      14.283  50.752  43.590  0.00  0.00    +0.000 A 
ATOM     23  C   UNL     1      13.459  49.678  43.936  0.00  0.00    +0.000 A 
ATOM     24  C   UNL     1      13.945  48.633  44.739  0.00  0.00    +0.000 A 
ATOM     25  C   UNL     1      15.278  48.682  45.177  0.00  0.00    +0.000 A 
ATOM     26  C   UNL     1      16.103  49.755  44.831  0.00  0.00    +0.000 A 
ENDBRANCH  19  24
ENDBRANCH   1  19
TORSDOF 4
ENDMDL
