MODEL 1
REMARK VINA RESULT:    -6.483      0.000      0.000
REMARK INTER + INTRA:          -8.038
REMARK INTER:                  -7.599
REMARK INTRA:                  -0.439
REMARK UNBOUND:                -0.418
REMARK  Name = 
REMARK  3 active torsions:
REMARK  status: ('A' for Active; 'I' for Inactive)
REMARK    1  A    between atoms: N_13  and  C_14
REMARK    2  A    between atoms: C_14  and  C_15
REMARK    3  A    between atoms: C_15  and  C_16
REMARK                            x       y       z     vdW  Elec       q    Type
REMARK                         _______ _______ _______ _____ _____    ______ ____
ROOT
ATOM      1 CL   UNL     1      10.799  48.642  46.790  0.00  0.00    +0.000 Cl
ATOM      2  C   UNL     1      12.025  47.511  46.357  0.00  0.00    +0.000 A 
ATOM      3  C   UNL     1      13.167  47.959  45.698  0.00  0.00    +0.000 A 
ATOM      4  C   UNL     1      14.180  47.067  45.334  0.00  0.00    +0.000 A 
ATOM      5  C   UNL     1      13.999  45.716  45.656  0.00  0.00    +0.000 A 
ATOM      6  N   UNL     1      14.822  44.632  45.427  0.00  0.00    +0.000 N 
ATOM      7  C   UNL     1      14.237  43.497  45.912  0.00  0.00    +0.000 A 
ATOM      8  C   UNL     1      13.024  43.842  46.469  0.00  0.00    +0.000 A 
ATOM      9  C   UNL     1      12.858  45.243  46.315  0.00  0.00    +0.000 A 
ATOM     10  C   UNL     1      11.852  46.160  46.674  0.00  0.00    +0.000 A 
ATOM     11  C   UNL     1      12.162  42.810  47.109  0.00  0.00    +0.000 C 
ATOM     12  C   UNL     1      12.631  41.388  46.699  0.00  0.00    +0.000 C 
ATOM     13  N   UNL     1      14.101  41.234  46.774  0.00  0.00    +0.000 NA
ATOM     14  C   UNL     1      14.804  42.121  45.824  0.00  0.00    +0.000 C 
ATOM     15  H   UNL     1      15.723  44.681  44.968  0.00  0.00    +0.000 HD
ENDROOT
BRANCH  13  16
ATOM     16  C   UNL     1      14.553  39.838  46.674  0.00  0.00    +0.000 C 
BRANCH  16  17
ATOM     17  C   UNL     1      14.253  38.919  47.870  0.00  0.00    +0.000 C 
BRANCH  17  18
ATOM     18  C   UNL     1      15.301  39.081  48.944  0.00  0.00    +0.000 A 
ATOM     19  C   UNL     1      16.445  38.294  48.941  0.00  0.00    +0.000 A 
ATOM     20  C   UNL     1      17.374  38.465  49.962  0.00  0.00    +0.000 A 
ATOM     21  C   UNL     1      17.139  39.414  50.964  0.00  0.00    +0.000 A 
ATOM     22  C   UNL     1      18.049  39.621  52.015  0.00  0.00    +0.000 A 
ATOM     23  C   UNL     1      17.785  40.573  52.998  0.00  0.00    +0.000 A 
ATOM     24  C   UNL     1      16.614  41.320  52.933  0.00  0.00    +0.000 A 
ATOM     25  C   UNL     1      15.712  41.109  51.886  0.00  0.00    +0.000 A 
ATOM     26  C   UNL     1      15.950  40.167  50.893  0.00  0.00    +0.000 A 
ATOM     27  N   UNL     1      15.050  40.003  49.906  0.00  0.00    +0.000 NA
ENDBRANCH  17  18
ENDBRANCH  16  17
ENDBRANCH  13  16
TORSDOF 3
ENDMDL
MODEL 2
REMARK VINA RESULT:    -6.410      1.584      2.131
REMARK INTER + INTRA:          -7.953
REMARK INTER:                  -7.534
REMARK INTRA:                  -0.418
REMARK UNBOUND:                -0.418
REMARK  Name = 
REMARK  3 active torsions:
REMARK  status: ('A' for Active; 'I' for Inactive)
REMARK    1  A    between atoms: N_13  and  C_14
REMARK    2  A    between atoms: C_14  and  C_15
REMARK    3  A    between atoms: C_15  and  C_16
REMARK                            x       y       z     vdW  Elec       q    Type
REMARK                         _______ _______ _______ _____ _____    ______ ____
ROOT
ATOM      1 CL   UNL     1      10.640  47.332  47.430  0.00  0.00    +0.000 Cl
ATOM      2  C   UNL     1      11.948  46.586  46.593  0.00  0.00    +0.000 A 
ATOM      3  C   UNL     1      12.732  47.348  45.730  0.00  0.00    +0.000 A 
ATOM      4  C   UNL     1      13.801  46.772  45.037  0.00  0.00    +0.000 A 
ATOM      5  C   UNL     1      14.047  45.409  45.244  0.00  0.00    +0.000 A 
ATOM      6  N   UNL     1      15.022  44.593  44.706  0.00  0.00    +0.000 N 
ATOM      7  C   UNL     1      14.881  43.324  45.192  0.00  0.00    +0.000 A 
ATOM      8  C   UNL     1      13.809  43.311  46.060  0.00  0.00    +0.000 A 
ATOM      9  C   UNL     1      13.271  44.624  46.104  0.00  0.00    +0.000 A 
ATOM     10  C   UNL     1      12.201  45.225  46.793  0.00  0.00    +0.000 A 
ATOM     11  C   UNL     1      13.425  42.061  46.773  0.00  0.00    +0.000 C 
ATOM     12  C   UNL     1      14.104  40.833  46.110  0.00  0.00    +0.000 C 
ATOM     13  N   UNL     1      15.534  41.071  45.810  0.00  0.00    +0.000 NA
ATOM     14  C   UNL     1      15.724  42.152  44.821  0.00  0.00    +0.000 C 
ATOM     15  H   UNL     1      15.730  44.898  44.052  0.00  0.00    +0.000 HD
ENDROOT
BRANCH  13  16
ATOM     16  C   UNL     1      16.272  39.850  45.452  0.00  0.00    +0.000 C 
BRANCH  16  17
ATOM     17  C   UNL     1      15.715  38.518  45.980  0.00  0.00    +0.000 C 
BRANCH  17  18
ATOM     18  C   UNL     1      16.560  37.998  47.117  0.00  0.00    +0.000 A 
ATOM     19  C   UNL     1      17.342  36.862  46.956  0.00  0.00    +0.000 A 
ATOM     20  C   UNL     1      18.089  36.408  48.038  0.00  0.00    +0.000 A 
ATOM     21  C   UNL     1      18.037  37.097  49.255  0.00  0.00    +0.000 A 
ATOM     22  C   UNL     1      18.775  36.675  50.376  0.00  0.00    +0.000 A 
ATOM     23  C   UNL     1      18.700  37.381  51.575  0.00  0.00    +0.000 A 
ATOM     24  C   UNL     1      17.890  38.509  51.658  0.00  0.00    +0.000 A 
ATOM     25  C   UNL     1      17.158  38.923  50.541  0.00  0.00    +0.000 A 
ATOM     26  C   UNL     1      17.214  38.238  49.333  0.00  0.00    +0.000 A 
ATOM     27  N   UNL     1      16.490  38.678  48.288  0.00  0.00    +0.000 NA
ENDBRANCH  17  18
ENDBRANCH  16  17
ENDBRANCH  13  16
TORSDOF 3
ENDMDL
MODEL 3
REMARK VINA RESULT:    -6.400      4.058      9.582
REMARK INTER + INTRA:          -7.941
REMARK INTER:                  -7.686
REMARK INTRA:                  -0.255
REMARK UNBOUND:                -0.418
REMARK  Name = 
REMARK  3 active torsions:
REMARK  status: ('A' for Active; 'I' for Inactive)
REMARK    1  A    between atoms: N_13  and  C_14
REMARK    2  A    between atoms: C_14  and  C_15
REMARK    3  A    between atoms: C_15  and  C_16
REMARK                            x       y       z     vdW  Elec       q    Type
REMARK                         _______ _______ _______ _____ _____    ______ ____
ROOT
ATOM      1 CL   UNL     1      18.127  36.492  44.530  0.00  0.00    +0.000 Cl
ATOM      2  C   UNL     1      17.350  37.817  45.313  0.00  0.00    +0.000 A 
ATOM      3  C   UNL     1      17.205  37.803  46.699  0.00  0.00    +0.000 A 
ATOM      4  C   UNL     1      16.580  38.862  47.363  0.00  0.00    +0.000 A 
ATOM      5  C   UNL     1      16.109  39.927  46.585  0.00  0.00    +0.000 A 
ATOM      6  N   UNL     1      15.469  41.089  46.967  0.00  0.00    +0.000 N 
ATOM      7  C   UNL     1      15.188  41.845  45.864  0.00  0.00    +0.000 A 
ATOM      8  C   UNL     1      15.655  41.176  44.753  0.00  0.00    +0.000 A 
ATOM      9  C   UNL     1      16.242  39.960  45.192  0.00  0.00    +0.000 A 
ATOM     10  C   UNL     1      16.877  38.884  44.544  0.00  0.00    +0.000 A 
ATOM     11  C   UNL     1      15.517  41.772  43.394  0.00  0.00    +0.000 C 
ATOM     12  C   UNL     1      14.494  42.939  43.421  0.00  0.00    +0.000 C 
ATOM     13  N   UNL     1      14.694  43.841  44.578  0.00  0.00    +0.000 NA
ATOM     14  C   UNL     1      14.473  43.153  45.866  0.00  0.00    +0.000 C 
ATOM     15  H   UNL     1      15.245  41.334  47.922  0.00  0.00    +0.000 HD
ENDROOT
BRANCH  13  16
ATOM     16  C   UNL     1      13.941  45.100  44.480  0.00  0.00    +0.000 C 
BRANCH  16  17
ATOM     17  C   UNL     1      14.125  46.115  45.621  0.00  0.00    +0.000 C 
BRANCH  17  18
ATOM     18  C   UNL     1      14.199  47.521  45.078  0.00  0.00    +0.000 A 
ATOM     19  C   UNL     1      13.105  48.093  44.443  0.00  0.00    +0.000 A 
ATOM     20  C   UNL     1      13.226  49.385  43.942  0.00  0.00    +0.000 A 
ATOM     21  C   UNL     1      14.436  50.074  44.081  0.00  0.00    +0.000 A 
ATOM     22  C   UNL     1      14.604  51.380  43.590  0.00  0.00    +0.000 A 
ATOM     23  C   UNL     1      15.823  52.039  43.744  0.00  0.00    +0.000 A 
ATOM     24  C   UNL     1      16.874  51.396  44.388  0.00  0.00    +0.000 A 
ATOM     25  C   UNL     1      16.702  50.096  44.874  0.00  0.00    +0.000 A 
ATOM     26  C   UNL     1      15.498  49.416  44.735  0.00  0.00    +0.000 A 
ATOM     27  N   UNL     1      15.383  48.167  45.220  0.00  0.00    +0.000 NA
ENDBRANCH  17  18
ENDBRANCH  16  17
ENDBRANCH  13  16
TORSDOF 3
ENDMDL
