MODEL 1
REMARK VINA RESULT:    -7.256      0.000      0.000
REMARK INTER + INTRA:         -11.205
REMARK INTER:                 -10.291
REMARK INTRA:                  -0.914
REMARK UNBOUND:                -0.979
REMARK  Name = 
REMARK  7 active torsions:
REMARK  status: ('A' for Active; 'I' for Inactive)
REMARK    1  A    between atoms: C_5  and  N_6
REMARK    2  A    between atoms: N_6  and  N_7
REMARK    3  A    between atoms: C_8  and  C_9
REMARK    4  A    between atoms: C_12  and  C_13
REMARK    5  A    between atoms: C_17  and  C_18
REMARK    6  A    between atoms: N_19  and  N_20
REMARK    7  A    between atoms: N_20  and  C_21
REMARK                            x       y       z     vdW  Elec       q    Type
REMARK                         _______ _______ _______ _____ _____    ______ ____
ROOT
ATOM      1  C   UNL     1      14.476  44.546  44.663  0.00  0.00    +0.000 A 
ATOM      2  C   UNL     1      14.339  43.866  45.873  0.00  0.00    +0.000 A 
ATOM      3  C   UNL     1      14.853  42.574  46.006  0.00  0.00    +0.000 A 
ATOM      4  C   UNL     1      15.507  41.939  44.935  0.00  0.00    +0.000 A 
ATOM      5  C   UNL     1      15.639  42.646  43.727  0.00  0.00    +0.000 A 
ATOM      6  C   UNL     1      15.128  43.940  43.587  0.00  0.00    +0.000 A 
ENDROOT
BRANCH   4   7
ATOM      7  C   UNL     1      16.038  40.573  45.076  0.00  0.00    +0.000 A 
ATOM      8  C   UNL     1      16.331  39.790  43.947  0.00  0.00    +0.000 A 
ATOM      9  C   UNL     1      16.835  38.492  44.073  0.00  0.00    +0.000 A 
ATOM     10  C   UNL     1      17.057  37.950  45.335  0.00  0.00    +0.000 A 
ATOM     11  C   UNL     1      16.770  38.713  46.470  0.00  0.00    +0.000 A 
ATOM     12  C   UNL     1      16.264  40.013  46.342  0.00  0.00    +0.000 A 
BRANCH  11  13
ATOM     13  C   UNL     1      17.004  38.124  47.802  0.00  0.00    +0.000 C 
ATOM     14  N   UNL     1      17.763  37.085  47.969  0.00  0.00    +0.000 NA
BRANCH  14  15
ATOM     15  N   UNL     1      17.849  36.695  49.272  0.00  0.00    +0.000 N 
ATOM     16  H   UNL     1      17.123  36.027  49.550  0.00  0.00    +0.000 HD
BRANCH  15  17
ATOM     17  C   UNL     1      19.112  36.204  49.697  0.00  0.00    +0.000 A 
ATOM     18  C   UNL     1      19.624  36.622  50.936  0.00  0.00    +0.000 A 
ATOM     19  C   UNL     1      20.901  36.226  51.352  0.00  0.00    +0.000 A 
ATOM     20  C   UNL     1      21.679  35.434  50.516  0.00  0.00    +0.000 A 
ATOM     21  F   UNL     1      22.904  35.060  50.911  0.00  0.00    +0.000 F 
ATOM     22  C   UNL     1      21.210  35.037  49.272  0.00  0.00    +0.000 A 
ATOM     23  C   UNL     1      19.935  35.436  48.858  0.00  0.00    +0.000 A 
ENDBRANCH  15  17
ENDBRANCH  14  15
ENDBRANCH  11  13
ENDBRANCH   4   7
BRANCH   1  25
ATOM     24  N   UNL     1      14.181  46.853  45.332  0.00  0.00    +0.000 NA
ATOM     25  C   UNL     1      13.920  45.902  44.493  0.00  0.00    +0.000 C 
BRANCH  24  26
ATOM     26  N   UNL     1      13.548  48.025  45.025  0.00  0.00    +0.000 N 
ATOM     27  H   UNL     1      12.882  47.919  44.254  0.00  0.00    +0.000 HD
BRANCH  26  32
ATOM     28  F   UNL     1      17.006  52.162  43.660  0.00  0.00    +0.000 F 
ATOM     29  C   UNL     1      16.166  51.172  43.987  0.00  0.00    +0.000 A 
ATOM     30  C   UNL     1      16.630  50.106  44.749  0.00  0.00    +0.000 A 
ATOM     31  C   UNL     1      15.750  49.075  45.096  0.00  0.00    +0.000 A 
ATOM     32  C   UNL     1      14.402  49.123  44.709  0.00  0.00    +0.000 A 
ATOM     33  C   UNL     1      13.973  50.189  43.902  0.00  0.00    +0.000 A 
ATOM     34  C   UNL     1      14.847  51.221  43.555  0.00  0.00    +0.000 A 
ENDBRANCH  26  32
ENDBRANCH  24  26
ENDBRANCH   1  25
TORSDOF 7
ENDMDL
MODEL 2
REMARK VINA RESULT:    -7.165      2.058      2.740
REMARK INTER + INTRA:         -11.076
REMARK INTER:                 -10.045
REMARK INTRA:                  -1.031
REMARK UNBOUND:                -0.979
REMARK  Name = 
REMARK  7 active torsions:
REMARK  status: ('A' for Active; 'I' for Inactive)
REMARK    1  A    between atoms: C_5  and  N_6
REMARK    2  A    between atoms: N_6  and  N_7
REMARK    3  A    between atoms: C_8  and  C_9
REMARK    4  A    between atoms: C_12  and  C_13
REMARK    5  A    between atoms: C_17  and  C_18
REMARK    6  A    between atoms: N_19  and  N_20
REMARK    7  A    between atoms: N_20  and  C_21
REMARK                            x       y       z     vdW  Elec       q    Type
REMARK                         _______ _______ _______ _____ _____    ______ ____
ROOT
ATOM      1  C   UNL     1      14.543  44.667  44.597  0.00  0.00    +0.000 A 
ATOM      2  C   UNL     1      15.309  44.124  43.565  0.00  0.00    +0.000 A 
ATOM      3  C   UNL     1      15.795  42.818  43.673  0.00  0.00    +0.000 A 
ATOM      4  C   UNL     1      15.527  42.036  44.811  0.00  0.00    +0.000 A 
ATOM      5  C   UNL     1      14.746  42.602  45.835  0.00  0.00    +0.000 A 
ATOM      6  C   UNL     1      14.257  43.908  45.733  0.00  0.00    +0.000 A 
ENDROOT
BRANCH   4   7
ATOM      7  C   UNL     1      16.049  40.665  44.926  0.00  0.00    +0.000 A 
ATOM      8  C   UNL     1      16.464  39.950  43.789  0.00  0.00    +0.000 A 
ATOM      9  C   UNL     1      16.961  38.648  43.891  0.00  0.00    +0.000 A 
ATOM     10  C   UNL     1      17.053  38.031  45.135  0.00  0.00    +0.000 A 
ATOM     11  C   UNL     1      16.643  38.725  46.277  0.00  0.00    +0.000 A 
ATOM     12  C   UNL     1      16.145  40.031  46.173  0.00  0.00    +0.000 A 
BRANCH  11  13
ATOM     13  C   UNL     1      16.739  38.058  47.588  0.00  0.00    +0.000 C 
ATOM     14  N   UNL     1      15.763  38.082  48.443  0.00  0.00    +0.000 NA
BRANCH  14  15
ATOM     15  N   UNL     1      16.049  37.411  49.594  0.00  0.00    +0.000 N 
ATOM     16  H   UNL     1      16.521  36.513  49.441  0.00  0.00    +0.000 HD
BRANCH  15  17
ATOM     17  C   UNL     1      16.758  38.140  50.585  0.00  0.00    +0.000 A 
ATOM     18  C   UNL     1      16.375  39.462  50.863  0.00  0.00    +0.000 A 
ATOM     19  C   UNL     1      17.101  40.239  51.773  0.00  0.00    +0.000 A 
ATOM     20  C   UNL     1      18.228  39.705  52.385  0.00  0.00    +0.000 A 
ATOM     21  F   UNL     1      18.927  40.452  53.252  0.00  0.00    +0.000 F 
ATOM     22  C   UNL     1      18.647  38.412  52.102  0.00  0.00    +0.000 A 
ATOM     23  C   UNL     1      17.921  37.639  51.190  0.00  0.00    +0.000 A 
ENDBRANCH  15  17
ENDBRANCH  14  15
ENDBRANCH  11  13
ENDBRANCH   4   7
BRANCH   1  25
ATOM     24  N   UNL     1      14.220  46.899  45.477  0.00  0.00    +0.000 NA
ATOM     25  C   UNL     1      14.040  46.052  44.514  0.00  0.00    +0.000 C 
BRANCH  24  26
ATOM     26  N   UNL     1      13.653  48.117  45.230  0.00  0.00    +0.000 N 
ATOM     27  H   UNL     1      12.865  48.056  44.578  0.00  0.00    +0.000 HD
BRANCH  26  32
ATOM     28  F   UNL     1      16.995  52.191  43.450  0.00  0.00    +0.000 F 
ATOM     29  C   UNL     1      16.198  51.205  43.880  0.00  0.00    +0.000 A 
ATOM     30  C   UNL     1      14.853  51.211  43.529  0.00  0.00    +0.000 A 
ATOM     31  C   UNL     1      14.022  50.176  43.973  0.00  0.00    +0.000 A 
ATOM     32  C   UNL     1      14.540  49.122  44.741  0.00  0.00    +0.000 A 
ATOM     33  C   UNL     1      15.892  49.166  45.117  0.00  0.00    +0.000 A 
ATOM     34  C   UNL     1      16.725  50.195  44.675  0.00  0.00    +0.000 A 
ENDBRANCH  26  32
ENDBRANCH  24  26
ENDBRANCH   1  25
TORSDOF 7
ENDMDL
MODEL 3
REMARK VINA RESULT:    -7.008      0.927     12.216
REMARK INTER + INTRA:         -10.855
REMARK INTER:                  -9.875
REMARK INTRA:                  -0.979
REMARK UNBOUND:                -0.979
REMARK  Name = 
REMARK  7 active torsions:
REMARK  status: ('A' for Active; 'I' for Inactive)
REMARK    1  A    between atoms: C_5  and  N_6
REMARK    2  A    between atoms: N_6  and  N_7
REMARK    3  A    between atoms: C_8  and  C_9
REMARK    4  A    between atoms: C_12  and  C_13
REMARK    5  A    between atoms: C_17  and  C_18
REMARK    6  A    between atoms: N_19  and  N_20
REMARK    7  A    between atoms: N_20  and  C_21
REMARK                            x       y       z     vdW  Elec       q    Type
REMARK                         _______ _______ _______ _____ _____    ______ ____
ROOT
ATOM      1  C   UNL     1      16.020  39.146  47.298  0.00  0.00    +0.000 A 
ATOM      2  C   UNL     1      15.215  40.229  47.653  0.00  0.00    +0.000 A 
ATOM      3  C   UNL     1      14.958  41.239  46.722  0.00  0.00    +0.000 A 
ATOM      4  C   UNL     1      15.501  41.187  45.426  0.00  0.00    +0.000 A 
ATOM      5  C   UNL     1      16.304  40.082  45.089  0.00  0.00    +0.000 A 
ATOM      6  C   UNL     1      16.565  39.068  46.016  0.00  0.00    +0.000 A 
ENDROOT
BRANCH   4   7
ATOM      7  C   UNL     1      15.237  42.258  44.452  0.00  0.00    +0.000 A 
ATOM      8  C   UNL     1      15.499  42.073  43.084  0.00  0.00    +0.000 A 
ATOM      9  C   UNL     1      15.250  43.086  42.153  0.00  0.00    +0.000 A 
ATOM     10  C   UNL     1      14.732  44.307  42.572  0.00  0.00    +0.000 A 
ATOM     11  C   UNL     1      14.466  44.510  43.929  0.00  0.00    +0.000 A 
ATOM     12  C   UNL     1      14.717  43.495  44.861  0.00  0.00    +0.000 A 
BRANCH  11  13
ATOM     13  C   UNL     1      13.924  45.811  44.361  0.00  0.00    +0.000 C 
ATOM     14  N   UNL     1      14.342  46.406  45.437  0.00  0.00    +0.000 NA
BRANCH  14  15
ATOM     15  N   UNL     1      13.715  47.595  45.664  0.00  0.00    +0.000 N 
ATOM     16  H   UNL     1      13.519  47.773  46.654  0.00  0.00    +0.000 HD
BRANCH  15  17
ATOM     17  C   UNL     1      14.331  48.744  45.102  0.00  0.00    +0.000 A 
ATOM     18  C   UNL     1      13.570  49.591  44.279  0.00  0.00    +0.000 A 
ATOM     19  C   UNL     1      14.163  50.687  43.641  0.00  0.00    +0.000 A 
ATOM     20  C   UNL     1      15.523  50.922  43.802  0.00  0.00    +0.000 A 
ATOM     21  F   UNL     1      16.091  51.968  43.186  0.00  0.00    +0.000 F 
ATOM     22  C   UNL     1      16.303  50.080  44.582  0.00  0.00    +0.000 A 
ATOM     23  C   UNL     1      15.709  48.984  45.217  0.00  0.00    +0.000 A 
ENDBRANCH  15  17
ENDBRANCH  14  15
ENDBRANCH  11  13
ENDBRANCH   4   7
BRANCH   1  25
ATOM     24  N   UNL     1      17.067  38.302  49.311  0.00  0.00    +0.000 NA
ATOM     25  C   UNL     1      16.324  38.081  48.273  0.00  0.00    +0.000 C 
BRANCH  24  26
ATOM     26  N   UNL     1      17.262  37.186  50.075  0.00  0.00    +0.000 N 
ATOM     27  H   UNL     1      16.896  37.295  51.026  0.00  0.00    +0.000 HD
BRANCH  26  32
ATOM     28  F   UNL     1      22.467  35.321  50.676  0.00  0.00    +0.000 F 
ATOM     29  C   UNL     1      21.216  35.769  50.522  0.00  0.00    +0.000 A 
ATOM     30  C   UNL     1      20.652  36.576  51.504  0.00  0.00    +0.000 A 
ATOM     31  C   UNL     1      19.346  37.048  51.339  0.00  0.00    +0.000 A 
ATOM     32  C   UNL     1      18.613  36.741  50.182  0.00  0.00    +0.000 A 
ATOM     33  C   UNL     1      19.192  35.887  49.229  0.00  0.00    +0.000 A 
ATOM     34  C   UNL     1      20.496  35.414  49.388  0.00  0.00    +0.000 A 
ENDBRANCH  26  32
ENDBRANCH  24  26
ENDBRANCH   1  25
TORSDOF 7
ENDMDL
