MODEL 1
REMARK VINA RESULT:    -7.141      0.000      0.000
REMARK INTER + INTRA:          -9.012
REMARK INTER:                  -8.382
REMARK INTRA:                  -0.630
REMARK UNBOUND:                -0.619
REMARK  Name = 
REMARK  3 active torsions:
REMARK  status: ('A' for Active; 'I' for Inactive)
REMARK    1  A    between atoms: C_4  and  C_6
REMARK    2  A    between atoms: N_14  and  C_15
REMARK    3  A    between atoms: C_19  and  C_20
REMARK                            x       y       z     vdW  Elec       q    Type
REMARK                         _______ _______ _______ _____ _____    ______ ____
ROOT
ATOM      1  O   UNL     1      13.822  44.606  43.323  0.00  0.00    +0.000 OA
ATOM      2  C   UNL     1      14.665  44.578  44.208  0.00  0.00    +0.000 C 
ATOM      3  N   UNL     1      15.580  43.550  44.371  0.00  0.00    +0.000 N 
ATOM      4  C   UNL     1      15.798  42.622  43.374  0.00  0.00    +0.000 C 
ATOM      5  O   UNL     1      15.850  42.870  42.176  0.00  0.00    +0.000 OA
ATOM      6  N   UNL     1      14.797  45.496  45.239  0.00  0.00    +0.000 N 
ATOM      7  H   UNL     1      15.601  43.226  45.324  0.00  0.00    +0.000 HD
ATOM      8  H   UNL     1      15.662  45.451  45.758  0.00  0.00    +0.000 HD
ENDROOT
BRANCH   4   9
ATOM      9  C   UNL     1      16.105  41.236  43.818  0.00  0.00    +0.000 A 
ATOM     10  C   UNL     1      15.858  40.790  45.119  0.00  0.00    +0.000 A 
ATOM     11  C   UNL     1      16.170  39.476  45.461  0.00  0.00    +0.000 A 
ATOM     12  F   UNL     1      15.928  39.053  46.708  0.00  0.00    +0.000 F 
ATOM     13  C   UNL     1      16.730  38.602  44.539  0.00  0.00    +0.000 A 
ATOM     14  C   UNL     1      16.988  39.060  43.256  0.00  0.00    +0.000 A 
ATOM     15  F   UNL     1      17.537  38.231  42.359  0.00  0.00    +0.000 F 
ATOM     16  C   UNL     1      16.687  40.366  42.885  0.00  0.00    +0.000 A 
ENDBRANCH   4   9
BRANCH   6  17
ATOM     17  C   UNL     1      13.979  46.615  45.506  0.00  0.00    +0.000 A 
ATOM     18  C   UNL     1      12.795  46.385  46.216  0.00  0.00    +0.000 A 
ATOM     19  C   UNL     1      11.929  47.438  46.511  0.00  0.00    +0.000 A 
ATOM     20  C   UNL     1      12.236  48.733  46.095  0.00  0.00    +0.000 A 
ATOM     21  C   UNL     1      13.407  48.990  45.371  0.00  0.00    +0.000 A 
ATOM     22  C   UNL     1      14.277  47.917  45.094  0.00  0.00    +0.000 A 
BRANCH  21  23
ATOM     23  C   UNL     1      13.778  50.396  44.938  0.00  0.00    +0.000 C 
ATOM     24  C   UNL     1      14.504  51.218  46.053  0.00  0.00    +0.000 C 
ATOM     25  N   UNL     1      15.361  52.058  45.248  0.00  0.00    +0.000 N 
ATOM     26  C   UNL     1      16.607  52.607  45.743  0.00  0.00    +0.000 C 
ATOM     27  C   UNL     1      17.358  53.100  44.497  0.00  0.00    +0.000 C 
ATOM     28  S   UNL     1      16.893  51.930  43.162  0.00  0.00    +0.000 S 
ATOM     29  C   UNL     1      15.503  51.412  44.055  0.00  0.00    +0.000 C 
ATOM     30  N   UNL     1      14.699  50.447  43.738  0.00  0.00    +0.000 NA
ENDBRANCH  21  23
ENDBRANCH   6  17
TORSDOF 3
ENDMDL
MODEL 2
REMARK VINA RESULT:    -6.650      3.541      5.701
REMARK INTER + INTRA:          -8.435
REMARK INTER:                  -7.816
REMARK INTRA:                  -0.619
REMARK UNBOUND:                -0.619
REMARK  Name = 
REMARK  3 active torsions:
REMARK  status: ('A' for Active; 'I' for Inactive)
REMARK    1  A    between atoms: C_4  and  C_6
REMARK    2  A    between atoms: N_14  and  C_15
REMARK    3  A    between atoms: C_19  and  C_20
REMARK                            x       y       z     vdW  Elec       q    Type
REMARK                         _______ _______ _______ _____ _____    ______ ____
ROOT
ATOM      1  O   UNL     1      13.713  45.048  43.291  0.00  0.00    +0.000 OA
ATOM      2  C   UNL     1      14.469  44.892  44.240  0.00  0.00    +0.000 C 
ATOM      3  N   UNL     1      15.443  43.909  44.298  0.00  0.00    +0.000 N 
ATOM      4  C   UNL     1      15.828  43.215  43.169  0.00  0.00    +0.000 C 
ATOM      5  O   UNL     1      15.973  43.703  42.055  0.00  0.00    +0.000 OA
ATOM      6  N   UNL     1      14.429  45.589  45.438  0.00  0.00    +0.000 N 
ATOM      7  H   UNL     1      15.400  43.400  45.166  0.00  0.00    +0.000 HD
ATOM      8  H   UNL     1      15.242  45.491  46.029  0.00  0.00    +0.000 HD
ENDROOT
BRANCH   4   9
ATOM      9  C   UNL     1      16.201  41.789  43.364  0.00  0.00    +0.000 A 
ATOM     10  C   UNL     1      16.763  41.012  42.347  0.00  0.00    +0.000 A 
ATOM     11  C   UNL     1      17.089  39.683  42.605  0.00  0.00    +0.000 A 
ATOM     12  F   UNL     1      17.631  38.944  41.629  0.00  0.00    +0.000 F 
ATOM     13  C   UNL     1      16.859  39.109  43.849  0.00  0.00    +0.000 A 
ATOM     14  C   UNL     1      16.283  39.884  44.845  0.00  0.00    +0.000 A 
ATOM     15  F   UNL     1      16.046  39.341  46.046  0.00  0.00    +0.000 F 
ATOM     16  C   UNL     1      15.948  41.213  44.617  0.00  0.00    +0.000 A 
ENDBRANCH   4   9
BRANCH   6  17
ATOM     17  C   UNL     1      13.503  46.581  45.828  0.00  0.00    +0.000 A 
ATOM     18  C   UNL     1      13.826  47.909  45.528  0.00  0.00    +0.000 A 
ATOM     19  C   UNL     1      12.966  48.946  45.888  0.00  0.00    +0.000 A 
ATOM     20  C   UNL     1      11.775  48.667  46.557  0.00  0.00    +0.000 A 
ATOM     21  C   UNL     1      11.433  47.348  46.881  0.00  0.00    +0.000 A 
ATOM     22  C   UNL     1      12.307  46.311  46.497  0.00  0.00    +0.000 A 
BRANCH  21  23
ATOM     23  C   UNL     1      10.126  47.017  47.578  0.00  0.00    +0.000 C 
ATOM     24  C   UNL     1       9.972  45.500  47.919  0.00  0.00    +0.000 C 
ATOM     25  N   UNL     1       9.180  45.578  49.126  0.00  0.00    +0.000 N 
ATOM     26  C   UNL     1       9.204  44.549  50.146  0.00  0.00    +0.000 C 
ATOM     27  C   UNL     1       8.544  45.184  51.379  0.00  0.00    +0.000 C 
ATOM     28  S   UNL     1       9.008  46.958  51.313  0.00  0.00    +0.000 S 
ATOM     29  C   UNL     1       9.391  46.828  49.630  0.00  0.00    +0.000 C 
ATOM     30  N   UNL     1       9.926  47.747  48.889  0.00  0.00    +0.000 NA
ENDBRANCH  21  23
ENDBRANCH   6  17
TORSDOF 3
ENDMDL
MODEL 3
REMARK VINA RESULT:    -6.648      4.902     10.539
REMARK INTER + INTRA:          -8.433
REMARK INTER:                  -7.803
REMARK INTRA:                  -0.630
REMARK UNBOUND:                -0.619
REMARK  Name = 
REMARK  3 active torsions:
REMARK  status: ('A' for Active; 'I' for Inactive)
REMARK    1  A    between atoms: C_4  and  C_6
REMARK    2  A    between atoms: N_14  and  C_15
REMARK    3  A    between atoms: C_19  and  C_20
REMARK                            x       y       z     vdW  Elec       q    Type
REMARK                         _______ _______ _______ _____ _____    ______ ____
ROOT
ATOM      1  O   UNL     1      13.329  43.228  44.698  0.00  0.00    +0.000 OA
ATOM      2  C   UNL     1      14.379  43.734  45.066  0.00  0.00    +0.000 C 
ATOM      3  N   UNL     1      14.476  45.005  45.608  0.00  0.00    +0.000 N 
ATOM      4  C   UNL     1      13.357  45.686  46.040  0.00  0.00    +0.000 C 
ATOM      5  O   UNL     1      12.414  45.186  46.640  0.00  0.00    +0.000 OA
ATOM      6  N   UNL     1      15.643  43.180  44.927  0.00  0.00    +0.000 N 
ATOM      7  H   UNL     1      15.204  45.539  45.161  0.00  0.00    +0.000 HD
ATOM      8  H   UNL     1      16.376  43.621  45.466  0.00  0.00    +0.000 HD
ENDROOT
BRANCH   4   9
ATOM      9  C   UNL     1      13.369  47.161  45.855  0.00  0.00    +0.000 A 
ATOM     10  C   UNL     1      12.333  47.984  46.307  0.00  0.00    +0.000 A 
ATOM     11  C   UNL     1      12.415  49.359  46.098  0.00  0.00    +0.000 A 
ATOM     12  F   UNL     1      11.421  50.144  46.537  0.00  0.00    +0.000 F 
ATOM     13  C   UNL     1      13.499  49.930  45.445  0.00  0.00    +0.000 A 
ATOM     14  C   UNL     1      14.511  49.102  44.985  0.00  0.00    +0.000 A 
ATOM     15  F   UNL     1      15.558  49.637  44.344  0.00  0.00    +0.000 F 
ATOM     16  C   UNL     1      14.458  47.726  45.178  0.00  0.00    +0.000 A 
ENDBRANCH   4   9
BRANCH   6  17
ATOM     17  C   UNL     1      15.987  41.960  44.308  0.00  0.00    +0.000 A 
ATOM     18  C   UNL     1      16.353  42.009  42.958  0.00  0.00    +0.000 A 
ATOM     19  C   UNL     1      16.697  40.843  42.274  0.00  0.00    +0.000 A 
ATOM     20  C   UNL     1      16.674  39.614  42.931  0.00  0.00    +0.000 A 
ATOM     21  C   UNL     1      16.299  39.533  44.278  0.00  0.00    +0.000 A 
ATOM     22  C   UNL     1      15.968  40.722  44.958  0.00  0.00    +0.000 A 
BRANCH  21  23
ATOM     23  C   UNL     1      16.300  38.211  45.023  0.00  0.00    +0.000 C 
ATOM     24  C   UNL     1      17.608  37.381  44.811  0.00  0.00    +0.000 C 
ATOM     25  N   UNL     1      17.698  36.698  46.082  0.00  0.00    +0.000 N 
ATOM     26  C   UNL     1      18.956  36.241  46.638  0.00  0.00    +0.000 C 
ATOM     27  C   UNL     1      18.659  35.928  48.112  0.00  0.00    +0.000 C 
ATOM     28  S   UNL     1      17.383  37.148  48.615  0.00  0.00    +0.000 S 
ATOM     29  C   UNL     1      16.972  37.449  46.960  0.00  0.00    +0.000 C 
ATOM     30  N   UNL     1      16.151  38.350  46.523  0.00  0.00    +0.000 NA
ENDBRANCH  21  23
ENDBRANCH   6  17
TORSDOF 3
ENDMDL
