MODEL 1
REMARK VINA RESULT:    -7.362      0.000      0.000
REMARK INTER + INTRA:          -9.194
REMARK INTER:                  -8.693
REMARK INTRA:                  -0.501
REMARK UNBOUND:                -0.542
REMARK  Name = 
REMARK  3 active torsions:
REMARK  status: ('A' for Active; 'I' for Inactive)
REMARK    1  A    between atoms: N_3  and  C_4
REMARK    2  A    between atoms: N_13  and  C_14
REMARK    3  A    between atoms: C_14  and  C_15
REMARK                            x       y       z     vdW  Elec       q    Type
REMARK                         _______ _______ _______ _____ _____    ______ ____
ROOT
ATOM      1  O   UNL     1      15.143  43.480  43.336  0.00  0.00    +0.000 OA
ATOM      2  C   UNL     1      15.028  42.943  44.428  0.00  0.00    +0.000 A 
ATOM      3  N   UNL     1      14.427  43.467  45.609  0.00  0.00    +0.000 N 
ATOM      4  N   UNL     1      14.506  42.543  46.640  0.00  0.00    +0.000 NA
ATOM      5  C   UNL     1      15.115  41.540  46.084  0.00  0.00    +0.000 A 
ATOM      6  C   UNL     1      15.463  40.247  46.784  0.00  0.00    +0.000 A 
ATOM      7  N   UNL     1      15.085  40.123  48.100  0.00  0.00    +0.000 N 
ATOM      8  N   UNL     1      16.100  39.311  46.139  0.00  0.00    +0.000 NA
ATOM      9  C   UNL     1      16.445  39.511  44.784  0.00  0.00    +0.000 A 
ATOM     10  C   UNL     1      17.121  38.483  44.122  0.00  0.00    +0.000 A 
ATOM     11  C   UNL     1      17.487  38.620  42.783  0.00  0.00    +0.000 A 
ATOM     12  C   UNL     1      17.180  39.791  42.093  0.00  0.00    +0.000 A 
ATOM     13  C   UNL     1      16.504  40.829  42.738  0.00  0.00    +0.000 A 
ATOM     14  C   UNL     1      16.136  40.693  44.079  0.00  0.00    +0.000 A 
ATOM     15  N   UNL     1      15.462  41.686  44.790  0.00  0.00    +0.000 N 
ATOM     16  H   UNL     1      14.773  40.976  48.558  0.00  0.00    +0.000 HD
ENDROOT
BRANCH   3  17
ATOM     17  C   UNL     1      13.814  44.720  45.826  0.00  0.00    +0.000 A 
ATOM     18  C   UNL     1      14.409  45.918  45.413  0.00  0.00    +0.000 A 
ATOM     19  C   UNL     1      13.782  47.147  45.640  0.00  0.00    +0.000 A 
ATOM     20  C   UNL     1      12.549  47.198  46.285  0.00  0.00    +0.000 A 
ATOM     21  C   UNL     1      11.941  46.018  46.702  0.00  0.00    +0.000 A 
ATOM     22  C   UNL     1      12.569  44.790  46.474  0.00  0.00    +0.000 A 
ENDBRANCH   3  17
BRANCH   7  23
ATOM     23  C   UNL     1      15.637  39.111  48.969  0.00  0.00    +0.000 C 
BRANCH  23  24
ATOM     24  C   UNL     1      16.098  39.753  50.254  0.00  0.00    +0.000 A 
ATOM     25  C   UNL     1      17.296  39.354  50.864  0.00  0.00    +0.000 A 
ATOM     26  C   UNL     1      17.730  39.968  52.039  0.00  0.00    +0.000 A 
ATOM     27  C   UNL     1      16.977  40.991  52.612  0.00  0.00    +0.000 A 
ATOM     28  C   UNL     1      15.791  41.405  52.008  0.00  0.00    +0.000 A 
ATOM     29  C   UNL     1      15.355  40.792  50.833  0.00  0.00    +0.000 A 
ENDBRANCH  23  24
ENDBRANCH   7  23
TORSDOF 3
ENDMDL
MODEL 2
REMARK VINA RESULT:    -6.765      4.443      7.709
REMARK INTER + INTRA:          -8.493
REMARK INTER:                  -7.861
REMARK INTRA:                  -0.632
REMARK UNBOUND:                -0.542
REMARK  Name = 
REMARK  3 active torsions:
REMARK  status: ('A' for Active; 'I' for Inactive)
REMARK    1  A    between atoms: N_3  and  C_4
REMARK    2  A    between atoms: N_13  and  C_14
REMARK    3  A    between atoms: C_14  and  C_15
REMARK                            x       y       z     vdW  Elec       q    Type
REMARK                         _______ _______ _______ _____ _____    ______ ____
ROOT
ATOM      1  O   UNL     1      12.280  49.019  46.313  0.00  0.00    +0.000 OA
ATOM      2  C   UNL     1      13.030  48.144  45.907  0.00  0.00    +0.000 A 
ATOM      3  N   UNL     1      14.218  48.290  45.135  0.00  0.00    +0.000 N 
ATOM      4  N   UNL     1      14.779  47.048  44.874  0.00  0.00    +0.000 NA
ATOM      5  C   UNL     1      13.962  46.231  45.468  0.00  0.00    +0.000 A 
ATOM      6  C   UNL     1      14.110  44.728  45.489  0.00  0.00    +0.000 A 
ATOM      7  N   UNL     1      15.204  44.195  44.849  0.00  0.00    +0.000 N 
ATOM      8  N   UNL     1      13.217  43.996  46.094  0.00  0.00    +0.000 NA
ATOM      9  C   UNL     1      12.126  44.622  46.738  0.00  0.00    +0.000 A 
ATOM     10  C   UNL     1      11.193  43.807  47.382  0.00  0.00    +0.000 A 
ATOM     11  C   UNL     1      10.094  44.364  48.037  0.00  0.00    +0.000 A 
ATOM     12  C   UNL     1       9.920  45.746  48.052  0.00  0.00    +0.000 A 
ATOM     13  C   UNL     1      10.844  46.577  47.414  0.00  0.00    +0.000 A 
ATOM     14  C   UNL     1      11.945  46.020  46.757  0.00  0.00    +0.000 A 
ATOM     15  N   UNL     1      12.907  46.784  46.097  0.00  0.00    +0.000 N 
ATOM     16  H   UNL     1      15.725  44.830  44.250  0.00  0.00    +0.000 HD
ENDROOT
BRANCH   3  17
ATOM     17  C   UNL     1      14.834  49.461  44.644  0.00  0.00    +0.000 A 
ATOM     18  C   UNL     1      14.144  50.383  43.848  0.00  0.00    +0.000 A 
ATOM     19  C   UNL     1      14.776  51.537  43.372  0.00  0.00    +0.000 A 
ATOM     20  C   UNL     1      16.109  51.787  43.687  0.00  0.00    +0.000 A 
ATOM     21  C   UNL     1      16.811  50.883  44.477  0.00  0.00    +0.000 A 
ATOM     22  C   UNL     1      16.178  49.731  44.952  0.00  0.00    +0.000 A 
ENDBRANCH   3  17
BRANCH   7  23
ATOM     23  C   UNL     1      15.289  42.795  44.505  0.00  0.00    +0.000 C 
BRANCH  23  24
ATOM     24  C   UNL     1      14.947  42.619  43.046  0.00  0.00    +0.000 A 
ATOM     25  C   UNL     1      15.115  43.675  42.138  0.00  0.00    +0.000 A 
ATOM     26  C   UNL     1      14.819  43.499  40.786  0.00  0.00    +0.000 A 
ATOM     27  C   UNL     1      14.360  42.267  40.326  0.00  0.00    +0.000 A 
ATOM     28  C   UNL     1      14.200  41.207  41.216  0.00  0.00    +0.000 A 
ATOM     29  C   UNL     1      14.494  41.380  42.569  0.00  0.00    +0.000 A 
ENDBRANCH  23  24
ENDBRANCH   7  23
TORSDOF 3
ENDMDL
MODEL 3
REMARK VINA RESULT:    -6.663      1.728      6.302
REMARK INTER + INTRA:          -8.373
REMARK INTER:                  -7.831
REMARK INTRA:                  -0.542
REMARK UNBOUND:                -0.542
REMARK  Name = 
REMARK  3 active torsions:
REMARK  status: ('A' for Active; 'I' for Inactive)
REMARK    1  A    between atoms: N_3  and  C_4
REMARK    2  A    between atoms: N_13  and  C_14
REMARK    3  A    between atoms: C_14  and  C_15
REMARK                            x       y       z     vdW  Elec       q    Type
REMARK                         _______ _______ _______ _____ _____    ______ ____
ROOT
ATOM      1  O   UNL     1      15.668  38.510  47.149  0.00  0.00    +0.000 OA
ATOM      2  C   UNL     1      15.401  39.693  46.999  0.00  0.00    +0.000 A 
ATOM      3  N   UNL     1      14.791  40.584  47.929  0.00  0.00    +0.000 N 
ATOM      4  N   UNL     1      14.655  41.846  47.369  0.00  0.00    +0.000 NA
ATOM      5  C   UNL     1      15.164  41.692  46.183  0.00  0.00    +0.000 A 
ATOM      6  C   UNL     1      15.262  42.781  45.140  0.00  0.00    +0.000 A 
ATOM      7  N   UNL     1      14.796  44.027  45.486  0.00  0.00    +0.000 N 
ATOM      8  N   UNL     1      15.768  42.515  43.970  0.00  0.00    +0.000 NA
ATOM      9  C   UNL     1      16.235  41.209  43.695  0.00  0.00    +0.000 A 
ATOM     10  C   UNL     1      16.777  40.962  42.432  0.00  0.00    +0.000 A 
ATOM     11  C   UNL     1      17.256  39.694  42.100  0.00  0.00    +0.000 A 
ATOM     12  C   UNL     1      17.195  38.661  43.032  0.00  0.00    +0.000 A 
ATOM     13  C   UNL     1      16.657  38.890  44.300  0.00  0.00    +0.000 A 
ATOM     14  C   UNL     1      16.177  40.160  44.634  0.00  0.00    +0.000 A 
ATOM     15  N   UNL     1      15.623  40.463  45.878  0.00  0.00    +0.000 N 
ATOM     16  H   UNL     1      14.249  44.078  46.342  0.00  0.00    +0.000 HD
ENDROOT
BRANCH   3  17
ATOM     17  C   UNL     1      14.344  40.342  49.245  0.00  0.00    +0.000 A 
ATOM     18  C   UNL     1      15.226  39.991  50.274  0.00  0.00    +0.000 A 
ATOM     19  C   UNL     1      14.759  39.757  51.572  0.00  0.00    +0.000 A 
ATOM     20  C   UNL     1      13.402  39.870  51.861  0.00  0.00    +0.000 A 
ATOM     21  C   UNL     1      12.510  40.219  50.852  0.00  0.00    +0.000 A 
ATOM     22  C   UNL     1      12.979  40.453  49.555  0.00  0.00    +0.000 A 
ENDBRANCH   3  17
BRANCH   7  23
ATOM     23  C   UNL     1      14.520  45.048  44.503  0.00  0.00    +0.000 C 
BRANCH  23  24
ATOM     24  C   UNL     1      13.723  46.156  45.146  0.00  0.00    +0.000 A 
ATOM     25  C   UNL     1      12.682  45.864  46.039  0.00  0.00    +0.000 A 
ATOM     26  C   UNL     1      11.964  46.894  46.649  0.00  0.00    +0.000 A 
ATOM     27  C   UNL     1      12.282  48.223  46.378  0.00  0.00    +0.000 A 
ATOM     28  C   UNL     1      13.321  48.525  45.500  0.00  0.00    +0.000 A 
ATOM     29  C   UNL     1      14.041  47.498  44.889  0.00  0.00    +0.000 A 
ENDBRANCH  23  24
ENDBRANCH   7  23
TORSDOF 3
ENDMDL
