MODEL 1
REMARK VINA RESULT:    -7.582      0.000      0.000
REMARK INTER + INTRA:         -10.677
REMARK INTER:                  -9.783
REMARK INTRA:                  -0.894
REMARK UNBOUND:                -0.879
REMARK  Name = 
REMARK  6 active torsions:
REMARK  status: ('A' for Active; 'I' for Inactive)
REMARK    1  A    between atoms: O_1  and  C_2
REMARK    2  A    between atoms: C_5  and  C_6
REMARK    3  A    between atoms: C_11  and  C_12
REMARK    4  A    between atoms: C_15  and  C_16
REMARK    5  A    between atoms: C_21  and  C_22
REMARK    6  A    between atoms: C_25  and  O_26
REMARK                            x       y       z     vdW  Elec       q    Type
REMARK                         _______ _______ _______ _____ _____    ______ ____
ROOT
ATOM      1  C   UNL     1      14.882  43.149  53.429  0.00  0.00    +0.000 A 
ATOM      2  C   UNL     1      16.093  42.982  52.746  0.00  0.00    +0.000 A 
ATOM      3  C   UNL     1      16.720  41.729  52.693  0.00  0.00    +0.000 A 
ATOM      4  C   UNL     1      16.156  40.612  53.324  0.00  0.00    +0.000 A 
ATOM      5  C   UNL     1      14.947  40.786  54.013  0.00  0.00    +0.000 A 
ATOM      6  C   UNL     1      14.318  42.037  54.065  0.00  0.00    +0.000 A 
ENDROOT
BRANCH   1  12
ATOM      7  C   UNL     1      13.178  48.959  53.477  0.00  0.00    +0.000 A 
ATOM      8  C   UNL     1      11.891  48.457  53.703  0.00  0.00    +0.000 A 
ATOM      9  C   UNL     1      11.666  47.077  53.784  0.00  0.00    +0.000 A 
ATOM     10  C   UNL     1      12.749  46.190  53.643  0.00  0.00    +0.000 A 
ATOM     11  C   UNL     1      12.881  44.775  53.673  0.00  0.00    +0.000 A 
ATOM     12  C   UNL     1      14.217  44.451  53.488  0.00  0.00    +0.000 A 
ATOM     13  N   UNL     1      14.885  45.646  53.334  0.00  0.00    +0.000 N 
ATOM     14  C   UNL     1      14.021  46.712  53.430  0.00  0.00    +0.000 A 
ATOM     15  C   UNL     1      14.269  48.087  53.344  0.00  0.00    +0.000 A 
ATOM     16  H   UNL     1      15.875  45.733  53.158  0.00  0.00    +0.000 HD
BRANCH   7  20
ATOM     17  C   UNL     1      14.190  53.100  53.610  0.00  0.00    +0.000 C 
ATOM     18  C   UNL     1      14.482  52.303  52.339  0.00  0.00    +0.000 C 
ATOM     19  N   UNL     1      14.249  50.857  52.492  0.00  0.00    +0.000 NA
ATOM     20  C   UNL     1      13.414  50.441  53.385  0.00  0.00    +0.000 C 
ATOM     21  N   UNL     1      12.744  51.268  54.260  0.00  0.00    +0.000 N 
ATOM     22  C   UNL     1      12.805  52.712  54.117  0.00  0.00    +0.000 C 
ATOM     23  H   UNL     1      11.874  50.916  54.647  0.00  0.00    +0.000 HD
BRANCH  17  24
ATOM     24  O   UNL     1      15.180  52.811  54.608  0.00  0.00    +0.000 OA
ATOM     25  H   UNL     1      14.788  53.130  55.447  0.00  0.00    +0.000 HD
ENDBRANCH  17  24
ENDBRANCH   7  20
ENDBRANCH   1  12
BRANCH   4  26
ATOM     26  C   UNL     1      16.816  39.310  53.265  0.00  0.00    +0.000 A 
ATOM     27  C   UNL     1      16.696  38.132  53.980  0.00  0.00    +0.000 A 
ATOM     28  C   UNL     1      17.624  37.211  53.427  0.00  0.00    +0.000 A 
ATOM     29  C   UNL     1      17.989  35.879  53.681  0.00  0.00    +0.000 A 
ATOM     30  C   UNL     1      18.984  35.291  52.882  0.00  0.00    +0.000 A 
ATOM     31  C   UNL     1      19.603  36.012  51.849  0.00  0.00    +0.000 A 
ATOM     32  C   UNL     1      19.239  37.339  51.579  0.00  0.00    +0.000 A 
ATOM     33  C   UNL     1      18.255  37.890  52.394  0.00  0.00    +0.000 A 
ATOM     34  O   UNL     1      17.774  39.159  52.300  0.00  0.00    +0.000 OA
BRANCH  31  35
ATOM     35  C   UNL     1      20.662  35.364  51.006  0.00  0.00    +0.000 C 
ATOM     36  N   UNL     1      21.626  34.767  51.622  0.00  0.00    +0.000 NA
ATOM     37  C   UNL     1      22.667  34.095  50.834  0.00  0.00    +0.000 C 
ATOM     38  C   UNL     1      22.831  34.672  49.430  0.00  0.00    +0.000 C 
ATOM     39  C   UNL     1      21.449  34.703  48.786  0.00  0.00    +0.000 C 
ATOM     40  N   UNL     1      20.546  35.448  49.634  0.00  0.00    +0.000 N 
ATOM     41  H   UNL     1      19.604  35.537  49.270  0.00  0.00    +0.000 HD
BRANCH  38  42
ATOM     42  O   UNL     1      23.731  33.871  48.665  0.00  0.00    +0.000 OA
ATOM     43  H   UNL     1      23.356  32.973  48.628  0.00  0.00    +0.000 HD
ENDBRANCH  38  42
ENDBRANCH  31  35
ENDBRANCH   4  26
TORSDOF 6
ENDMDL
MODEL 2
REMARK VINA RESULT:    -7.580      8.061      9.498
REMARK INTER + INTRA:         -10.675
REMARK INTER:                  -9.796
REMARK INTRA:                  -0.879
REMARK UNBOUND:                -0.879
REMARK  Name = 
REMARK  6 active torsions:
REMARK  status: ('A' for Active; 'I' for Inactive)
REMARK    1  A    between atoms: O_1  and  C_2
REMARK    2  A    between atoms: C_5  and  C_6
REMARK    3  A    between atoms: C_11  and  C_12
REMARK    4  A    between atoms: C_15  and  C_16
REMARK    5  A    between atoms: C_21  and  C_22
REMARK    6  A    between atoms: C_25  and  O_26
REMARK                            x       y       z     vdW  Elec       q    Type
REMARK                         _______ _______ _______ _____ _____    ______ ____
ROOT
ATOM      1  C   UNL     1      17.289  38.045  48.682  0.00  0.00    +0.000 A 
ATOM      2  C   UNL     1      17.859  36.778  48.852  0.00  0.00    +0.000 A 
ATOM      3  C   UNL     1      18.124  36.277  50.134  0.00  0.00    +0.000 A 
ATOM      4  C   UNL     1      17.831  37.029  51.279  0.00  0.00    +0.000 A 
ATOM      5  C   UNL     1      17.267  38.302  51.103  0.00  0.00    +0.000 A 
ATOM      6  C   UNL     1      17.000  38.803  49.822  0.00  0.00    +0.000 A 
ENDROOT
BRANCH   1  12
ATOM      7  C   UNL     1      15.551  41.076  43.737  0.00  0.00    +0.000 A 
ATOM      8  C   UNL     1      16.243  40.085  43.031  0.00  0.00    +0.000 A 
ATOM      9  C   UNL     1      16.900  39.051  43.708  0.00  0.00    +0.000 A 
ATOM     10  C   UNL     1      16.856  39.008  45.114  0.00  0.00    +0.000 A 
ATOM     11  C   UNL     1      17.389  38.128  46.095  0.00  0.00    +0.000 A 
ATOM     12  C   UNL     1      17.004  38.578  47.349  0.00  0.00    +0.000 A 
ATOM     13  N   UNL     1      16.262  39.720  47.137  0.00  0.00    +0.000 N 
ATOM     14  C   UNL     1      16.153  39.997  45.794  0.00  0.00    +0.000 A 
ATOM     15  C   UNL     1      15.489  41.041  45.138  0.00  0.00    +0.000 A 
ATOM     16  H   UNL     1      15.862  40.290  47.868  0.00  0.00    +0.000 HD
BRANCH   7  20
ATOM     17  C   UNL     1      14.008  44.280  41.382  0.00  0.00    +0.000 C 
ATOM     18  C   UNL     1      13.330  42.913  41.315  0.00  0.00    +0.000 C 
ATOM     19  N   UNL     1      14.066  41.861  42.033  0.00  0.00    +0.000 NA
ATOM     20  C   UNL     1      14.851  42.188  43.005  0.00  0.00    +0.000 C 
ATOM     21  N   UNL     1      15.093  43.486  43.398  0.00  0.00    +0.000 N 
ATOM     22  C   UNL     1      14.329  44.589  42.841  0.00  0.00    +0.000 C 
ATOM     23  H   UNL     1      15.403  43.625  44.354  0.00  0.00    +0.000 HD
BRANCH  17  24
ATOM     24  O   UNL     1      15.213  44.269  40.603  0.00  0.00    +0.000 OA
ATOM     25  H   UNL     1      15.573  45.176  40.689  0.00  0.00    +0.000 HD
ENDBRANCH  17  24
ENDBRANCH   7  20
ENDBRANCH   1  12
BRANCH   4  26
ATOM     26  C   UNL     1      18.111  36.501  52.612  0.00  0.00    +0.000 A 
ATOM     27  C   UNL     1      17.398  36.436  53.795  0.00  0.00    +0.000 A 
ATOM     28  C   UNL     1      18.226  35.783  54.746  0.00  0.00    +0.000 A 
ATOM     29  C   UNL     1      18.104  35.406  56.094  0.00  0.00    +0.000 A 
ATOM     30  C   UNL     1      19.181  34.746  56.707  0.00  0.00    +0.000 A 
ATOM     31  C   UNL     1      20.358  34.465  55.996  0.00  0.00    +0.000 A 
ATOM     32  C   UNL     1      20.488  34.826  54.648  0.00  0.00    +0.000 A 
ATOM     33  C   UNL     1      19.403  35.483  54.075  0.00  0.00    +0.000 A 
ATOM     34  O   UNL     1      19.338  35.922  52.789  0.00  0.00    +0.000 OA
BRANCH  31  35
ATOM     35  C   UNL     1      21.496  33.757  56.671  0.00  0.00    +0.000 C 
ATOM     36  N   UNL     1      21.199  32.800  57.484  0.00  0.00    +0.000 NA
ATOM     37  C   UNL     1      22.285  32.063  58.143  0.00  0.00    +0.000 C 
ATOM     38  C   UNL     1      23.574  32.870  58.272  0.00  0.00    +0.000 C 
ATOM     39  C   UNL     1      23.909  33.416  56.888  0.00  0.00    +0.000 C 
ATOM     40  N   UNL     1      22.781  34.171  56.390  0.00  0.00    +0.000 N 
ATOM     41  H   UNL     1      22.926  34.591  55.478  0.00  0.00    +0.000 HD
BRANCH  38  42
ATOM     42  O   UNL     1      24.631  32.045  58.761  0.00  0.00    +0.000 OA
ATOM     43  H   UNL     1      25.307  32.636  59.137  0.00  0.00    +0.000 HD
ENDBRANCH  38  42
ENDBRANCH  31  35
ENDBRANCH   4  26
TORSDOF 6
ENDMDL
MODEL 3
REMARK VINA RESULT:    -7.304      7.593     13.932
REMARK INTER + INTRA:         -10.319
REMARK INTER:                  -9.439
REMARK INTRA:                  -0.879
REMARK UNBOUND:                -0.879
REMARK  Name = 
REMARK  6 active torsions:
REMARK  status: ('A' for Active; 'I' for Inactive)
REMARK    1  A    between atoms: O_1  and  C_2
REMARK    2  A    between atoms: C_5  and  C_6
REMARK    3  A    between atoms: C_11  and  C_12
REMARK    4  A    between atoms: C_15  and  C_16
REMARK    5  A    between atoms: C_21  and  C_22
REMARK    6  A    between atoms: C_25  and  O_26
REMARK                            x       y       z     vdW  Elec       q    Type
REMARK                         _______ _______ _______ _____ _____    ______ ____
ROOT
ATOM      1  C   UNL     1      18.563  36.932  50.745  0.00  0.00    +0.000 A 
ATOM      2  C   UNL     1      18.233  36.574  49.433  0.00  0.00    +0.000 A 
ATOM      3  C   UNL     1      17.374  37.373  48.665  0.00  0.00    +0.000 A 
ATOM      4  C   UNL     1      16.819  38.547  49.190  0.00  0.00    +0.000 A 
ATOM      5  C   UNL     1      17.145  38.898  50.508  0.00  0.00    +0.000 A 
ATOM      6  C   UNL     1      18.005  38.101  51.276  0.00  0.00    +0.000 A 
ENDROOT
BRANCH   1  12
ATOM      7  C   UNL     1      21.555  33.769  54.953  0.00  0.00    +0.000 A 
ATOM      8  C   UNL     1      22.437  33.449  53.916  0.00  0.00    +0.000 A 
ATOM      9  C   UNL     1      22.223  33.933  52.619  0.00  0.00    +0.000 A 
ATOM     10  C   UNL     1      21.109  34.755  52.363  0.00  0.00    +0.000 A 
ATOM     11  C   UNL     1      20.604  35.405  51.205  0.00  0.00    +0.000 A 
ATOM     12  C   UNL     1      19.461  36.108  51.555  0.00  0.00    +0.000 A 
ATOM     13  N   UNL     1      19.265  35.879  52.900  0.00  0.00    +0.000 N 
ATOM     14  C   UNL     1      20.252  35.069  53.413  0.00  0.00    +0.000 A 
ATOM     15  C   UNL     1      20.446  34.596  54.716  0.00  0.00    +0.000 A 
ATOM     16  H   UNL     1      18.493  36.242  53.439  0.00  0.00    +0.000 HD
BRANCH   7  20
ATOM     17  C   UNL     1      22.177  31.797  58.683  0.00  0.00    +0.000 C 
ATOM     18  C   UNL     1      23.279  32.695  58.123  0.00  0.00    +0.000 C 
ATOM     19  N   UNL     1      23.007  33.166  56.755  0.00  0.00    +0.000 NA
ATOM     20  C   UNL     1      21.786  33.243  56.342  0.00  0.00    +0.000 C 
ATOM     21  N   UNL     1      20.694  32.861  57.090  0.00  0.00    +0.000 N 
ATOM     22  C   UNL     1      20.837  32.499  58.489  0.00  0.00    +0.000 C 
ATOM     23  H   UNL     1      19.804  33.286  56.851  0.00  0.00    +0.000 HD
BRANCH  17  24
ATOM     24  O   UNL     1      22.177  30.535  58.000  0.00  0.00    +0.000 OA
ATOM     25  H   UNL     1      23.113  30.383  57.757  0.00  0.00    +0.000 HD
ENDBRANCH  17  24
ENDBRANCH   7  20
ENDBRANCH   1  12
BRANCH   4  26
ATOM     26  C   UNL     1      15.923  39.374  48.385  0.00  0.00    +0.000 A 
ATOM     27  C   UNL     1      14.668  39.919  48.586  0.00  0.00    +0.000 A 
ATOM     28  C   UNL     1      14.334  40.644  47.412  0.00  0.00    +0.000 A 
ATOM     29  C   UNL     1      13.239  41.413  46.983  0.00  0.00    +0.000 A 
ATOM     30  C   UNL     1      13.287  41.996  45.706  0.00  0.00    +0.000 A 
ATOM     31  C   UNL     1      14.402  41.821  44.871  0.00  0.00    +0.000 A 
ATOM     32  C   UNL     1      15.505  41.066  45.292  0.00  0.00    +0.000 A 
ATOM     33  C   UNL     1      15.420  40.498  46.559  0.00  0.00    +0.000 A 
ATOM     34  O   UNL     1      16.376  39.725  47.142  0.00  0.00    +0.000 OA
BRANCH  31  35
ATOM     35  C   UNL     1      14.433  42.456  43.511  0.00  0.00    +0.000 C 
ATOM     36  N   UNL     1      14.793  41.714  42.519  0.00  0.00    +0.000 NA
ATOM     37  C   UNL     1      14.808  42.289  41.168  0.00  0.00    +0.000 C 
ATOM     38  C   UNL     1      14.986  43.805  41.157  0.00  0.00    +0.000 C 
ATOM     39  C   UNL     1      13.941  44.393  42.100  0.00  0.00    +0.000 C 
ATOM     40  N   UNL     1      14.083  43.786  43.404  0.00  0.00    +0.000 N 
ATOM     41  H   UNL     1      13.437  44.136  44.104  0.00  0.00    +0.000 HD
BRANCH  38  42
ATOM     42  O   UNL     1      14.822  44.316  39.835  0.00  0.00    +0.000 OA
ATOM     43  H   UNL     1      14.292  45.129  39.905  0.00  0.00    +0.000 HD
ENDBRANCH  38  42
ENDBRANCH  31  35
ENDBRANCH   4  26
TORSDOF 6
ENDMDL
