MODEL 1
REMARK VINA RESULT:    -7.230      0.000      0.000
REMARK INTER + INTRA:         -10.239
REMARK INTER:                  -9.541
REMARK INTRA:                  -0.697
REMARK UNBOUND:                -0.896
REMARK  Name = 
REMARK  6 active torsions:
REMARK  status: ('A' for Active; 'I' for Inactive)
REMARK    1  A    between atoms: C_1  and  N_2
REMARK    2  A    between atoms: N_2  and  C_3
REMARK    3  A    between atoms: N_2  and  S_26
REMARK    4  A    between atoms: C_7  and  C_8
REMARK    5  A    between atoms: C_9  and  C_10
REMARK    6  A    between atoms: S_26  and  C_29
REMARK                            x       y       z     vdW  Elec       q    Type
REMARK                         _______ _______ _______ _____ _____    ______ ____
ROOT
ATOM      1  C   UNL     1      13.785  49.392  45.591  0.00  0.00    +0.000 A 
ATOM      2  C   UNL     1      14.727  48.472  45.138  0.00  0.00    +0.000 A 
ATOM      3  C   UNL     1      14.496  47.102  45.295  0.00  0.00    +0.000 A 
ATOM      4  C   UNL     1      13.326  46.613  45.922  0.00  0.00    +0.000 A 
ATOM      5  C   UNL     1      13.049  45.231  46.105  0.00  0.00    +0.000 A 
ATOM      6  C   UNL     1      11.861  44.826  46.733  0.00  0.00    +0.000 A 
ATOM      7  C   UNL     1      10.945  45.770  47.186  0.00  0.00    +0.000 A 
ATOM      8  C   UNL     1      11.206  47.127  47.016  0.00  0.00    +0.000 A 
ATOM      9  C   UNL     1      12.383  47.562  46.389  0.00  0.00    +0.000 A 
ATOM     10  C   UNL     1      12.629  48.936  46.223  0.00  0.00    +0.000 A 
ENDROOT
BRANCH   1  12
ATOM     11  C   UNL     1      13.435  51.671  46.543  0.00  0.00    +0.000 C 
ATOM     12  N   UNL     1      14.010  50.809  45.492  0.00  0.00    +0.000 N 
BRANCH  12  13
ATOM     13  S   UNL     1      14.041  51.465  43.896  0.00  0.00    +0.000 S 
ATOM     14  O   UNL     1      13.340  52.739  43.925  0.00  0.00    +0.000 OA
ATOM     15  O   UNL     1      13.540  50.413  43.021  0.00  0.00    +0.000 OA
BRANCH  13  16
ATOM     16  C   UNL     1      15.847  51.744  43.550  0.00  0.00    +0.000 C 
ATOM     17  F   UNL     1      16.435  52.573  44.459  0.00  0.00    +0.000 F 
ATOM     18  F   UNL     1      16.059  52.297  42.322  0.00  0.00    +0.000 F 
ATOM     19  F   UNL     1      16.559  50.578  43.580  0.00  0.00    +0.000 F 
ENDBRANCH  13  16
ENDBRANCH  12  13
ENDBRANCH   1  12
BRANCH   5  20
ATOM     20  C   UNL     1      13.991  44.185  45.672  0.00  0.00    +0.000 C 
ATOM     21  C   UNL     1      13.940  42.940  46.172  0.00  0.00    +0.000 C 
BRANCH  21  22
ATOM     22  C   UNL     1      14.833  41.828  45.825  0.00  0.00    +0.000 A 
ATOM     23  C   UNL     1      15.323  41.604  44.545  0.00  0.00    +0.000 A 
ATOM     24  C   UNL     1      16.147  40.503  44.327  0.00  0.00    +0.000 A 
ATOM     25  C   UNL     1      16.457  39.646  45.388  0.00  0.00    +0.000 A 
ATOM     26  C   UNL     1      17.285  38.524  45.215  0.00  0.00    +0.000 A 
ATOM     27  C   UNL     1      17.567  37.695  46.298  0.00  0.00    +0.000 A 
ATOM     28 CL   UNL     1      18.580  36.322  46.087  0.00  0.00    +0.000 Cl
ATOM     29  C   UNL     1      17.030  37.975  47.549  0.00  0.00    +0.000 A 
ATOM     30  C   UNL     1      16.207  39.095  47.712  0.00  0.00    +0.000 A 
ATOM     31  C   UNL     1      15.908  39.941  46.653  0.00  0.00    +0.000 A 
ATOM     32  N   UNL     1      15.111  41.002  46.862  0.00  0.00    +0.000 NA
ENDBRANCH  21  22
ENDBRANCH   5  20
TORSDOF 5
ENDMDL
MODEL 2
REMARK VINA RESULT:    -7.219      1.082      1.545
REMARK INTER + INTRA:         -10.224
REMARK INTER:                  -9.477
REMARK INTRA:                  -0.747
REMARK UNBOUND:                -0.896
REMARK  Name = 
REMARK  6 active torsions:
REMARK  status: ('A' for Active; 'I' for Inactive)
REMARK    1  A    between atoms: C_1  and  N_2
REMARK    2  A    between atoms: N_2  and  C_3
REMARK    3  A    between atoms: N_2  and  S_26
REMARK    4  A    between atoms: C_7  and  C_8
REMARK    5  A    between atoms: C_9  and  C_10
REMARK    6  A    between atoms: S_26  and  C_29
REMARK                            x       y       z     vdW  Elec       q    Type
REMARK                         _______ _______ _______ _____ _____    ______ ____
ROOT
ATOM      1  C   UNL     1      14.143  49.750  45.446  0.00  0.00    +0.000 A 
ATOM      2  C   UNL     1      15.044  48.764  45.053  0.00  0.00    +0.000 A 
ATOM      3  C   UNL     1      14.731  47.415  45.247  0.00  0.00    +0.000 A 
ATOM      4  C   UNL     1      13.516  47.014  45.850  0.00  0.00    +0.000 A 
ATOM      5  C   UNL     1      13.154  45.657  46.067  0.00  0.00    +0.000 A 
ATOM      6  C   UNL     1      11.926  45.341  46.669  0.00  0.00    +0.000 A 
ATOM      7  C   UNL     1      11.052  46.350  47.061  0.00  0.00    +0.000 A 
ATOM      8  C   UNL     1      11.396  47.683  46.856  0.00  0.00    +0.000 A 
ATOM      9  C   UNL     1      12.614  48.030  46.255  0.00  0.00    +0.000 A 
ATOM     10  C   UNL     1      12.944  49.381  46.054  0.00  0.00    +0.000 A 
ENDROOT
BRANCH   1  12
ATOM     11  C   UNL     1      13.958  52.066  46.354  0.00  0.00    +0.000 C 
ATOM     12  N   UNL     1      14.452  51.148  45.309  0.00  0.00    +0.000 N 
BRANCH  12  13
ATOM     13  S   UNL     1      14.482  51.767  43.698  0.00  0.00    +0.000 S 
ATOM     14  O   UNL     1      13.810  53.056  43.704  0.00  0.00    +0.000 OA
ATOM     15  O   UNL     1      13.951  50.707  42.852  0.00  0.00    +0.000 OA
BRANCH  13  16
ATOM     16  C   UNL     1      16.291  51.998  43.329  0.00  0.00    +0.000 C 
ATOM     17  F   UNL     1      17.015  50.856  43.511  0.00  0.00    +0.000 F 
ATOM     18  F   UNL     1      16.861  52.953  44.117  0.00  0.00    +0.000 F 
ATOM     19  F   UNL     1      16.503  52.383  42.035  0.00  0.00    +0.000 F 
ENDBRANCH  13  16
ENDBRANCH  12  13
ENDBRANCH   1  12
BRANCH   5  20
ATOM     20  C   UNL     1      14.047  44.545  45.700  0.00  0.00    +0.000 C 
ATOM     21  C   UNL     1      13.940  43.915  44.519  0.00  0.00    +0.000 C 
BRANCH  21  22
ATOM     22  C   UNL     1      14.763  42.791  44.057  0.00  0.00    +0.000 A 
ATOM     23  C   UNL     1      15.206  42.648  42.749  0.00  0.00    +0.000 A 
ATOM     24  C   UNL     1      15.964  41.529  42.417  0.00  0.00    +0.000 A 
ATOM     25  C   UNL     1      16.256  40.572  43.395  0.00  0.00    +0.000 A 
ATOM     26  C   UNL     1      17.018  39.427  43.107  0.00  0.00    +0.000 A 
ATOM     27  C   UNL     1      17.283  38.499  44.111  0.00  0.00    +0.000 A 
ATOM     28 CL   UNL     1      18.215  37.098  43.758  0.00  0.00    +0.000 Cl
ATOM     29  C   UNL     1      16.795  38.702  45.396  0.00  0.00    +0.000 A 
ATOM     30  C   UNL     1      16.037  39.845  45.673  0.00  0.00    +0.000 A 
ATOM     31  C   UNL     1      15.756  40.790  44.696  0.00  0.00    +0.000 A 
ATOM     32  N   UNL     1      15.023  41.870  45.015  0.00  0.00    +0.000 NA
ENDBRANCH  21  22
ENDBRANCH   5  20
TORSDOF 5
ENDMDL
MODEL 3
REMARK VINA RESULT:    -7.090      1.559      1.768
REMARK INTER + INTRA:         -10.058
REMARK INTER:                  -9.163
REMARK INTRA:                  -0.896
REMARK UNBOUND:                -0.896
REMARK  Name = 
REMARK  6 active torsions:
REMARK  status: ('A' for Active; 'I' for Inactive)
REMARK    1  A    between atoms: C_1  and  N_2
REMARK    2  A    between atoms: N_2  and  C_3
REMARK    3  A    between atoms: N_2  and  S_26
REMARK    4  A    between atoms: C_7  and  C_8
REMARK    5  A    between atoms: C_9  and  C_10
REMARK    6  A    between atoms: S_26  and  C_29
REMARK                            x       y       z     vdW  Elec       q    Type
REMARK                         _______ _______ _______ _____ _____    ______ ____
ROOT
ATOM      1  C   UNL     1      13.706  49.333  45.602  0.00  0.00    +0.000 A 
ATOM      2  C   UNL     1      14.656  48.426  45.141  0.00  0.00    +0.000 A 
ATOM      3  C   UNL     1      14.447  47.053  45.302  0.00  0.00    +0.000 A 
ATOM      4  C   UNL     1      13.289  46.549  45.941  0.00  0.00    +0.000 A 
ATOM      5  C   UNL     1      13.033  45.164  46.127  0.00  0.00    +0.000 A 
ATOM      6  C   UNL     1      11.856  44.743  46.768  0.00  0.00    +0.000 A 
ATOM      7  C   UNL     1      10.932  45.675  47.227  0.00  0.00    +0.000 A 
ATOM      8  C   UNL     1      11.172  47.035  47.053  0.00  0.00    +0.000 A 
ATOM      9  C   UNL     1      12.337  47.486  46.415  0.00  0.00    +0.000 A 
ATOM     10  C   UNL     1      12.563  48.862  46.245  0.00  0.00    +0.000 A 
ENDROOT
BRANCH   1  12
ATOM     11  C   UNL     1      13.313  51.611  46.541  0.00  0.00    +0.000 C 
ATOM     12  N   UNL     1      13.911  50.754  45.498  0.00  0.00    +0.000 N 
BRANCH  12  13
ATOM     13  S   UNL     1      13.946  51.403  43.900  0.00  0.00    +0.000 S 
ATOM     14  O   UNL     1      15.129  50.882  43.234  0.00  0.00    +0.000 OA
ATOM     15  O   UNL     1      13.809  52.845  44.050  0.00  0.00    +0.000 OA
BRANCH  13  16
ATOM     16  C   UNL     1      12.415  50.721  43.094  0.00  0.00    +0.000 C 
ATOM     17  F   UNL     1      12.484  49.374  42.888  0.00  0.00    +0.000 F 
ATOM     18  F   UNL     1      12.171  51.291  41.880  0.00  0.00    +0.000 F 
ATOM     19  F   UNL     1      11.299  50.934  43.854  0.00  0.00    +0.000 F 
ENDBRANCH  13  16
ENDBRANCH  12  13
ENDBRANCH   1  12
BRANCH   5  20
ATOM     20  C   UNL     1      13.985  44.130  45.688  0.00  0.00    +0.000 C 
ATOM     21  C   UNL     1      13.910  42.866  46.134  0.00  0.00    +0.000 C 
BRANCH  21  22
ATOM     22  C   UNL     1      14.810  41.763  45.776  0.00  0.00    +0.000 A 
ATOM     23  C   UNL     1      15.216  41.492  44.475  0.00  0.00    +0.000 A 
ATOM     24  C   UNL     1      16.055  40.405  44.249  0.00  0.00    +0.000 A 
ATOM     25  C   UNL     1      16.465  39.608  45.323  0.00  0.00    +0.000 A 
ATOM     26  C   UNL     1      17.312  38.501  45.143  0.00  0.00    +0.000 A 
ATOM     27  C   UNL     1      17.694  37.733  46.240  0.00  0.00    +0.000 A 
ATOM     28 CL   UNL     1      18.730  36.379  46.019  0.00  0.00    +0.000 Cl
ATOM     29  C   UNL     1      17.238  38.057  47.511  0.00  0.00    +0.000 A 
ATOM     30  C   UNL     1      16.394  39.160  47.681  0.00  0.00    +0.000 A 
ATOM     31  C   UNL     1      15.996  39.947  46.609  0.00  0.00    +0.000 A 
ATOM     32  N   UNL     1      15.184  40.995  46.827  0.00  0.00    +0.000 NA
ENDBRANCH  21  22
ENDBRANCH   5  20
TORSDOF 5
ENDMDL
