MODEL 1
REMARK VINA RESULT:    -7.331      0.000      0.000
REMARK INTER + INTRA:         -10.443
REMARK INTER:                  -9.690
REMARK INTRA:                  -0.753
REMARK UNBOUND:                -0.755
REMARK  Name = 
REMARK  6 active torsions:
REMARK  status: ('A' for Active; 'I' for Inactive)
REMARK    1  A    between atoms: N_1  and  C_2
REMARK    2  A    between atoms: C_6  and  O_7
REMARK    3  A    between atoms: O_7  and  C_8
REMARK    4  A    between atoms: C_11  and  N_12
REMARK    5  A    between atoms: C_14  and  C_15
REMARK    6  A    between atoms: N_17  and  C_18
REMARK                            x       y       z     vdW  Elec       q    Type
REMARK                         _______ _______ _______ _____ _____    ______ ____
ROOT
ATOM      1  C   UNL     1      15.854  39.040  49.443  0.00  0.00    +0.000 A 
ATOM      2  C   UNL     1      14.854  39.932  49.064  0.00  0.00    +0.000 A 
ATOM      3  C   UNL     1      14.845  40.478  47.773  0.00  0.00    +0.000 A 
ATOM      4  C   UNL     1      15.824  40.132  46.822  0.00  0.00    +0.000 A 
ATOM      5  C   UNL     1      16.807  39.214  47.218  0.00  0.00    +0.000 A 
ATOM      6  C   UNL     1      16.817  38.675  48.506  0.00  0.00    +0.000 A 
ATOM      7  F   UNL     1      17.774  37.786  48.809  0.00  0.00    +0.000 F 
ENDROOT
BRANCH   4   8
ATOM      8  N   UNL     1      15.811  40.715  45.495  0.00  0.00    +0.000 N 
ATOM      9  C   UNL     1      15.292  41.998  45.283  0.00  0.00    +0.000 A 
ATOM     10  C   UNL     1      15.242  42.575  44.071  0.00  0.00    +0.000 A 
ATOM     11  C   UNL     1      15.800  41.890  42.932  0.00  0.00    +0.000 A 
ATOM     12  C   UNL     1      16.312  40.664  43.075  0.00  0.00    +0.000 A 
ATOM     13  C   UNL     1      16.310  39.972  44.397  0.00  0.00    +0.000 A 
ATOM     14  O   UNL     1      16.711  38.811  44.408  0.00  0.00    +0.000 OA
BRANCH  10  15
ATOM     15  C   UNL     1      14.669  43.957  43.986  0.00  0.00    +0.000 C 
ATOM     16  O   UNL     1      14.445  44.463  42.894  0.00  0.00    +0.000 OA
ATOM     17  N   UNL     1      14.497  44.541  45.227  0.00  0.00    +0.000 N 
ATOM     18  H   UNL     1      14.833  44.023  46.028  0.00  0.00    +0.000 HD
BRANCH  17  19
ATOM     19  C   UNL     1      13.962  45.816  45.504  0.00  0.00    +0.000 A 
ATOM     20  C   UNL     1      12.748  45.860  46.207  0.00  0.00    +0.000 A 
ATOM     21  C   UNL     1      12.150  47.084  46.518  0.00  0.00    +0.000 A 
ATOM     22  C   UNL     1      12.764  48.265  46.125  0.00  0.00    +0.000 A 
ATOM     23  F   UNL     1      12.191  49.438  46.422  0.00  0.00    +0.000 F 
ATOM     24  C   UNL     1      13.963  48.242  45.426  0.00  0.00    +0.000 A 
ATOM     25  C   UNL     1      14.563  47.018  45.114  0.00  0.00    +0.000 A 
ENDBRANCH  17  19
ENDBRANCH  10  15
ENDBRANCH   4   8
BRANCH   1  26
ATOM     26  O   UNL     1      15.768  38.548  50.727  0.00  0.00    +0.000 OA
BRANCH  26  31
ATOM     27  C   UNL     1      16.240  40.711  53.668  0.00  0.00    +0.000 A 
ATOM     28  N   UNL     1      17.585  40.709  53.781  0.00  0.00    +0.000 NA
ATOM     29  C   UNL     1      18.288  39.989  52.879  0.00  0.00    +0.000 A 
ATOM     30  C   UNL     1      17.710  39.267  51.854  0.00  0.00    +0.000 A 
ATOM     31  C   UNL     1      16.324  39.307  51.731  0.00  0.00    +0.000 A 
ATOM     32  C   UNL     1      15.561  40.020  52.659  0.00  0.00    +0.000 A 
ATOM     33 CL   UNL     1      13.831  40.005  52.612  0.00  0.00    +0.000 Cl
BRANCH  27  34
ATOM     34  N   UNL     1      15.576  41.495  54.616  0.00  0.00    +0.000 N 
ATOM     35  H   UNL     1      14.777  41.924  54.159  0.00  0.00    +0.000 HD
ATOM     36  H   UNL     1      16.198  42.166  55.053  0.00  0.00    +0.000 HD
ENDBRANCH  27  34
ENDBRANCH  26  31
ENDBRANCH   1  26
TORSDOF 6
ENDMDL
MODEL 2
REMARK VINA RESULT:    -6.648      3.195      4.690
REMARK INTER + INTRA:          -9.540
REMARK INTER:                  -8.335
REMARK INTRA:                  -1.206
REMARK UNBOUND:                -0.755
REMARK  Name = 
REMARK  6 active torsions:
REMARK  status: ('A' for Active; 'I' for Inactive)
REMARK    1  A    between atoms: N_1  and  C_2
REMARK    2  A    between atoms: C_6  and  O_7
REMARK    3  A    between atoms: O_7  and  C_8
REMARK    4  A    between atoms: C_11  and  N_12
REMARK    5  A    between atoms: C_14  and  C_15
REMARK    6  A    between atoms: N_17  and  C_18
REMARK                            x       y       z     vdW  Elec       q    Type
REMARK                         _______ _______ _______ _____ _____    ______ ____
ROOT
ATOM      1  C   UNL     1      15.997  40.320  52.476  0.00  0.00    +0.000 A 
ATOM      2  C   UNL     1      14.980  39.951  51.598  0.00  0.00    +0.000 A 
ATOM      3  C   UNL     1      15.290  39.377  50.358  0.00  0.00    +0.000 A 
ATOM      4  C   UNL     1      16.622  39.138  49.970  0.00  0.00    +0.000 A 
ATOM      5  C   UNL     1      17.629  39.495  50.879  0.00  0.00    +0.000 A 
ATOM      6  C   UNL     1      17.318  40.073  52.112  0.00  0.00    +0.000 A 
ATOM      7  F   UNL     1      18.330  40.368  52.941  0.00  0.00    +0.000 F 
ENDROOT
BRANCH   4   8
ATOM      8  N   UNL     1      16.930  38.557  48.679  0.00  0.00    +0.000 N 
ATOM      9  C   UNL     1      16.616  39.238  47.495  0.00  0.00    +0.000 A 
ATOM     10  C   UNL     1      16.864  38.734  46.275  0.00  0.00    +0.000 A 
ATOM     11  C   UNL     1      17.541  37.467  46.151  0.00  0.00    +0.000 A 
ATOM     12  C   UNL     1      17.867  36.774  47.246  0.00  0.00    +0.000 A 
ATOM     13  C   UNL     1      17.534  37.277  48.610  0.00  0.00    +0.000 A 
ATOM     14  O   UNL     1      17.784  36.524  49.548  0.00  0.00    +0.000 OA
BRANCH  10  15
ATOM     15  C   UNL     1      16.486  39.572  45.092  0.00  0.00    +0.000 C 
ATOM     16  O   UNL     1      16.753  39.191  43.959  0.00  0.00    +0.000 OA
ATOM     17  N   UNL     1      15.886  40.764  45.451  0.00  0.00    +0.000 N 
ATOM     18  H   UNL     1      15.835  40.972  46.440  0.00  0.00    +0.000 HD
BRANCH  17  19
ATOM     19  C   UNL     1      15.391  41.765  44.590  0.00  0.00    +0.000 A 
ATOM     20  C   UNL     1      16.330  42.643  44.026  0.00  0.00    +0.000 A 
ATOM     21  C   UNL     1      15.922  43.665  43.165  0.00  0.00    +0.000 A 
ATOM     22  C   UNL     1      14.574  43.811  42.869  0.00  0.00    +0.000 A 
ATOM     23  F   UNL     1      14.181  44.791  42.045  0.00  0.00    +0.000 F 
ATOM     24  C   UNL     1      13.630  42.956  43.419  0.00  0.00    +0.000 A 
ATOM     25  C   UNL     1      14.037  41.932  44.281  0.00  0.00    +0.000 A 
ENDBRANCH  17  19
ENDBRANCH  10  15
ENDBRANCH   4   8
BRANCH   1  26
ATOM     26  O   UNL     1      15.591  40.863  53.674  0.00  0.00    +0.000 OA
BRANCH  26  31
ATOM     27  C   UNL     1      13.265  43.708  53.908  0.00  0.00    +0.000 A 
ATOM     28  N   UNL     1      14.092  44.743  53.648  0.00  0.00    +0.000 NA
ATOM     29  C   UNL     1      15.391  44.461  53.406  0.00  0.00    +0.000 A 
ATOM     30  C   UNL     1      15.913  43.184  53.405  0.00  0.00    +0.000 A 
ATOM     31  C   UNL     1      15.042  42.124  53.641  0.00  0.00    +0.000 A 
ATOM     32  C   UNL     1      13.696  42.376  53.920  0.00  0.00    +0.000 A 
ATOM     33 CL   UNL     1      12.601  41.101  54.331  0.00  0.00    +0.000 Cl
BRANCH  27  34
ATOM     34  N   UNL     1      11.932  44.067  54.124  0.00  0.00    +0.000 N 
ATOM     35  H   UNL     1      11.702  44.811  53.471  0.00  0.00    +0.000 HD
ATOM     36  H   UNL     1      11.759  44.312  55.091  0.00  0.00    +0.000 HD
ENDBRANCH  27  34
ENDBRANCH  26  31
ENDBRANCH   1  26
TORSDOF 6
ENDMDL
MODEL 3
REMARK VINA RESULT:    -6.523      4.635      8.307
REMARK INTER + INTRA:          -9.376
REMARK INTER:                  -8.620
REMARK INTRA:                  -0.755
REMARK UNBOUND:                -0.755
REMARK  Name = 
REMARK  6 active torsions:
REMARK  status: ('A' for Active; 'I' for Inactive)
REMARK    1  A    between atoms: N_1  and  C_2
REMARK    2  A    between atoms: C_6  and  O_7
REMARK    3  A    between atoms: O_7  and  C_8
REMARK    4  A    between atoms: C_11  and  N_12
REMARK    5  A    between atoms: C_14  and  C_15
REMARK    6  A    between atoms: N_17  and  C_18
REMARK                            x       y       z     vdW  Elec       q    Type
REMARK                         _______ _______ _______ _____ _____    ______ ____
ROOT
ATOM      1  C   UNL     1      13.619  43.555  53.945  0.00  0.00    +0.000 A 
ATOM      2  C   UNL     1      13.295  42.203  54.029  0.00  0.00    +0.000 A 
ATOM      3  C   UNL     1      14.161  41.234  53.505  0.00  0.00    +0.000 A 
ATOM      4  C   UNL     1      15.381  41.589  52.899  0.00  0.00    +0.000 A 
ATOM      5  C   UNL     1      15.698  42.954  52.846  0.00  0.00    +0.000 A 
ATOM      6  C   UNL     1      14.831  43.918  53.365  0.00  0.00    +0.000 A 
ATOM      7  F   UNL     1      15.209  45.204  53.300  0.00  0.00    +0.000 F 
ENDROOT
BRANCH   4   8
ATOM      8  N   UNL     1      16.260  40.577  52.347  0.00  0.00    +0.000 N 
ATOM      9  C   UNL     1      16.019  40.035  51.079  0.00  0.00    +0.000 A 
ATOM     10  C   UNL     1      16.793  39.084  50.532  0.00  0.00    +0.000 A 
ATOM     11  C   UNL     1      17.969  38.630  51.233  0.00  0.00    +0.000 A 
ATOM     12  C   UNL     1      18.251  39.115  52.445  0.00  0.00    +0.000 A 
ATOM     13  C   UNL     1      17.364  40.116  53.106  0.00  0.00    +0.000 A 
ATOM     14  O   UNL     1      17.653  40.427  54.260  0.00  0.00    +0.000 OA
BRANCH  10  15
ATOM     15  C   UNL     1      16.426  38.597  49.163  0.00  0.00    +0.000 C 
ATOM     16  O   UNL     1      15.643  37.664  49.032  0.00  0.00    +0.000 OA
ATOM     17  N   UNL     1      17.093  39.272  48.159  0.00  0.00    +0.000 N 
ATOM     18  H   UNL     1      17.789  39.948  48.445  0.00  0.00    +0.000 HD
BRANCH  17  19
ATOM     19  C   UNL     1      16.964  39.080  46.767  0.00  0.00    +0.000 A 
ATOM     20  C   UNL     1      16.157  39.993  46.069  0.00  0.00    +0.000 A 
ATOM     21  C   UNL     1      15.975  39.870  44.690  0.00  0.00    +0.000 A 
ATOM     22  C   UNL     1      16.596  38.834  44.007  0.00  0.00    +0.000 A 
ATOM     23  F   UNL     1      16.421  38.715  42.685  0.00  0.00    +0.000 F 
ATOM     24  C   UNL     1      17.394  37.919  44.680  0.00  0.00    +0.000 A 
ATOM     25  C   UNL     1      17.578  38.041  46.061  0.00  0.00    +0.000 A 
ENDBRANCH  17  19
ENDBRANCH  10  15
ENDBRANCH   4   8
BRANCH   1  26
ATOM     26  O   UNL     1      12.712  44.429  54.502  0.00  0.00    +0.000 OA
BRANCH  26  31
ATOM     27  C   UNL     1      10.234  46.298  52.522  0.00  0.00    +0.000 A 
ATOM     28  N   UNL     1       9.427  45.300  52.104  0.00  0.00    +0.000 NA
ATOM     29  C   UNL     1       9.733  44.043  52.492  0.00  0.00    +0.000 A 
ATOM     30  C   UNL     1      10.814  43.727  53.290  0.00  0.00    +0.000 A 
ATOM     31  C   UNL     1      11.618  44.771  53.741  0.00  0.00    +0.000 A 
ATOM     32  C   UNL     1      11.348  46.082  53.341  0.00  0.00    +0.000 A 
ATOM     33 CL   UNL     1      12.383  47.396  53.783  0.00  0.00    +0.000 Cl
BRANCH  27  34
ATOM     34  N   UNL     1       9.845  47.575  52.106  0.00  0.00    +0.000 N 
ATOM     35  H   UNL     1      10.686  48.087  51.854  0.00  0.00    +0.000 HD
ATOM     36  H   UNL     1       9.282  48.044  52.805  0.00  0.00    +0.000 HD
ENDBRANCH  27  34
ENDBRANCH  26  31
ENDBRANCH   1  26
TORSDOF 6
ENDMDL
