MODEL 1
REMARK VINA RESULT:    -6.144      0.000      0.000
REMARK INTER + INTRA:         -11.442
REMARK INTER:                  -9.735
REMARK INTRA:                  -1.707
REMARK UNBOUND:                -2.425
REMARK  Name = 
REMARK  10 active torsions:
REMARK  status: ('A' for Active; 'I' for Inactive)
REMARK    1  A    between atoms: C_1  and  C_2
REMARK    2  A    between atoms: C_2  and  C_3
REMARK    3  A    between atoms: C_3  and  C_4
REMARK    4  A    between atoms: C_4  and  C_5
REMARK    5  A    between atoms: C_10  and  C_11
REMARK    6  A    between atoms: C_11  and  C_12
REMARK    7  A    between atoms: N_17  and  C_18
REMARK    8  A    between atoms: C_18  and  C_19
REMARK    9  A    between atoms: C_22  and  C_23
REMARK   10  A    between atoms: C_28  and  C_29
REMARK                            x       y       z     vdW  Elec       q    Type
REMARK                         _______ _______ _______ _____ _____    ______ ____
ROOT
ATOM      1  C   UNL     1      18.421  35.160  50.539  0.00  0.00    +0.000 C 
ENDROOT
BRANCH   1  12
ATOM      2  C   UNL     1      18.209  36.049  52.875  0.00  0.00    +0.000 A 
ATOM      3  N   UNL     1      17.909  36.976  53.729  0.00  0.00    +0.000 NA
ATOM      4  C   UNL     1      17.525  38.235  53.266  0.00  0.00    +0.000 A 
ATOM      5  C   UNL     1      17.240  39.238  54.194  0.00  0.00    +0.000 A 
ATOM      6  C   UNL     1      16.856  40.515  53.770  0.00  0.00    +0.000 A 
ATOM      7  C   UNL     1      16.755  40.809  52.405  0.00  0.00    +0.000 A 
ATOM      8  C   UNL     1      17.031  39.801  51.474  0.00  0.00    +0.000 A 
ATOM      9  C   UNL     1      17.416  38.526  51.913  0.00  0.00    +0.000 A 
ATOM     10  C   UNL     1      17.718  37.448  50.960  0.00  0.00    +0.000 A 
ATOM     11  O   UNL     1      17.603  37.667  49.756  0.00  0.00    +0.000 OA
ATOM     12  N   UNL     1      18.126  36.228  51.502  0.00  0.00    +0.000 N 
BRANCH   7  13
ATOM     13  C   UNL     1      16.328  42.180  51.945  0.00  0.00    +0.000 C 
ATOM     14  C   UNL     1      16.108  43.126  53.117  0.00  0.00    +0.000 C 
ENDBRANCH   7  13
BRANCH   2  15
ATOM     15  C   UNL     1      18.608  34.678  53.422  0.00  0.00    +0.000 C 
BRANCH  15  16
ATOM     16  C   UNL     1      19.675  34.705  54.522  0.00  0.00    +0.000 C 
BRANCH  16  18
ATOM     17  C   UNL     1      22.158  34.586  55.127  0.00  0.00    +0.000 C 
ATOM     18  C   UNL     1      21.121  34.664  54.015  0.00  0.00    +0.000 C 
ENDBRANCH  16  18
ENDBRANCH  15  16
ENDBRANCH   2  15
ENDBRANCH   1  12
BRANCH   1  19
ATOM     19  C   UNL     1      19.887  35.070  50.159  0.00  0.00    +0.000 A 
ATOM     20  C   UNL     1      20.860  35.849  50.800  0.00  0.00    +0.000 A 
ATOM     21  C   UNL     1      22.205  35.756  50.432  0.00  0.00    +0.000 A 
ATOM     22  C   UNL     1      22.614  34.896  49.404  0.00  0.00    +0.000 A 
ATOM     23  C   UNL     1      21.637  34.135  48.747  0.00  0.00    +0.000 A 
ATOM     24  C   UNL     1      20.290  34.229  49.112  0.00  0.00    +0.000 A 
BRANCH  22  25
ATOM     25  C   UNL     1      24.036  34.782  49.035  0.00  0.00    +0.000 A 
ATOM     26  C   UNL     1      24.503  35.520  47.928  0.00  0.00    +0.000 A 
ATOM     27  C   UNL     1      25.848  35.500  47.555  0.00  0.00    +0.000 A 
ATOM     28  C   UNL     1      26.759  34.745  48.285  0.00  0.00    +0.000 A 
ATOM     29  C   UNL     1      26.321  34.002  49.381  0.00  0.00    +0.000 A 
ATOM     30  C   UNL     1      24.965  34.001  49.760  0.00  0.00    +0.000 A 
BRANCH  30  31
ATOM     31  C   UNL     1      24.579  33.180  50.896  0.00  0.00    +0.000 A 
ATOM     32  N   UNL     1      24.937  33.491  52.188  0.00  0.00    +0.000 NA
ATOM     33  N   UNL     1      24.440  32.536  52.962  0.00  0.00    +0.000 NA
ATOM     34  N   UNL     1      23.831  31.700  52.114  0.00  0.00    +0.000 N 
ATOM     35  N   UNL     1      23.897  32.024  50.816  0.00  0.00    +0.000 NA
ATOM     36  H   UNL     1      23.351  30.865  52.438  0.00  0.00    +0.000 HD
ENDBRANCH  30  31
ENDBRANCH  22  25
ENDBRANCH   1  19
TORSDOF 8
ENDMDL
MODEL 2
REMARK VINA RESULT:    -6.123      1.674      2.425
REMARK INTER + INTRA:         -11.411
REMARK INTER:                  -9.542
REMARK INTRA:                  -1.869
REMARK UNBOUND:                -2.425
REMARK  Name = 
REMARK  10 active torsions:
REMARK  status: ('A' for Active; 'I' for Inactive)
REMARK    1  A    between atoms: C_1  and  C_2
REMARK    2  A    between atoms: C_2  and  C_3
REMARK    3  A    between atoms: C_3  and  C_4
REMARK    4  A    between atoms: C_4  and  C_5
REMARK    5  A    between atoms: C_10  and  C_11
REMARK    6  A    between atoms: C_11  and  C_12
REMARK    7  A    between atoms: N_17  and  C_18
REMARK    8  A    between atoms: C_18  and  C_19
REMARK    9  A    between atoms: C_22  and  C_23
REMARK   10  A    between atoms: C_28  and  C_29
REMARK                            x       y       z     vdW  Elec       q    Type
REMARK                         _______ _______ _______ _____ _____    ______ ____
ROOT
ATOM      1  C   UNL     1      17.505  36.716  50.423  0.00  0.00    +0.000 C 
ENDROOT
BRANCH   1  12
ATOM      2  C   UNL     1      16.852  37.172  52.801  0.00  0.00    +0.000 A 
ATOM      3  N   UNL     1      16.480  37.961  53.760  0.00  0.00    +0.000 NA
ATOM      4  C   UNL     1      16.395  39.333  53.524  0.00  0.00    +0.000 A 
ATOM      5  C   UNL     1      16.030  40.178  54.572  0.00  0.00    +0.000 A 
ATOM      6  C   UNL     1      15.936  41.560  54.377  0.00  0.00    +0.000 A 
ATOM      7  C   UNL     1      16.212  42.120  53.123  0.00  0.00    +0.000 A 
ATOM      8  C   UNL     1      16.569  41.272  52.068  0.00  0.00    +0.000 A 
ATOM      9  C   UNL     1      16.659  39.889  52.279  0.00  0.00    +0.000 A 
ATOM     10  C   UNL     1      17.036  38.973  51.192  0.00  0.00    +0.000 A 
ATOM     11  O   UNL     1      17.250  39.433  50.073  0.00  0.00    +0.000 OA
ATOM     12  N   UNL     1      17.131  37.619  51.518  0.00  0.00    +0.000 N 
BRANCH   7  13
ATOM     13  C   UNL     1      16.100  43.608  52.906  0.00  0.00    +0.000 C 
ATOM     14  C   UNL     1      14.885  44.192  53.612  0.00  0.00    +0.000 C 
ENDBRANCH   7  13
BRANCH   2  15
ATOM     15  C   UNL     1      16.917  35.673  53.095  0.00  0.00    +0.000 C 
BRANCH  15  16
ATOM     16  C   UNL     1      18.106  35.233  53.955  0.00  0.00    +0.000 C 
BRANCH  16  18
ATOM     17  C   UNL     1      18.363  35.995  56.385  0.00  0.00    +0.000 C 
ATOM     18  C   UNL     1      17.772  34.969  55.428  0.00  0.00    +0.000 C 
ENDBRANCH  16  18
ENDBRANCH  15  16
ENDBRANCH   2  15
ENDBRANCH   1  12
BRANCH   1  19
ATOM     19  C   UNL     1      18.915  36.166  50.541  0.00  0.00    +0.000 A 
ATOM     20  C   UNL     1      19.919  36.865  51.224  0.00  0.00    +0.000 A 
ATOM     21  C   UNL     1      21.214  36.344  51.317  0.00  0.00    +0.000 A 
ATOM     22  C   UNL     1      21.544  35.122  50.719  0.00  0.00    +0.000 A 
ATOM     23  C   UNL     1      20.544  34.435  50.014  0.00  0.00    +0.000 A 
ATOM     24  C   UNL     1      19.250  34.956  49.917  0.00  0.00    +0.000 A 
BRANCH  22  25
ATOM     25  C   UNL     1      22.902  34.564  50.840  0.00  0.00    +0.000 A 
ATOM     26  C   UNL     1      23.843  34.864  49.833  0.00  0.00    +0.000 A 
ATOM     27  C   UNL     1      25.162  34.413  49.911  0.00  0.00    +0.000 A 
ATOM     28  C   UNL     1      25.571  33.654  51.002  0.00  0.00    +0.000 A 
ATOM     29  C   UNL     1      24.659  33.339  52.008  0.00  0.00    +0.000 A 
ATOM     30  C   UNL     1      23.323  33.776  51.935  0.00  0.00    +0.000 A 
BRANCH  30  31
ATOM     31  C   UNL     1      22.422  33.384  53.008  0.00  0.00    +0.000 A 
ATOM     32  N   UNL     1      21.682  32.224  52.964  0.00  0.00    +0.000 NA
ATOM     33  N   UNL     1      20.967  32.186  54.080  0.00  0.00    +0.000 NA
ATOM     34  N   UNL     1      21.291  33.312  54.725  0.00  0.00    +0.000 N 
ATOM     35  N   UNL     1      22.169  34.113  54.109  0.00  0.00    +0.000 NA
ATOM     36  H   UNL     1      20.888  33.546  55.628  0.00  0.00    +0.000 HD
ENDBRANCH  30  31
ENDBRANCH  22  25
ENDBRANCH   1  19
TORSDOF 8
ENDMDL
MODEL 3
REMARK VINA RESULT:    -5.859      5.425      8.281
REMARK INTER + INTRA:         -11.023
REMARK INTER:                  -8.599
REMARK INTRA:                  -2.425
REMARK UNBOUND:                -2.425
REMARK  Name = 
REMARK  10 active torsions:
REMARK  status: ('A' for Active; 'I' for Inactive)
REMARK    1  A    between atoms: C_1  and  C_2
REMARK    2  A    between atoms: C_2  and  C_3
REMARK    3  A    between atoms: C_3  and  C_4
REMARK    4  A    between atoms: C_4  and  C_5
REMARK    5  A    between atoms: C_10  and  C_11
REMARK    6  A    between atoms: C_11  and  C_12
REMARK    7  A    between atoms: N_17  and  C_18
REMARK    8  A    between atoms: C_18  and  C_19
REMARK    9  A    between atoms: C_22  and  C_23
REMARK   10  A    between atoms: C_28  and  C_29
REMARK                            x       y       z     vdW  Elec       q    Type
REMARK                         _______ _______ _______ _____ _____    ______ ____
ROOT
ATOM      1  C   UNL     1      14.040  38.603  46.558  0.00  0.00    +0.000 C 
ENDROOT
BRANCH   1  12
ATOM      2  C   UNL     1      15.019  39.828  44.601  0.00  0.00    +0.000 A 
ATOM      3  N   UNL     1      15.315  40.911  43.954  0.00  0.00    +0.000 NA
ATOM      4  C   UNL     1      14.893  42.144  44.454  0.00  0.00    +0.000 A 
ATOM      5  C   UNL     1      15.184  43.301  43.731  0.00  0.00    +0.000 A 
ATOM      6  C   UNL     1      14.774  44.556  44.195  0.00  0.00    +0.000 A 
ATOM      7  C   UNL     1      14.059  44.671  45.394  0.00  0.00    +0.000 A 
ATOM      8  C   UNL     1      13.775  43.510  46.124  0.00  0.00    +0.000 A 
ATOM      9  C   UNL     1      14.192  42.260  45.646  0.00  0.00    +0.000 A 
ATOM     10  C   UNL     1      13.903  41.023  46.388  0.00  0.00    +0.000 A 
ATOM     11  O   UNL     1      13.309  41.097  47.461  0.00  0.00    +0.000 OA
ATOM     12  N   UNL     1      14.332  39.829  45.805  0.00  0.00    +0.000 N 
BRANCH   7  13
ATOM     13  C   UNL     1      13.628  46.022  45.904  0.00  0.00    +0.000 C 
ATOM     14  C   UNL     1      12.217  45.988  46.472  0.00  0.00    +0.000 C 
ENDBRANCH   7  13
BRANCH   2  15
ATOM     15  C   UNL     1      15.515  38.499  44.031  0.00  0.00    +0.000 C 
BRANCH  15  16
ATOM     16  C   UNL     1      17.031  38.288  44.105  0.00  0.00    +0.000 C 
BRANCH  16  18
ATOM     17  C   UNL     1      18.814  36.964  45.376  0.00  0.00    +0.000 C 
ATOM     18  C   UNL     1      17.464  36.932  44.674  0.00  0.00    +0.000 C 
ENDBRANCH  16  18
ENDBRANCH  15  16
ENDBRANCH   2  15
ENDBRANCH   1  12
BRANCH   1  19
ATOM     19  C   UNL     1      15.224  38.077  47.349  0.00  0.00    +0.000 A 
ATOM     20  C   UNL     1      15.292  36.740  47.763  0.00  0.00    +0.000 A 
ATOM     21  C   UNL     1      16.389  36.275  48.496  0.00  0.00    +0.000 A 
ATOM     22  C   UNL     1      17.438  37.134  48.847  0.00  0.00    +0.000 A 
ATOM     23  C   UNL     1      17.357  38.477  48.452  0.00  0.00    +0.000 A 
ATOM     24  C   UNL     1      16.260  38.945  47.723  0.00  0.00    +0.000 A 
BRANCH  22  25
ATOM     25  C   UNL     1      18.604  36.636  49.597  0.00  0.00    +0.000 A 
ATOM     26  C   UNL     1      19.525  35.802  48.929  0.00  0.00    +0.000 A 
ATOM     27  C   UNL     1      20.678  35.337  49.563  0.00  0.00    +0.000 A 
ATOM     28  C   UNL     1      20.941  35.700  50.879  0.00  0.00    +0.000 A 
ATOM     29  C   UNL     1      20.044  36.521  51.563  0.00  0.00    +0.000 A 
ATOM     30  C   UNL     1      18.870  36.985  50.941  0.00  0.00    +0.000 A 
BRANCH  30  31
ATOM     31  C   UNL     1      17.968  37.812  51.726  0.00  0.00    +0.000 A 
ATOM     32  N   UNL     1      18.179  39.159  51.916  0.00  0.00    +0.000 NA
ATOM     33  N   UNL     1      17.189  39.595  52.684  0.00  0.00    +0.000 NA
ATOM     34  N   UNL     1      16.451  38.507  52.930  0.00  0.00    +0.000 N 
ATOM     35  N   UNL     1      16.887  37.363  52.387  0.00  0.00    +0.000 NA
ATOM     36  H   UNL     1      15.611  38.548  53.500  0.00  0.00    +0.000 HD
ENDBRANCH  30  31
ENDBRANCH  22  25
ENDBRANCH   1  19
TORSDOF 8
ENDMDL
