MODEL 1
REMARK VINA RESULT:    -6.346      0.000      0.000
REMARK INTER + INTRA:          -6.876
REMARK INTER:                  -6.717
REMARK INTRA:                  -0.159
REMARK UNBOUND:                -0.159
REMARK  Name = 
REMARK  1 active torsions:
REMARK  status: ('A' for Active; 'I' for Inactive)
REMARK    1  A    between atoms: C_2  and  C_3
REMARK                            x       y       z     vdW  Elec       q    Type
REMARK                         _______ _______ _______ _____ _____    ______ ____
ROOT
ATOM      1  C   UNL     1      17.271  38.585  52.354  0.00  0.00    +0.000 A 
ATOM      2  C   UNL     1      17.366  39.207  51.104  0.00  0.00    +0.000 A 
ATOM      3  C   UNL     1      17.059  38.500  49.936  0.00  0.00    +0.000 A 
ATOM      4  C   UNL     1      16.661  37.155  49.993  0.00  0.00    +0.000 A 
ATOM      5  C   UNL     1      16.542  36.545  51.250  0.00  0.00    +0.000 A 
ATOM      6  C   UNL     1      16.872  37.247  52.416  0.00  0.00    +0.000 A 
ATOM      7  O   UNL     1      16.706  36.603  53.618  0.00  0.00    +0.000 OA
ATOM      8  C   UNL     1      17.836  36.067  54.203  0.00  0.00    +0.000 A 
ATOM      9  C   UNL     1      17.851  36.066  55.590  0.00  0.00    +0.000 A 
ATOM     10  C   UNL     1      18.942  35.530  56.269  0.00  0.00    +0.000 A 
ATOM     11  C   UNL     1      20.018  34.961  55.571  0.00  0.00    +0.000 A 
ATOM     12  C   UNL     1      21.115  34.468  56.289  0.00  0.00    +0.000 A 
ATOM     13  C   UNL     1      22.209  33.919  55.633  0.00  0.00    +0.000 A 
ATOM     14  C   UNL     1      22.208  33.833  54.245  0.00  0.00    +0.000 A 
ATOM     15  C   UNL     1      21.112  34.286  53.486  0.00  0.00    +0.000 A 
ATOM     16  C   UNL     1      20.004  34.897  54.151  0.00  0.00    +0.000 A 
ATOM     17  C   UNL     1      18.899  35.497  53.495  0.00  0.00    +0.000 A 
ATOM     18  N   UNL     1      21.172  34.113  52.065  0.00  0.00    +0.000 N 
ATOM     19  C   UNL     1      22.447  34.312  51.379  0.00  0.00    +0.000 C 
ATOM     20  C   UNL     1      22.186  34.870  49.973  0.00  0.00    +0.000 C 
ATOM     21  N   UNL     1      21.319  34.002  49.170  0.00  0.00    +0.000 NA
ATOM     22  C   UNL     1      20.527  34.718  48.164  0.00  0.00    +0.000 C 
ATOM     23  C   UNL     1      19.317  35.525  48.678  0.00  0.00    +0.000 C 
ATOM     24  C   UNL     1      18.568  36.219  47.581  0.00  0.00    +0.000 A 
ATOM     25  C   UNL     1      18.971  36.675  46.340  0.00  0.00    +0.000 A 
ATOM     26  N   UNL     1      17.938  37.269  45.665  0.00  0.00    +0.000 NA
ATOM     27  C   UNL     1      16.909  37.190  46.473  0.00  0.00    +0.000 A 
ATOM     28  N   UNL     1      17.240  36.584  47.654  0.00  0.00    +0.000 N 
ATOM     29  C   UNL     1      16.306  36.369  48.751  0.00  0.00    +0.000 C 
ATOM     30  C   UNL     1      20.572  32.992  49.940  0.00  0.00    +0.000 C 
ATOM     31  C   UNL     1      20.169  33.427  51.358  0.00  0.00    +0.000 C 
ATOM     32  O   UNL     1      19.077  33.087  51.813  0.00  0.00    +0.000 OA
ENDROOT
BRANCH   1  34
ATOM     33  N   UNL     1      17.794  39.971  54.483  0.00  0.00    +0.000 NA
ATOM     34  C   UNL     1      17.561  39.337  53.540  0.00  0.00    +0.000 C 
ENDBRANCH   1  34
TORSDOF 1
ENDMDL
MODEL 2
REMARK VINA RESULT:    -6.189      8.809     12.231
REMARK INTER + INTRA:          -6.710
REMARK INTER:                  -6.548
REMARK INTRA:                  -0.162
REMARK UNBOUND:                -0.159
REMARK  Name = 
REMARK  1 active torsions:
REMARK  status: ('A' for Active; 'I' for Inactive)
REMARK    1  A    between atoms: C_2  and  C_3
REMARK                            x       y       z     vdW  Elec       q    Type
REMARK                         _______ _______ _______ _____ _____    ______ ____
ROOT
ATOM      1  C   UNL     1      14.095  44.506  42.281  0.00  0.00    +0.000 A 
ATOM      2  C   UNL     1      12.933  45.254  42.500  0.00  0.00    +0.000 A 
ATOM      3  C   UNL     1      12.677  45.815  43.756  0.00  0.00    +0.000 A 
ATOM      4  C   UNL     1      13.573  45.630  44.822  0.00  0.00    +0.000 A 
ATOM      5  C   UNL     1      14.748  44.902  44.590  0.00  0.00    +0.000 A 
ATOM      6  C   UNL     1      14.990  44.322  43.338  0.00  0.00    +0.000 A 
ATOM      7  O   UNL     1      16.174  43.646  43.165  0.00  0.00    +0.000 OA
ATOM      8  C   UNL     1      16.128  42.270  43.252  0.00  0.00    +0.000 A 
ATOM      9  C   UNL     1      17.028  41.586  42.448  0.00  0.00    +0.000 A 
ATOM     10  C   UNL     1      17.067  40.195  42.480  0.00  0.00    +0.000 A 
ATOM     11  C   UNL     1      16.227  39.470  43.339  0.00  0.00    +0.000 A 
ATOM     12  C   UNL     1      16.268  38.070  43.314  0.00  0.00    +0.000 A 
ATOM     13  C   UNL     1      15.436  37.317  44.133  0.00  0.00    +0.000 A 
ATOM     14  C   UNL     1      14.566  37.958  45.008  0.00  0.00    +0.000 A 
ATOM     15  C   UNL     1      14.517  39.362  45.090  0.00  0.00    +0.000 A 
ATOM     16  C   UNL     1      15.334  40.145  44.216  0.00  0.00    +0.000 A 
ATOM     17  C   UNL     1      15.290  41.559  44.118  0.00  0.00    +0.000 A 
ATOM     18  N   UNL     1      13.630  39.941  46.055  0.00  0.00    +0.000 N 
ATOM     19  C   UNL     1      12.325  39.322  46.280  0.00  0.00    +0.000 C 
ATOM     20  C   UNL     1      11.304  40.407  46.645  0.00  0.00    +0.000 C 
ATOM     21  N   UNL     1      11.697  41.183  47.826  0.00  0.00    +0.000 NA
ATOM     22  C   UNL     1      11.182  42.557  47.834  0.00  0.00    +0.000 C 
ATOM     23  C   UNL     1      11.872  43.563  46.889  0.00  0.00    +0.000 C 
ATOM     24  C   UNL     1      11.281  44.938  46.968  0.00  0.00    +0.000 A 
ATOM     25  C   UNL     1      10.017  45.377  47.313  0.00  0.00    +0.000 A 
ATOM     26  N   UNL     1       9.920  46.740  47.231  0.00  0.00    +0.000 NA
ATOM     27  C   UNL     1      11.102  47.146  46.836  0.00  0.00    +0.000 A 
ATOM     28  N   UNL     1      11.957  46.095  46.640  0.00  0.00    +0.000 N 
ATOM     29  C   UNL     1      13.334  46.236  46.186  0.00  0.00    +0.000 C 
ATOM     30  C   UNL     1      13.114  41.052  48.207  0.00  0.00    +0.000 C 
ATOM     31  C   UNL     1      14.084  40.843  47.033  0.00  0.00    +0.000 C 
ATOM     32  O   UNL     1      15.193  41.377  47.055  0.00  0.00    +0.000 OA
ENDROOT
BRANCH   1  34
ATOM     33  N   UNL     1      14.579  43.552  39.918  0.00  0.00    +0.000 NA
ATOM     34  C   UNL     1      14.351  43.966  40.978  0.00  0.00    +0.000 C 
ENDBRANCH   1  34
TORSDOF 1
ENDMDL
MODEL 3
REMARK VINA RESULT:    -6.153      2.457      3.734
REMARK INTER + INTRA:          -6.671
REMARK INTER:                  -6.512
REMARK INTRA:                  -0.159
REMARK UNBOUND:                -0.159
REMARK  Name = 
REMARK  1 active torsions:
REMARK  status: ('A' for Active; 'I' for Inactive)
REMARK    1  A    between atoms: C_2  and  C_3
REMARK                            x       y       z     vdW  Elec       q    Type
REMARK                         _______ _______ _______ _____ _____    ______ ____
ROOT
ATOM      1  C   UNL     1      19.021  35.930  50.599  0.00  0.00    +0.000 A 
ATOM      2  C   UNL     1      19.360  36.189  49.267  0.00  0.00    +0.000 A 
ATOM      3  C   UNL     1      19.610  35.135  48.382  0.00  0.00    +0.000 A 
ATOM      4  C   UNL     1      19.536  33.801  48.813  0.00  0.00    +0.000 A 
ATOM      5  C   UNL     1      19.171  33.547  50.142  0.00  0.00    +0.000 A 
ATOM      6  C   UNL     1      18.944  34.604  51.032  0.00  0.00    +0.000 A 
ATOM      7  O   UNL     1      18.560  34.289  52.314  0.00  0.00    +0.000 OA
ATOM      8  C   UNL     1      19.538  34.320  53.287  0.00  0.00    +0.000 A 
ATOM      9  C   UNL     1      19.114  34.697  54.553  0.00  0.00    +0.000 A 
ATOM     10  C   UNL     1      20.027  34.742  55.603  0.00  0.00    +0.000 A 
ATOM     11  C   UNL     1      21.369  34.382  55.408  0.00  0.00    +0.000 A 
ATOM     12  C   UNL     1      22.266  34.478  56.480  0.00  0.00    +0.000 A 
ATOM     13  C   UNL     1      23.607  34.153  56.321  0.00  0.00    +0.000 A 
ATOM     14  C   UNL     1      24.064  33.702  55.087  0.00  0.00    +0.000 A 
ATOM     15  C   UNL     1      23.191  33.559  53.993  0.00  0.00    +0.000 A 
ATOM     16  C   UNL     1      21.820  33.938  54.135  0.00  0.00    +0.000 A 
ATOM     17  C   UNL     1      20.873  33.953  53.080  0.00  0.00    +0.000 A 
ATOM     18  N   UNL     1      23.735  33.039  52.773  0.00  0.00    +0.000 N 
ATOM     19  C   UNL     1      25.079  33.444  52.366  0.00  0.00    +0.000 C 
ATOM     20  C   UNL     1      25.155  33.489  50.834  0.00  0.00    +0.000 C 
ATOM     21  N   UNL     1      24.811  32.207  50.211  0.00  0.00    +0.000 NA
ATOM     22  C   UNL     1      24.235  32.333  48.868  0.00  0.00    +0.000 C 
ATOM     23  C   UNL     1      22.772  32.817  48.782  0.00  0.00    +0.000 C 
ATOM     24  C   UNL     1      22.270  32.913  47.373  0.00  0.00    +0.000 A 
ATOM     25  C   UNL     1      22.927  33.123  46.175  0.00  0.00    +0.000 A 
ATOM     26  N   UNL     1      22.053  33.150  45.122  0.00  0.00    +0.000 NA
ATOM     27  C   UNL     1      20.869  32.966  45.653  0.00  0.00    +0.000 A 
ATOM     28  N   UNL     1      20.940  32.839  47.014  0.00  0.00    +0.000 N 
ATOM     29  C   UNL     1      19.784  32.640  47.877  0.00  0.00    +0.000 C 
ATOM     30  C   UNL     1      24.114  31.257  51.095  0.00  0.00    +0.000 C 
ATOM     31  C   UNL     1      23.194  31.904  52.144  0.00  0.00    +0.000 C 
ATOM     32  O   UNL     1      22.124  31.368  52.430  0.00  0.00    +0.000 OA
ENDROOT
BRANCH   1  34
ATOM     33  N   UNL     1      18.501  37.927  52.172  0.00  0.00    +0.000 NA
ATOM     34  C   UNL     1      18.740  37.024  51.482  0.00  0.00    +0.000 C 
ENDBRANCH   1  34
TORSDOF 1
ENDMDL
