MODEL 1
REMARK VINA RESULT:    -6.644      0.000      0.000
REMARK INTER + INTRA:          -9.025
REMARK INTER:                  -8.150
REMARK INTRA:                  -0.875
REMARK UNBOUND:                -0.827
REMARK  Name = 
REMARK  5 active torsions:
REMARK  status: ('A' for Active; 'I' for Inactive)
REMARK    1  A    between atoms: C_1  and  C_2
REMARK    2  A    between atoms: C_5  and  C_6
REMARK    3  A    between atoms: C_8  and  C_9
REMARK    4  A    between atoms: C_18  and  C_20
REMARK    5  A    between atoms: C_20  and  N_21
REMARK                            x       y       z     vdW  Elec       q    Type
REMARK                         _______ _______ _______ _____ _____    ______ ____
ROOT
ATOM      1  C   UNL     1      15.748  40.902  45.130  0.00  0.00    +0.000 A 
ATOM      2  C   UNL     1      15.081  42.092  44.918  0.00  0.00    +0.000 A 
ATOM      3  C   UNL     1      14.512  42.707  46.019  0.00  0.00    +0.000 A 
ATOM      4  N   UNL     1      14.582  42.161  47.251  0.00  0.00    +0.000 NA
ATOM      5  C   UNL     1      15.236  41.001  47.372  0.00  0.00    +0.000 A 
ATOM      6  N   UNL     1      15.264  40.495  48.656  0.00  0.00    +0.000 N 
ATOM      7  C   UNL     1      15.760  39.279  49.054  0.00  0.00    +0.000 C 
ATOM      8  O   UNL     1      16.291  38.425  48.350  0.00  0.00    +0.000 OA
ATOM      9  N   UNL     1      15.821  40.361  46.363  0.00  0.00    +0.000 NA
ATOM     10  H   UNL     1      14.777  41.049  49.348  0.00  0.00    +0.000 HD
ENDROOT
BRANCH   1  15
ATOM     11  C   UNL     1      18.381  37.947  40.844  0.00  0.00    +0.000 C 
ATOM     12  C   UNL     1      17.683  38.688  41.945  0.00  0.00    +0.000 A 
ATOM     13  C   UNL     1      17.409  38.069  43.166  0.00  0.00    +0.000 A 
ATOM     14  C   UNL     1      16.778  38.776  44.199  0.00  0.00    +0.000 A 
ATOM     15  C   UNL     1      16.413  40.127  44.053  0.00  0.00    +0.000 A 
ATOM     16  C   UNL     1      16.703  40.730  42.813  0.00  0.00    +0.000 A 
ATOM     17  C   UNL     1      17.332  40.029  41.779  0.00  0.00    +0.000 A 
ENDBRANCH   1  15
BRANCH   3  18
ATOM     18  C   UNL     1      13.776  43.986  45.929  0.00  0.00    +0.000 A 
ATOM     19  C   UNL     1      12.595  44.219  46.657  0.00  0.00    +0.000 A 
ATOM     20  C   UNL     1      11.912  45.437  46.564  0.00  0.00    +0.000 A 
ATOM     21  C   UNL     1      12.395  46.447  45.736  0.00  0.00    +0.000 A 
ATOM     22  C   UNL     1      13.556  46.239  45.000  0.00  0.00    +0.000 A 
ATOM     23  C   UNL     1      14.235  45.021  45.093  0.00  0.00    +0.000 A 
ENDBRANCH   3  18
BRANCH   7  24
ATOM     24  C   UNL     1      15.639  39.078  50.571  0.00  0.00    +0.000 C 
BRANCH  24  25
ATOM     25  N   UNL     1      16.084  40.283  51.319  0.00  0.00    +0.000 NA
ATOM     26  C   UNL     1      17.554  40.275  51.512  0.00  0.00    +0.000 C 
ATOM     27  C   UNL     1      17.996  39.760  52.891  0.00  0.00    +0.000 C 
ATOM     28  O   UNL     1      17.471  40.540  53.972  0.00  0.00    +0.000 OA
ATOM     29  C   UNL     1      16.215  41.159  53.666  0.00  0.00    +0.000 C 
ATOM     30  C   UNL     1      15.398  40.360  52.638  0.00  0.00    +0.000 C 
ENDBRANCH  24  25
ENDBRANCH   7  24
TORSDOF 4
ENDMDL
MODEL 2
REMARK VINA RESULT:    -6.544      1.115      5.763
REMARK INTER + INTRA:          -8.901
REMARK INTER:                  -8.245
REMARK INTRA:                  -0.657
REMARK UNBOUND:                -0.827
REMARK  Name = 
REMARK  5 active torsions:
REMARK  status: ('A' for Active; 'I' for Inactive)
REMARK    1  A    between atoms: C_1  and  C_2
REMARK    2  A    between atoms: C_5  and  C_6
REMARK    3  A    between atoms: C_8  and  C_9
REMARK    4  A    between atoms: C_18  and  C_20
REMARK    5  A    between atoms: C_20  and  N_21
REMARK                            x       y       z     vdW  Elec       q    Type
REMARK                         _______ _______ _______ _____ _____    ______ ____
ROOT
ATOM      1  C   UNL     1      14.686  42.131  46.046  0.00  0.00    +0.000 A 
ATOM      2  C   UNL     1      15.284  41.648  44.898  0.00  0.00    +0.000 A 
ATOM      3  C   UNL     1      15.933  40.430  44.984  0.00  0.00    +0.000 A 
ATOM      4  N   UNL     1      16.004  39.744  46.144  0.00  0.00    +0.000 NA
ATOM      5  C   UNL     1      15.410  40.284  47.213  0.00  0.00    +0.000 A 
ATOM      6  N   UNL     1      15.526  39.535  48.367  0.00  0.00    +0.000 N 
ATOM      7  C   UNL     1      15.118  39.891  49.628  0.00  0.00    +0.000 C 
ATOM      8  O   UNL     1      14.555  40.930  49.962  0.00  0.00    +0.000 OA
ATOM      9  N   UNL     1      14.755  41.441  47.202  0.00  0.00    +0.000 NA
ATOM     10  H   UNL     1      16.056  38.679  48.273  0.00  0.00    +0.000 HD
ENDROOT
BRANCH   1  15
ATOM     11  C   UNL     1      11.863  47.232  46.237  0.00  0.00    +0.000 C 
ATOM     12  C   UNL     1      12.588  45.920  46.216  0.00  0.00    +0.000 A 
ATOM     13  C   UNL     1      12.004  44.768  46.745  0.00  0.00    +0.000 A 
ATOM     14  C   UNL     1      12.678  43.540  46.700  0.00  0.00    +0.000 A 
ATOM     15  C   UNL     1      13.951  43.418  46.113  0.00  0.00    +0.000 A 
ATOM     16  C   UNL     1      14.519  44.593  45.583  0.00  0.00    +0.000 A 
ATOM     17  C   UNL     1      13.849  45.822  45.626  0.00  0.00    +0.000 A 
ENDBRANCH   1  15
BRANCH   3  18
ATOM     18  C   UNL     1      16.607  39.800  43.828  0.00  0.00    +0.000 A 
ATOM     19  C   UNL     1      17.028  38.458  43.852  0.00  0.00    +0.000 A 
ATOM     20  C   UNL     1      17.662  37.875  42.749  0.00  0.00    +0.000 A 
ATOM     21  C   UNL     1      17.890  38.624  41.598  0.00  0.00    +0.000 A 
ATOM     22  C   UNL     1      17.490  39.955  41.551  0.00  0.00    +0.000 A 
ATOM     23  C   UNL     1      16.859  40.536  42.655  0.00  0.00    +0.000 A 
ENDBRANCH   3  18
BRANCH   7  24
ATOM     24  C   UNL     1      15.393  38.784  50.655  0.00  0.00    +0.000 C 
BRANCH  24  25
ATOM     25  N   UNL     1      16.793  38.837  51.154  0.00  0.00    +0.000 NA
ATOM     26  C   UNL     1      17.028  37.795  52.181  0.00  0.00    +0.000 C 
ATOM     27  C   UNL     1      16.928  38.313  53.625  0.00  0.00    +0.000 C 
ATOM     28  O   UNL     1      17.871  39.354  53.910  0.00  0.00    +0.000 OA
ATOM     29  C   UNL     1      18.223  40.130  52.757  0.00  0.00    +0.000 C 
ATOM     30  C   UNL     1      17.096  40.182  51.714  0.00  0.00    +0.000 C 
ENDBRANCH  24  25
ENDBRANCH   7  24
TORSDOF 4
ENDMDL
MODEL 3
REMARK VINA RESULT:    -6.379      3.205     10.048
REMARK INTER + INTRA:          -8.698
REMARK INTER:                  -7.871
REMARK INTRA:                  -0.827
REMARK UNBOUND:                -0.827
REMARK  Name = 
REMARK  5 active torsions:
REMARK  status: ('A' for Active; 'I' for Inactive)
REMARK    1  A    between atoms: C_1  and  C_2
REMARK    2  A    between atoms: C_5  and  C_6
REMARK    3  A    between atoms: C_8  and  C_9
REMARK    4  A    between atoms: C_18  and  C_20
REMARK    5  A    between atoms: C_20  and  N_21
REMARK                            x       y       z     vdW  Elec       q    Type
REMARK                         _______ _______ _______ _____ _____    ______ ____
ROOT
ATOM      1  C   UNL     1      17.077  39.028  52.489  0.00  0.00    +0.000 A 
ATOM      2  C   UNL     1      18.087  38.111  52.272  0.00  0.00    +0.000 A 
ATOM      3  C   UNL     1      18.293  37.689  50.972  0.00  0.00    +0.000 A 
ATOM      4  N   UNL     1      17.530  38.133  49.952  0.00  0.00    +0.000 NA
ATOM      5  C   UNL     1      16.566  39.011  50.244  0.00  0.00    +0.000 A 
ATOM      6  N   UNL     1      15.818  39.420  49.158  0.00  0.00    +0.000 N 
ATOM      7  C   UNL     1      14.704  40.220  49.175  0.00  0.00    +0.000 C 
ATOM      8  O   UNL     1      14.175  40.739  50.154  0.00  0.00    +0.000 OA
ATOM      9  N   UNL     1      16.319  39.475  51.467  0.00  0.00    +0.000 NA
ATOM     10  H   UNL     1      16.076  38.998  48.276  0.00  0.00    +0.000 HD
ENDROOT
BRANCH   1  15
ATOM     11  C   UNL     1      15.821  41.138  57.780  0.00  0.00    +0.000 C 
ATOM     12  C   UNL     1      16.116  40.590  56.417  0.00  0.00    +0.000 A 
ATOM     13  C   UNL     1      15.544  41.154  55.276  0.00  0.00    +0.000 A 
ATOM     14  C   UNL     1      15.844  40.652  54.002  0.00  0.00    +0.000 A 
ATOM     15  C   UNL     1      16.737  39.578  53.824  0.00  0.00    +0.000 A 
ATOM     16  C   UNL     1      17.304  39.028  54.990  0.00  0.00    +0.000 A 
ATOM     17  C   UNL     1      17.007  39.526  56.263  0.00  0.00    +0.000 A 
ENDBRANCH   1  15
BRANCH   3  18
ATOM     18  C   UNL     1      19.344  36.715  50.605  0.00  0.00    +0.000 A 
ATOM     19  C   UNL     1      20.539  36.596  51.339  0.00  0.00    +0.000 A 
ATOM     20  C   UNL     1      21.523  35.667  50.981  0.00  0.00    +0.000 A 
ATOM     21  C   UNL     1      21.333  34.840  49.878  0.00  0.00    +0.000 A 
ATOM     22  C   UNL     1      20.165  34.943  49.130  0.00  0.00    +0.000 A 
ATOM     23  C   UNL     1      19.185  35.873  49.489  0.00  0.00    +0.000 A 
ENDBRANCH   3  18
BRANCH   7  24
ATOM     24  C   UNL     1      14.159  40.476  47.763  0.00  0.00    +0.000 C 
BRANCH  24  25
ATOM     25  N   UNL     1      15.204  41.039  46.868  0.00  0.00    +0.000 NA
ATOM     26  C   UNL     1      14.836  42.401  46.415  0.00  0.00    +0.000 C 
ATOM     27  C   UNL     1      14.199  42.440  45.017  0.00  0.00    +0.000 C 
ATOM     28  O   UNL     1      15.059  41.915  43.998  0.00  0.00    +0.000 OA
ATOM     29  C   UNL     1      15.970  40.920  44.483  0.00  0.00    +0.000 C 
ATOM     30  C   UNL     1      15.415  40.151  45.693  0.00  0.00    +0.000 C 
ENDBRANCH  24  25
ENDBRANCH   7  24
TORSDOF 4
ENDMDL
