MODEL 1
REMARK VINA RESULT:    -7.064      0.000      0.000
REMARK INTER + INTRA:          -9.889
REMARK INTER:                  -8.752
REMARK INTRA:                  -1.136
REMARK UNBOUND:                -0.966
REMARK  Name = 
REMARK  5 active torsions:
REMARK  status: ('A' for Active; 'I' for Inactive)
REMARK    1  A    between atoms: C_9  and  C_10
REMARK    2  A    between atoms: C_13  and  O_14
REMARK    3  A    between atoms: N_19  and  C_20
REMARK    4  A    between atoms: C_20  and  C_21
REMARK    5  A    between atoms: N_28  and  C_29
REMARK                            x       y       z     vdW  Elec       q    Type
REMARK                         _______ _______ _______ _____ _____    ______ ____
ROOT
ATOM      1  O   UNL     1      16.658  37.466  49.112  0.00  0.00    +0.000 OA
ATOM      2  C   UNL     1      17.614  36.767  48.828  0.00  0.00    +0.000 C 
ATOM      3  C   UNL     1      18.562  36.155  49.800  0.00  0.00    +0.000 A 
ATOM      4  C   UNL     1      19.534  35.630  49.048  0.00  0.00    +0.000 A 
ATOM      5  C   UNL     1      20.683  34.988  49.687  0.00  0.00    +0.000 A 
ATOM      6  O   UNL     1      21.610  34.478  49.072  0.00  0.00    +0.000 OA
ATOM      7  N   UNL     1      20.632  35.033  51.096  0.00  0.00    +0.000 N 
ATOM      8  N   UNL     1      21.613  34.518  51.873  0.00  0.00    +0.000 NA
ATOM      9  C   UNL     1      21.227  34.762  53.136  0.00  0.00    +0.000 A 
ATOM     10  C   UNL     1      19.977  35.446  53.156  0.00  0.00    +0.000 A 
ATOM     11  C   UNL     1      19.603  35.598  51.842  0.00  0.00    +0.000 A 
ATOM     12  N   UNL     1      18.521  36.148  51.189  0.00  0.00    +0.000 N 
ATOM     13  C   UNL     1      19.345  35.761  47.597  0.00  0.00    +0.000 C 
ATOM     14  N   UNL     1      18.061  36.423  47.556  0.00  0.00    +0.000 N 
ENDROOT
BRANCH   9  15
ATOM     15  C   UNL     1      22.050  34.337  54.278  0.00  0.00    +0.000 A 
ATOM     16  C   UNL     1      21.517  34.349  55.579  0.00  0.00    +0.000 A 
ATOM     17  C   UNL     1      22.287  33.955  56.679  0.00  0.00    +0.000 A 
ATOM     18  C   UNL     1      23.599  33.547  56.481  0.00  0.00    +0.000 A 
ATOM     19  C   UNL     1      24.150  33.525  55.207  0.00  0.00    +0.000 A 
ATOM     20  C   UNL     1      23.379  33.919  54.108  0.00  0.00    +0.000 A 
BRANCH  18  21
ATOM     21  O   UNL     1      24.389  33.156  57.522  0.00  0.00    +0.000 OA
ATOM     22  H   UNL     1      24.734  32.269  57.330  0.00  0.00    +0.000 HD
ENDBRANCH  18  21
ENDBRANCH   9  15
BRANCH  14  23
ATOM     23  C   UNL     1      17.511  36.931  46.302  0.00  0.00    +0.000 C 
ATOM     24  C   UNL     1      17.456  38.463  46.256  0.00  0.00    +0.000 C 
ATOM     25  C   UNL     1      16.712  38.963  45.014  0.00  0.00    +0.000 C 
ATOM     26  C   UNL     1      16.827  38.023  43.811  0.00  0.00    +0.000 C 
ATOM     27  C   UNL     1      18.128  37.233  43.829  0.00  0.00    +0.000 C 
ATOM     28  C   UNL     1      18.254  36.360  45.081  0.00  0.00    +0.000 C 
ENDBRANCH  14  23
BRANCH  12  29
ATOM     29  C   UNL     1      17.312  36.512  51.952  0.00  0.00    +0.000 C 
BRANCH  29  30
ATOM     30  C   UNL     1      17.490  37.831  52.684  0.00  0.00    +0.000 A 
ATOM     31  C   UNL     1      17.180  37.941  54.049  0.00  0.00    +0.000 A 
ATOM     32  C   UNL     1      17.369  39.147  54.730  0.00  0.00    +0.000 A 
ATOM     33  C   UNL     1      17.862  40.261  54.054  0.00  0.00    +0.000 A 
ATOM     34  C   UNL     1      18.166  40.171  52.697  0.00  0.00    +0.000 A 
ATOM     35  C   UNL     1      17.983  38.965  52.016  0.00  0.00    +0.000 A 
ENDBRANCH  29  30
ENDBRANCH  12  29
TORSDOF 5
ENDMDL
MODEL 2
REMARK VINA RESULT:    -6.738      4.239      9.510
REMARK INTER + INTRA:          -9.477
REMARK INTER:                  -8.511
REMARK INTRA:                  -0.966
REMARK UNBOUND:                -0.966
REMARK  Name = 
REMARK  5 active torsions:
REMARK  status: ('A' for Active; 'I' for Inactive)
REMARK    1  A    between atoms: C_9  and  C_10
REMARK    2  A    between atoms: C_13  and  O_14
REMARK    3  A    between atoms: N_19  and  C_20
REMARK    4  A    between atoms: C_20  and  C_21
REMARK    5  A    between atoms: N_28  and  C_29
REMARK                            x       y       z     vdW  Elec       q    Type
REMARK                         _______ _______ _______ _____ _____    ______ ____
ROOT
ATOM      1  O   UNL     1      14.426  39.595  55.065  0.00  0.00    +0.000 OA
ATOM      2  C   UNL     1      15.500  39.224  54.628  0.00  0.00    +0.000 C 
ATOM      3  C   UNL     1      15.884  39.178  53.190  0.00  0.00    +0.000 A 
ATOM      4  C   UNL     1      17.064  38.552  53.169  0.00  0.00    +0.000 A 
ATOM      5  C   UNL     1      17.720  38.277  51.891  0.00  0.00    +0.000 A 
ATOM      6  O   UNL     1      18.803  37.715  51.785  0.00  0.00    +0.000 OA
ATOM      7  N   UNL     1      16.968  38.704  50.777  0.00  0.00    +0.000 N 
ATOM      8  N   UNL     1      17.389  38.518  49.504  0.00  0.00    +0.000 NA
ATOM      9  C   UNL     1      16.416  39.031  48.732  0.00  0.00    +0.000 A 
ATOM     10  C   UNL     1      15.360  39.550  49.535  0.00  0.00    +0.000 A 
ATOM     11  C   UNL     1      15.736  39.348  50.842  0.00  0.00    +0.000 A 
ATOM     12  N   UNL     1      15.185  39.624  52.075  0.00  0.00    +0.000 N 
ATOM     13  C   UNL     1      17.602  38.183  54.486  0.00  0.00    +0.000 C 
ATOM     14  N   UNL     1      16.578  38.724  55.350  0.00  0.00    +0.000 N 
ENDROOT
BRANCH   9  15
ATOM     15  C   UNL     1      16.521  39.016  47.266  0.00  0.00    +0.000 A 
ATOM     16  C   UNL     1      15.875  40.000  46.498  0.00  0.00    +0.000 A 
ATOM     17  C   UNL     1      15.957  39.997  45.102  0.00  0.00    +0.000 A 
ATOM     18  C   UNL     1      16.690  39.005  44.464  0.00  0.00    +0.000 A 
ATOM     19  C   UNL     1      17.339  38.021  45.198  0.00  0.00    +0.000 A 
ATOM     20  C   UNL     1      17.255  38.025  46.594  0.00  0.00    +0.000 A 
BRANCH  18  21
ATOM     21  O   UNL     1      16.797  38.959  43.106  0.00  0.00    +0.000 OA
ATOM     22  H   UNL     1      16.795  38.028  42.828  0.00  0.00    +0.000 HD
ENDBRANCH  18  21
ENDBRANCH   9  15
BRANCH  14  23
ATOM     23  C   UNL     1      16.581  38.454  56.786  0.00  0.00    +0.000 C 
ATOM     24  C   UNL     1      17.497  37.284  57.168  0.00  0.00    +0.000 C 
ATOM     25  C   UNL     1      17.342  36.906  58.644  0.00  0.00    +0.000 C 
ATOM     26  C   UNL     1      16.954  38.084  59.541  0.00  0.00    +0.000 C 
ATOM     27  C   UNL     1      17.470  39.408  58.996  0.00  0.00    +0.000 C 
ATOM     28  C   UNL     1      16.912  39.715  57.604  0.00  0.00    +0.000 C 
ENDBRANCH  14  23
BRANCH  12  29
ATOM     29  C   UNL     1      14.022  40.526  52.171  0.00  0.00    +0.000 C 
BRANCH  29  30
ATOM     30  C   UNL     1      14.429  41.915  52.628  0.00  0.00    +0.000 A 
ATOM     31  C   UNL     1      13.505  42.761  53.262  0.00  0.00    +0.000 A 
ATOM     32  C   UNL     1      13.886  44.030  53.708  0.00  0.00    +0.000 A 
ATOM     33  C   UNL     1      15.193  44.473  53.519  0.00  0.00    +0.000 A 
ATOM     34  C   UNL     1      16.121  43.650  52.883  0.00  0.00    +0.000 A 
ATOM     35  C   UNL     1      15.742  42.379  52.442  0.00  0.00    +0.000 A 
ENDBRANCH  29  30
ENDBRANCH  12  29
TORSDOF 5
ENDMDL
MODEL 3
REMARK VINA RESULT:    -6.691      8.034     13.262
REMARK INTER + INTRA:          -9.417
REMARK INTER:                  -8.106
REMARK INTRA:                  -1.312
REMARK UNBOUND:                -0.966
REMARK  Name = 
REMARK  5 active torsions:
REMARK  status: ('A' for Active; 'I' for Inactive)
REMARK    1  A    between atoms: C_9  and  C_10
REMARK    2  A    between atoms: C_13  and  O_14
REMARK    3  A    between atoms: N_19  and  C_20
REMARK    4  A    between atoms: C_20  and  C_21
REMARK    5  A    between atoms: N_28  and  C_29
REMARK                            x       y       z     vdW  Elec       q    Type
REMARK                         _______ _______ _______ _____ _____    ______ ____
ROOT
ATOM      1  O   UNL     1      17.273  40.898  42.515  0.00  0.00    +0.000 OA
ATOM      2  C   UNL     1      16.534  40.811  43.479  0.00  0.00    +0.000 C 
ATOM      3  C   UNL     1      15.715  41.918  44.048  0.00  0.00    +0.000 A 
ATOM      4  C   UNL     1      15.208  41.422  45.180  0.00  0.00    +0.000 A 
ATOM      5  C   UNL     1      14.385  42.271  46.043  0.00  0.00    +0.000 A 
ATOM      6  O   UNL     1      13.878  41.893  47.091  0.00  0.00    +0.000 OA
ATOM      7  N   UNL     1      14.249  43.588  45.558  0.00  0.00    +0.000 N 
ATOM      8  N   UNL     1      13.548  44.536  46.224  0.00  0.00    +0.000 NA
ATOM      9  C   UNL     1      13.657  45.646  45.476  0.00  0.00    +0.000 A 
ATOM     10  C   UNL     1      14.445  45.394  44.315  0.00  0.00    +0.000 A 
ATOM     11  C   UNL     1      14.801  44.068  44.375  0.00  0.00    +0.000 A 
ATOM     12  N   UNL     1      15.529  43.212  43.576  0.00  0.00    +0.000 N 
ATOM     13  C   UNL     1      15.546  40.019  45.458  0.00  0.00    +0.000 C 
ATOM     14  N   UNL     1      16.321  39.696  44.283  0.00  0.00    +0.000 N 
ENDROOT
BRANCH   9  15
ATOM     15  C   UNL     1      13.013  46.904  45.882  0.00  0.00    +0.000 A 
ATOM     16  C   UNL     1      11.815  46.881  46.618  0.00  0.00    +0.000 A 
ATOM     17  C   UNL     1      11.183  48.067  47.008  0.00  0.00    +0.000 A 
ATOM     18  C   UNL     1      11.750  49.286  46.660  0.00  0.00    +0.000 A 
ATOM     19  C   UNL     1      12.932  49.338  45.934  0.00  0.00    +0.000 A 
ATOM     20  C   UNL     1      13.562  48.151  45.546  0.00  0.00    +0.000 A 
BRANCH  18  21
ATOM     21  O   UNL     1      11.170  50.469  47.014  0.00  0.00    +0.000 OA
ATOM     22  H   UNL     1      10.671  50.807  46.253  0.00  0.00    +0.000 HD
ENDBRANCH  18  21
ENDBRANCH   9  15
BRANCH  14  23
ATOM     23  C   UNL     1      17.038  38.428  44.174  0.00  0.00    +0.000 C 
ATOM     24  C   UNL     1      17.537  37.911  45.529  0.00  0.00    +0.000 C 
ATOM     25  C   UNL     1      18.437  36.683  45.367  0.00  0.00    +0.000 C 
ATOM     26  C   UNL     1      18.096  35.832  44.141  0.00  0.00    +0.000 C 
ATOM     27  C   UNL     1      16.622  35.928  43.774  0.00  0.00    +0.000 C 
ATOM     28  C   UNL     1      16.204  37.362  43.441  0.00  0.00    +0.000 C 
ENDBRANCH  14  23
BRANCH  12  29
ATOM     29  C   UNL     1      15.898  43.622  42.209  0.00  0.00    +0.000 C 
BRANCH  29  30
ATOM     30  C   UNL     1      14.760  43.393  41.231  0.00  0.00    +0.000 A 
ATOM     31  C   UNL     1      13.995  44.470  40.754  0.00  0.00    +0.000 A 
ATOM     32  C   UNL     1      12.965  44.263  39.833  0.00  0.00    +0.000 A 
ATOM     33  C   UNL     1      12.681  42.976  39.381  0.00  0.00    +0.000 A 
ATOM     34  C   UNL     1      13.424  41.895  39.850  0.00  0.00    +0.000 A 
ATOM     35  C   UNL     1      14.458  42.101  40.767  0.00  0.00    +0.000 A 
ENDBRANCH  29  30
ENDBRANCH  12  29
TORSDOF 5
ENDMDL
