MODEL 1
REMARK VINA RESULT:    -6.603      0.000      0.000
REMARK INTER + INTRA:         -10.190
REMARK INTER:                  -9.016
REMARK INTRA:                  -1.175
REMARK UNBOUND:                -1.272
REMARK  Name = 
REMARK  6 active torsions:
REMARK  status: ('A' for Active; 'I' for Inactive)
REMARK    1  A    between atoms: C_5  and  C_6
REMARK    2  A    between atoms: C_6  and  N_7
REMARK    3  A    between atoms: N_7  and  C_8
REMARK    4  A    between atoms: C_11  and  C_12
REMARK    5  A    between atoms: C_12  and  C_13
REMARK    6  A    between atoms: C_12  and  C_19
REMARK                            x       y       z     vdW  Elec       q    Type
REMARK                         _______ _______ _______ _____ _____    ______ ____
ROOT
ATOM      1  C   UNL     1      15.406  38.646  47.383  0.00  0.00    +0.000 C 
ATOM      2  C   UNL     1      14.827  39.079  48.734  0.00  0.00    +0.000 C 
ATOM      3  C   UNL     1      15.353  38.195  49.870  0.00  0.00    +0.000 C 
ATOM      4  C   UNL     1      16.743  37.607  49.569  0.00  0.00    +0.000 C 
ATOM      5  O   UNL     1      17.480  38.543  48.779  0.00  0.00    +0.000 OA
ATOM      6  C   UNL     1      16.954  38.690  47.455  0.00  0.00    +0.000 C 
ENDROOT
BRANCH   1   7
ATOM      7  N   UNL     1      14.938  39.466  46.260  0.00  0.00    +0.000 NA
ATOM      8  H   UNL     1      14.417  38.890  45.597  0.00  0.00    +0.000 HD
BRANCH   7   9
ATOM      9  C   UNL     1      16.015  40.154  45.554  0.00  0.00    +0.000 C 
BRANCH   9  14
ATOM     10  F   UNL     1      14.447  45.423  44.284  0.00  0.00    +0.000 F 
ATOM     11  C   UNL     1      14.821  44.173  44.585  0.00  0.00    +0.000 A 
ATOM     12  C   UNL     1      15.623  43.466  43.697  0.00  0.00    +0.000 A 
ATOM     13  C   UNL     1      16.014  42.163  44.008  0.00  0.00    +0.000 A 
ATOM     14  C   UNL     1      15.605  41.568  45.213  0.00  0.00    +0.000 A 
ATOM     15  C   UNL     1      14.788  42.298  46.092  0.00  0.00    +0.000 A 
ATOM     16  C   UNL     1      14.398  43.601  45.779  0.00  0.00    +0.000 A 
ENDBRANCH   9  14
ENDBRANCH   7   9
ENDBRANCH   1   7
BRANCH   4  17
ATOM     17  C   UNL     1      17.492  37.160  50.868  0.00  0.00    +0.000 C 
BRANCH  17  18
ATOM     18  C   UNL     1      17.543  38.138  52.043  0.00  0.00    +0.000 A 
ATOM     19  C   UNL     1      17.056  37.723  53.296  0.00  0.00    +0.000 A 
ATOM     20  C   UNL     1      17.085  38.575  54.401  0.00  0.00    +0.000 A 
ATOM     21  C   UNL     1      17.611  39.857  54.277  0.00  0.00    +0.000 A 
ATOM     22  C   UNL     1      18.112  40.282  53.051  0.00  0.00    +0.000 A 
ATOM     23  C   UNL     1      18.083  39.429  51.943  0.00  0.00    +0.000 A 
ENDBRANCH  17  18
BRANCH  17  24
ATOM     24  C   UNL     1      18.868  36.570  50.553  0.00  0.00    +0.000 A 
ATOM     25  C   UNL     1      19.056  35.807  49.388  0.00  0.00    +0.000 A 
ATOM     26  C   UNL     1      20.306  35.262  49.085  0.00  0.00    +0.000 A 
ATOM     27  C   UNL     1      21.384  35.469  49.942  0.00  0.00    +0.000 A 
ATOM     28  C   UNL     1      21.213  36.219  51.104  0.00  0.00    +0.000 A 
ATOM     29  C   UNL     1      19.964  36.764  51.408  0.00  0.00    +0.000 A 
ENDBRANCH  17  24
ENDBRANCH   4  17
TORSDOF 6
ENDMDL
MODEL 2
REMARK VINA RESULT:    -6.297      3.216      9.299
REMARK INTER + INTRA:          -9.777
REMARK INTER:                  -8.443
REMARK INTRA:                  -1.334
REMARK UNBOUND:                -1.272
REMARK  Name = 
REMARK  6 active torsions:
REMARK  status: ('A' for Active; 'I' for Inactive)
REMARK    1  A    between atoms: C_5  and  C_6
REMARK    2  A    between atoms: C_6  and  N_7
REMARK    3  A    between atoms: N_7  and  C_8
REMARK    4  A    between atoms: C_11  and  C_12
REMARK    5  A    between atoms: C_12  and  C_13
REMARK    6  A    between atoms: C_12  and  C_19
REMARK                            x       y       z     vdW  Elec       q    Type
REMARK                         _______ _______ _______ _____ _____    ______ ____
ROOT
ATOM      1  C   UNL     1      14.969  39.621  47.189  0.00  0.00    +0.000 C 
ATOM      2  C   UNL     1      16.138  39.958  46.257  0.00  0.00    +0.000 C 
ATOM      3  C   UNL     1      15.753  41.060  45.265  0.00  0.00    +0.000 C 
ATOM      4  C   UNL     1      14.665  41.999  45.813  0.00  0.00    +0.000 C 
ATOM      5  O   UNL     1      14.828  42.119  47.228  0.00  0.00    +0.000 OA
ATOM      6  C   UNL     1      14.519  40.907  47.928  0.00  0.00    +0.000 C 
ENDROOT
BRANCH   1   7
ATOM      7  N   UNL     1      15.287  38.573  48.167  0.00  0.00    +0.000 NA
ATOM      8  H   UNL     1      14.508  37.918  48.245  0.00  0.00    +0.000 HD
BRANCH   7   9
ATOM      9  C   UNL     1      15.610  39.094  49.492  0.00  0.00    +0.000 C 
BRANCH   9  14
ATOM     10  F   UNL     1      20.122  36.453  51.617  0.00  0.00    +0.000 F 
ATOM     11  C   UNL     1      19.050  37.078  51.112  0.00  0.00    +0.000 A 
ATOM     12  C   UNL     1      18.543  36.681  49.881  0.00  0.00    +0.000 A 
ATOM     13  C   UNL     1      17.427  37.331  49.352  0.00  0.00    +0.000 A 
ATOM     14  C   UNL     1      16.814  38.378  50.061  0.00  0.00    +0.000 A 
ATOM     15  C   UNL     1      17.348  38.768  51.300  0.00  0.00    +0.000 A 
ATOM     16  C   UNL     1      18.464  38.116  51.827  0.00  0.00    +0.000 A 
ENDBRANCH   9  14
ENDBRANCH   7   9
ENDBRANCH   1   7
BRANCH   4  17
ATOM     17  C   UNL     1      14.641  43.377  45.070  0.00  0.00    +0.000 C 
BRANCH  17  18
ATOM     18  C   UNL     1      13.749  44.484  45.633  0.00  0.00    +0.000 A 
ATOM     19  C   UNL     1      14.122  45.826  45.431  0.00  0.00    +0.000 A 
ATOM     20  C   UNL     1      13.339  46.874  45.919  0.00  0.00    +0.000 A 
ATOM     21  C   UNL     1      12.164  46.601  46.612  0.00  0.00    +0.000 A 
ATOM     22  C   UNL     1      11.770  45.281  46.809  0.00  0.00    +0.000 A 
ATOM     23  C   UNL     1      12.554  44.231  46.320  0.00  0.00    +0.000 A 
ENDBRANCH  17  18
BRANCH  17  24
ATOM     24  C   UNL     1      14.455  43.202  43.561  0.00  0.00    +0.000 A 
ATOM     25  C   UNL     1      13.310  42.556  43.064  0.00  0.00    +0.000 A 
ATOM     26  C   UNL     1      13.124  42.389  41.690  0.00  0.00    +0.000 A 
ATOM     27  C   UNL     1      14.080  42.862  40.794  0.00  0.00    +0.000 A 
ATOM     28  C   UNL     1      15.223  43.499  41.271  0.00  0.00    +0.000 A 
ATOM     29  C   UNL     1      15.410  43.666  42.644  0.00  0.00    +0.000 A 
ENDBRANCH  17  24
ENDBRANCH   4  17
TORSDOF 6
ENDMDL
MODEL 3
REMARK VINA RESULT:    -5.649      2.138      2.794
REMARK INTER + INTRA:          -8.902
REMARK INTER:                  -7.630
REMARK INTRA:                  -1.272
REMARK UNBOUND:                -1.272
REMARK  Name = 
REMARK  6 active torsions:
REMARK  status: ('A' for Active; 'I' for Inactive)
REMARK    1  A    between atoms: C_5  and  C_6
REMARK    2  A    between atoms: C_6  and  N_7
REMARK    3  A    between atoms: N_7  and  C_8
REMARK    4  A    between atoms: C_11  and  C_12
REMARK    5  A    between atoms: C_12  and  C_13
REMARK    6  A    between atoms: C_12  and  C_19
REMARK                            x       y       z     vdW  Elec       q    Type
REMARK                         _______ _______ _______ _____ _____    ______ ____
ROOT
ATOM      1  C   UNL     1      16.170  38.594  47.798  0.00  0.00    +0.000 C 
ATOM      2  C   UNL     1      16.465  37.091  47.817  0.00  0.00    +0.000 C 
ATOM      3  C   UNL     1      17.311  36.709  49.036  0.00  0.00    +0.000 C 
ATOM      4  C   UNL     1      17.095  37.657  50.229  0.00  0.00    +0.000 C 
ATOM      5  O   UNL     1      15.742  38.116  50.216  0.00  0.00    +0.000 OA
ATOM      6  C   UNL     1      15.461  38.992  49.118  0.00  0.00    +0.000 C 
ENDROOT
BRANCH   1   7
ATOM      7  N   UNL     1      15.355  39.013  46.651  0.00  0.00    +0.000 NA
ATOM      8  H   UNL     1      15.349  38.282  45.939  0.00  0.00    +0.000 HD
BRANCH   7   9
ATOM      9  C   UNL     1      15.799  40.266  46.048  0.00  0.00    +0.000 C 
BRANCH   9  14
ATOM     10  F   UNL     1      17.695  39.369  40.810  0.00  0.00    +0.000 F 
ATOM     11  C   UNL     1      17.247  39.581  42.053  0.00  0.00    +0.000 A 
ATOM     12  C   UNL     1      17.290  38.548  42.982  0.00  0.00    +0.000 A 
ATOM     13  C   UNL     1      16.822  38.766  44.279  0.00  0.00    +0.000 A 
ATOM     14  C   UNL     1      16.316  40.023  44.648  0.00  0.00    +0.000 A 
ATOM     15  C   UNL     1      16.275  41.051  43.691  0.00  0.00    +0.000 A 
ATOM     16  C   UNL     1      16.743  40.830  42.396  0.00  0.00    +0.000 A 
ENDBRANCH   9  14
ENDBRANCH   7   9
ENDBRANCH   1   7
BRANCH   4  17
ATOM     17  C   UNL     1      17.521  37.007  51.588  0.00  0.00    +0.000 C 
BRANCH  17  18
ATOM     18  C   UNL     1      17.477  37.875  52.846  0.00  0.00    +0.000 A 
ATOM     19  C   UNL     1      17.257  37.257  54.091  0.00  0.00    +0.000 A 
ATOM     20  C   UNL     1      17.214  38.002  55.270  0.00  0.00    +0.000 A 
ATOM     21  C   UNL     1      17.400  39.381  55.229  0.00  0.00    +0.000 A 
ATOM     22  C   UNL     1      17.634  40.010  54.010  0.00  0.00    +0.000 A 
ATOM     23  C   UNL     1      17.677  39.263  52.829  0.00  0.00    +0.000 A 
ENDBRANCH  17  18
BRANCH  17  24
ATOM     24  C   UNL     1      18.843  36.247  51.461  0.00  0.00    +0.000 A 
ATOM     25  C   UNL     1      18.858  34.844  51.543  0.00  0.00    +0.000 A 
ATOM     26  C   UNL     1      20.056  34.135  51.428  0.00  0.00    +0.000 A 
ATOM     27  C   UNL     1      21.254  34.816  51.232  0.00  0.00    +0.000 A 
ATOM     28  C   UNL     1      21.257  36.207  51.153  0.00  0.00    +0.000 A 
ATOM     29  C   UNL     1      20.061  36.917  51.268  0.00  0.00    +0.000 A 
ENDBRANCH  17  24
ENDBRANCH   4  17
TORSDOF 6
ENDMDL
