MODEL 1
REMARK VINA RESULT:    -6.621      0.000      0.000
REMARK INTER + INTRA:          -8.425
REMARK INTER:                  -7.795
REMARK INTRA:                  -0.630
REMARK UNBOUND:                -0.643
REMARK  Name = 
REMARK  3 active torsions:
REMARK  status: ('A' for Active; 'I' for Inactive)
REMARK    1  A    between atoms: C_2  and  C_3
REMARK    2  A    between atoms: C_23  and  C_24
REMARK    3  A    between atoms: C_24  and  C_25
REMARK                            x       y       z     vdW  Elec       q    Type
REMARK                         _______ _______ _______ _____ _____    ______ ____
ROOT
ATOM      1  C   UNL     1      11.740  41.227  50.561  0.00  0.00    +0.000 A 
ATOM      2  C   UNL     1      12.748  40.486  51.189  0.00  0.00    +0.000 A 
ATOM      3  C   UNL     1      13.370  39.426  50.522  0.00  0.00    +0.000 A 
ATOM      4  C   UNL     1      12.990  39.078  49.217  0.00  0.00    +0.000 A 
ATOM      5  C   UNL     1      11.960  39.803  48.602  0.00  0.00    +0.000 A 
ATOM      6  C   UNL     1      11.371  40.894  49.254  0.00  0.00    +0.000 A 
ATOM      7  O   UNL     1      10.392  41.587  48.576  0.00  0.00    +0.000 OA
ATOM      8  C   UNL     1      10.788  42.795  48.041  0.00  0.00    +0.000 A 
ATOM      9  C   UNL     1       9.963  43.886  48.270  0.00  0.00    +0.000 A 
ATOM     10  C   UNL     1      10.334  45.138  47.785  0.00  0.00    +0.000 A 
ATOM     11  C   UNL     1      11.514  45.308  47.040  0.00  0.00    +0.000 A 
ATOM     12  C   UNL     1      11.895  46.594  46.635  0.00  0.00    +0.000 A 
ATOM     13  C   UNL     1      13.084  46.800  45.944  0.00  0.00    +0.000 A 
ATOM     14  C   UNL     1      13.888  45.715  45.610  0.00  0.00    +0.000 A 
ATOM     15  C   UNL     1      13.501  44.406  45.937  0.00  0.00    +0.000 A 
ATOM     16  C   UNL     1      12.328  44.190  46.719  0.00  0.00    +0.000 A 
ATOM     17  C   UNL     1      11.943  42.943  47.265  0.00  0.00    +0.000 A 
ATOM     18  N   UNL     1      14.367  43.380  45.468  0.00  0.00    +0.000 N 
ATOM     19  C   UNL     1      13.935  42.226  44.828  0.00  0.00    +0.000 C 
ATOM     20  O   UNL     1      12.760  41.912  44.646  0.00  0.00    +0.000 OA
ATOM     21  C   UNL     1      15.059  41.266  44.363  0.00  0.00    +0.000 C 
ATOM     22  N   UNL     1      15.748  40.656  45.524  0.00  0.00    +0.000 NA
ATOM     23  C   UNL     1      14.900  39.677  46.203  0.00  0.00    +0.000 C 
ATOM     24  C   UNL     1      15.662  38.960  47.261  0.00  0.00    +0.000 A 
ATOM     25  C   UNL     1      17.019  38.825  47.486  0.00  0.00    +0.000 A 
ATOM     26  N   UNL     1      17.273  38.032  48.573  0.00  0.00    +0.000 NA
ATOM     27  C   UNL     1      16.093  37.663  49.010  0.00  0.00    +0.000 A 
ATOM     28  N   UNL     1      15.083  38.207  48.262  0.00  0.00    +0.000 N 
ATOM     29  C   UNL     1      13.667  37.945  48.483  0.00  0.00    +0.000 C 
ATOM     30  H   UNL     1      15.292  43.694  45.198  0.00  0.00    +0.000 HD
ATOM     31  H   UNL     1      15.998  41.386  46.194  0.00  0.00    +0.000 HD
ENDROOT
BRANCH   1  33
ATOM     32  N   UNL     1      10.580  43.134  51.883  0.00  0.00    +0.000 NA
ATOM     33  C   UNL     1      11.102  42.292  51.277  0.00  0.00    +0.000 C 
ENDBRANCH   1  33
BRANCH  21  34
ATOM     34  C   UNL     1      16.011  41.872  43.312  0.00  0.00    +0.000 C 
BRANCH  34  35
ATOM     35  C   UNL     1      15.370  42.468  42.086  0.00  0.00    +0.000 A 
ATOM     36  C   UNL     1      15.332  43.791  41.691  0.00  0.00    +0.000 A 
ATOM     37  C   UNL     1      14.643  43.972  40.457  0.00  0.00    +0.000 A 
ATOM     38  C   UNL     1      14.197  42.780  39.936  0.00  0.00    +0.000 A 
ATOM     39  S   UNL     1      14.617  41.453  40.928  0.00  0.00    +0.000 S 
ENDBRANCH  34  35
ENDBRANCH  21  34
TORSDOF 3
ENDMDL
MODEL 2
REMARK VINA RESULT:    -6.168      2.842      6.908
REMARK INTER + INTRA:          -7.893
REMARK INTER:                  -7.400
REMARK INTRA:                  -0.493
REMARK UNBOUND:                -0.643
REMARK  Name = 
REMARK  3 active torsions:
REMARK  status: ('A' for Active; 'I' for Inactive)
REMARK    1  A    between atoms: C_2  and  C_3
REMARK    2  A    between atoms: C_23  and  C_24
REMARK    3  A    between atoms: C_24  and  C_25
REMARK                            x       y       z     vdW  Elec       q    Type
REMARK                         _______ _______ _______ _____ _____    ______ ____
ROOT
ATOM      1  C   UNL     1      13.801  44.329  42.573  0.00  0.00    +0.000 A 
ATOM      2  C   UNL     1      14.050  43.500  41.473  0.00  0.00    +0.000 A 
ATOM      3  C   UNL     1      15.135  42.618  41.480  0.00  0.00    +0.000 A 
ATOM      4  C   UNL     1      16.001  42.555  42.582  0.00  0.00    +0.000 A 
ATOM      5  C   UNL     1      15.767  43.408  43.670  0.00  0.00    +0.000 A 
ATOM      6  C   UNL     1      14.652  44.257  43.680  0.00  0.00    +0.000 A 
ATOM      7  O   UNL     1      14.459  45.039  44.798  0.00  0.00    +0.000 OA
ATOM      8  C   UNL     1      13.475  44.603  45.661  0.00  0.00    +0.000 A 
ATOM      9  C   UNL     1      12.560  45.547  46.103  0.00  0.00    +0.000 A 
ATOM     10  C   UNL     1      11.523  45.153  46.945  0.00  0.00    +0.000 A 
ATOM     11  C   UNL     1      11.407  43.822  47.381  0.00  0.00    +0.000 A 
ATOM     12  C   UNL     1      10.309  43.445  48.164  0.00  0.00    +0.000 A 
ATOM     13  C   UNL     1      10.138  42.124  48.565  0.00  0.00    +0.000 A 
ATOM     14  C   UNL     1      11.090  41.169  48.224  0.00  0.00    +0.000 A 
ATOM     15  C   UNL     1      12.239  41.525  47.502  0.00  0.00    +0.000 A 
ATOM     16  C   UNL     1      12.383  42.857  47.013  0.00  0.00    +0.000 A 
ATOM     17  C   UNL     1      13.396  43.284  46.121  0.00  0.00    +0.000 A 
ATOM     18  N   UNL     1      13.175  40.475  47.288  0.00  0.00    +0.000 N 
ATOM     19  C   UNL     1      14.542  40.594  47.490  0.00  0.00    +0.000 C 
ATOM     20  O   UNL     1      15.126  41.629  47.813  0.00  0.00    +0.000 OA
ATOM     21  C   UNL     1      15.365  39.306  47.237  0.00  0.00    +0.000 C 
ATOM     22  N   UNL     1      15.364  38.952  45.799  0.00  0.00    +0.000 NA
ATOM     23  C   UNL     1      16.175  39.881  45.012  0.00  0.00    +0.000 C 
ATOM     24  C   UNL     1      16.295  39.417  43.603  0.00  0.00    +0.000 A 
ATOM     25  C   UNL     1      16.069  38.186  43.018  0.00  0.00    +0.000 A 
ATOM     26  N   UNL     1      16.346  38.206  41.677  0.00  0.00    +0.000 NA
ATOM     27  C   UNL     1      16.756  39.428  41.432  0.00  0.00    +0.000 A 
ATOM     28  N   UNL     1      16.730  40.206  42.559  0.00  0.00    +0.000 N 
ATOM     29  C   UNL     1      17.167  41.595  42.605  0.00  0.00    +0.000 C 
ATOM     30  H   UNL     1      12.804  39.542  47.426  0.00  0.00    +0.000 HD
ATOM     31  H   UNL     1      14.406  38.979  45.442  0.00  0.00    +0.000 HD
ENDROOT
BRANCH   1  33
ATOM     32  N   UNL     1      11.813  45.995  42.521  0.00  0.00    +0.000 NA
ATOM     33  C   UNL     1      12.697  45.241  42.529  0.00  0.00    +0.000 C 
ENDBRANCH   1  33
BRANCH  21  34
ATOM     34  C   UNL     1      15.008  38.135  48.175  0.00  0.00    +0.000 C 
BRANCH  34  35
ATOM     35  C   UNL     1      15.887  37.949  49.384  0.00  0.00    +0.000 A 
ATOM     36  C   UNL     1      17.142  38.474  49.626  0.00  0.00    +0.000 A 
ATOM     37  C   UNL     1      17.659  38.087  50.895  0.00  0.00    +0.000 A 
ATOM     38  C   UNL     1      16.774  37.299  51.595  0.00  0.00    +0.000 A 
ATOM     39  S   UNL     1      15.327  37.037  50.724  0.00  0.00    +0.000 S 
ENDBRANCH  34  35
ENDBRANCH  21  34
TORSDOF 3
ENDMDL
MODEL 3
REMARK VINA RESULT:    -6.097      2.914      6.983
REMARK INTER + INTRA:          -7.809
REMARK INTER:                  -7.167
REMARK INTRA:                  -0.643
REMARK UNBOUND:                -0.643
REMARK  Name = 
REMARK  3 active torsions:
REMARK  status: ('A' for Active; 'I' for Inactive)
REMARK    1  A    between atoms: C_2  and  C_3
REMARK    2  A    between atoms: C_23  and  C_24
REMARK    3  A    between atoms: C_24  and  C_25
REMARK                            x       y       z     vdW  Elec       q    Type
REMARK                         _______ _______ _______ _____ _____    ______ ____
ROOT
ATOM      1  C   UNL     1      15.145  42.303  41.584  0.00  0.00    +0.000 A 
ATOM      2  C   UNL     1      14.842  41.104  40.928  0.00  0.00    +0.000 A 
ATOM      3  C   UNL     1      15.266  39.880  41.454  0.00  0.00    +0.000 A 
ATOM      4  C   UNL     1      16.011  39.829  42.642  0.00  0.00    +0.000 A 
ATOM      5  C   UNL     1      16.339  41.033  43.280  0.00  0.00    +0.000 A 
ATOM      6  C   UNL     1      15.873  42.255  42.777  0.00  0.00    +0.000 A 
ATOM      7  O   UNL     1      16.199  43.397  43.477  0.00  0.00    +0.000 OA
ATOM      8  C   UNL     1      15.183  43.927  44.245  0.00  0.00    +0.000 A 
ATOM      9  C   UNL     1      14.959  45.292  44.136  0.00  0.00    +0.000 A 
ATOM     10  C   UNL     1      13.920  45.874  44.859  0.00  0.00    +0.000 A 
ATOM     11  C   UNL     1      13.117  45.109  45.722  0.00  0.00    +0.000 A 
ATOM     12  C   UNL     1      12.034  45.712  46.374  0.00  0.00    +0.000 A 
ATOM     13  C   UNL     1      11.189  44.968  47.191  0.00  0.00    +0.000 A 
ATOM     14  C   UNL     1      11.444  43.616  47.401  0.00  0.00    +0.000 A 
ATOM     15  C   UNL     1      12.560  42.996  46.822  0.00  0.00    +0.000 A 
ATOM     16  C   UNL     1      13.385  43.727  45.916  0.00  0.00    +0.000 A 
ATOM     17  C   UNL     1      14.418  43.162  45.131  0.00  0.00    +0.000 A 
ATOM     18  N   UNL     1      12.756  41.633  47.181  0.00  0.00    +0.000 N 
ATOM     19  C   UNL     1      13.974  41.096  47.572  0.00  0.00    +0.000 C 
ATOM     20  O   UNL     1      15.044  41.703  47.595  0.00  0.00    +0.000 OA
ATOM     21  C   UNL     1      13.942  39.596  47.961  0.00  0.00    +0.000 C 
ATOM     22  N   UNL     1      13.673  38.748  46.776  0.00  0.00    +0.000 NA
ATOM     23  C   UNL     1      14.818  38.709  45.868  0.00  0.00    +0.000 C 
ATOM     24  C   UNL     1      14.591  37.727  44.773  0.00  0.00    +0.000 A 
ATOM     25  C   UNL     1      13.698  36.680  44.646  0.00  0.00    +0.000 A 
ATOM     26  N   UNL     1      13.871  36.009  43.465  0.00  0.00    +0.000 NA
ATOM     27  C   UNL     1      14.870  36.617  42.871  0.00  0.00    +0.000 A 
ATOM     28  N   UNL     1      15.333  37.673  43.611  0.00  0.00    +0.000 N 
ATOM     29  C   UNL     1      16.460  38.511  43.226  0.00  0.00    +0.000 C 
ATOM     30  H   UNL     1      11.942  41.179  47.580  0.00  0.00    +0.000 HD
ATOM     31  H   UNL     1      12.869  39.121  46.267  0.00  0.00    +0.000 HD
ENDROOT
BRANCH   1  33
ATOM     32  N   UNL     1      14.405  44.553  40.527  0.00  0.00    +0.000 NA
ATOM     33  C   UNL     1      14.720  43.545  41.010  0.00  0.00    +0.000 C 
ENDBRANCH   1  33
BRANCH  21  34
ATOM     34  C   UNL     1      13.051  39.279  49.180  0.00  0.00    +0.000 C 
BRANCH  34  35
ATOM     35  C   UNL     1      13.242  40.145  50.397  0.00  0.00    +0.000 A 
ATOM     36  C   UNL     1      12.311  40.930  51.050  0.00  0.00    +0.000 A 
ATOM     37  C   UNL     1      12.860  41.599  52.182  0.00  0.00    +0.000 A 
ATOM     38  C   UNL     1      14.186  41.285  52.373  0.00  0.00    +0.000 A 
ATOM     39  S   UNL     1      14.758  40.185  51.196  0.00  0.00    +0.000 S 
ENDBRANCH  34  35
ENDBRANCH  21  34
TORSDOF 3
ENDMDL
