MODEL 1
REMARK VINA RESULT:    -6.989      0.000      0.000
REMARK INTER + INTRA:         -10.615
REMARK INTER:                  -9.615
REMARK INTRA:                  -1.000
REMARK UNBOUND:                -1.174
REMARK  Name = 
REMARK  7 active torsions:
REMARK  status: ('A' for Active; 'I' for Inactive)
REMARK    1  A    between atoms: C_1  and  C_2
REMARK    2  A    between atoms: C_4  and  N_5
REMARK    3  A    between atoms: C_6  and  C_8
REMARK    4  A    between atoms: C_8  and  C_10
REMARK    5  A    between atoms: N_12  and  C_13
REMARK    6  A    between atoms: C_13  and  C_14
REMARK    7  A    between atoms: C_16  and  C_17
REMARK                            x       y       z     vdW  Elec       q    Type
REMARK                         _______ _______ _______ _____ _____    ______ ____
ROOT
ATOM      1  C   UNL     1      18.085  37.484  51.176  0.00  0.00    +0.000 A 
ATOM      2  C   UNL     1      17.243  37.386  50.078  0.00  0.00    +0.000 A 
ATOM      3  N   UNL     1      17.854  36.626  49.118  0.00  0.00    +0.000 N 
ATOM      4  C   UNL     1      19.105  36.238  49.550  0.00  0.00    +0.000 A 
ATOM      5  C   UNL     1      20.092  35.468  48.910  0.00  0.00    +0.000 A 
ATOM      6  C   UNL     1      21.290  35.233  49.584  0.00  0.00    +0.000 A 
ATOM      7  C   UNL     1      21.502  35.753  50.855  0.00  0.00    +0.000 A 
ATOM      8  C   UNL     1      20.514  36.516  51.487  0.00  0.00    +0.000 A 
ATOM      9  C   UNL     1      19.281  36.764  50.838  0.00  0.00    +0.000 A 
ENDROOT
BRANCH   1  10
ATOM     10  C   UNL     1      17.729  38.243  52.373  0.00  0.00    +0.000 C 
ATOM     11  O   UNL     1      17.701  37.719  53.490  0.00  0.00    +0.000 OA
BRANCH  10  13
ATOM     12  N   UNL     1      16.121  39.912  53.018  0.00  0.00    +0.000 N 
ATOM     13  C   UNL     1      17.305  39.713  52.331  0.00  0.00    +0.000 C 
ATOM     14  O   UNL     1      18.004  40.535  51.760  0.00  0.00    +0.000 OA
ATOM     15  H   UNL     1      15.769  39.112  53.537  0.00  0.00    +0.000 HD
BRANCH  12  19
ATOM     16  C   UNL     1      15.134  44.809  53.536  0.00  0.00    +0.000 C 
ATOM     17  C   UNL     1      14.932  43.344  53.384  0.00  0.00    +0.000 A 
ATOM     18  C   UNL     1      15.974  42.364  53.267  0.00  0.00    +0.000 A 
ATOM     19  C   UNL     1      15.438  41.102  53.133  0.00  0.00    +0.000 A 
ATOM     20  S   UNL     1      13.741  41.224  53.153  0.00  0.00    +0.000 S 
ATOM     21  N   UNL     1      13.685  42.873  53.337  0.00  0.00    +0.000 NA
ENDBRANCH  12  19
ENDBRANCH  10  13
ENDBRANCH   1  10
BRANCH   3  22
ATOM     22  C   UNL     1      17.273  36.325  47.813  0.00  0.00    +0.000 C 
BRANCH  22  23
ATOM     23  C   UNL     1      16.598  37.503  47.228  0.00  0.00    +0.000 A 
ATOM     24  C   UNL     1      17.006  38.701  46.693  0.00  0.00    +0.000 A 
ATOM     25  C   UNL     1      15.806  39.372  46.327  0.00  0.00    +0.000 A 
ATOM     26  N   UNL     1      14.747  38.603  46.628  0.00  0.00    +0.000 NA
ATOM     27  O   UNL     1      15.242  37.440  47.175  0.00  0.00    +0.000 OA
BRANCH  25  28
ATOM     28  C   UNL     1      15.651  40.694  45.713  0.00  0.00    +0.000 A 
ATOM     29  C   UNL     1      15.050  41.751  46.414  0.00  0.00    +0.000 A 
ATOM     30  C   UNL     1      14.910  43.011  45.824  0.00  0.00    +0.000 A 
ATOM     31  C   UNL     1      15.367  43.229  44.526  0.00  0.00    +0.000 A 
ATOM     32  C   UNL     1      15.965  42.192  43.816  0.00  0.00    +0.000 A 
ATOM     33  C   UNL     1      16.108  40.933  44.406  0.00  0.00    +0.000 A 
ENDBRANCH  25  28
ENDBRANCH  22  23
ENDBRANCH   3  22
TORSDOF 6
ENDMDL
MODEL 2
REMARK VINA RESULT:    -6.956      1.733      2.309
REMARK INTER + INTRA:         -10.570
REMARK INTER:                  -9.766
REMARK INTRA:                  -0.805
REMARK UNBOUND:                -1.174
REMARK  Name = 
REMARK  7 active torsions:
REMARK  status: ('A' for Active; 'I' for Inactive)
REMARK    1  A    between atoms: C_1  and  C_2
REMARK    2  A    between atoms: C_4  and  N_5
REMARK    3  A    between atoms: C_6  and  C_8
REMARK    4  A    between atoms: C_8  and  C_10
REMARK    5  A    between atoms: N_12  and  C_13
REMARK    6  A    between atoms: C_13  and  C_14
REMARK    7  A    between atoms: C_16  and  C_17
REMARK                            x       y       z     vdW  Elec       q    Type
REMARK                         _______ _______ _______ _____ _____    ______ ____
ROOT
ATOM      1  C   UNL     1      17.609  39.057  51.625  0.00  0.00    +0.000 A 
ATOM      2  C   UNL     1      16.512  39.146  50.781  0.00  0.00    +0.000 A 
ATOM      3  N   UNL     1      16.575  38.131  49.865  0.00  0.00    +0.000 N 
ATOM      4  C   UNL     1      17.714  37.381  50.070  0.00  0.00    +0.000 A 
ATOM      5  C   UNL     1      18.202  36.259  49.378  0.00  0.00    +0.000 A 
ATOM      6  C   UNL     1      19.407  35.695  49.798  0.00  0.00    +0.000 A 
ATOM      7  C   UNL     1      20.106  36.232  50.870  0.00  0.00    +0.000 A 
ATOM      8  C   UNL     1      19.611  37.348  51.556  0.00  0.00    +0.000 A 
ATOM      9  C   UNL     1      18.387  37.939  51.166  0.00  0.00    +0.000 A 
ENDROOT
BRANCH   1  10
ATOM     10  C   UNL     1      17.844  40.006  52.710  0.00  0.00    +0.000 C 
ATOM     11  O   UNL     1      18.958  40.143  53.224  0.00  0.00    +0.000 OA
BRANCH  10  13
ATOM     12  N   UNL     1      16.603  42.067  52.692  0.00  0.00    +0.000 N 
ATOM     13  C   UNL     1      16.729  40.848  53.336  0.00  0.00    +0.000 C 
ATOM     14  O   UNL     1      16.075  40.403  54.264  0.00  0.00    +0.000 OA
ATOM     15  H   UNL     1      17.162  42.186  51.853  0.00  0.00    +0.000 HD
BRANCH  12  19
ATOM     16  C   UNL     1      14.657  46.646  53.380  0.00  0.00    +0.000 C 
ATOM     17  C   UNL     1      14.801  45.166  53.383  0.00  0.00    +0.000 A 
ATOM     18  C   UNL     1      15.931  44.435  52.884  0.00  0.00    +0.000 A 
ATOM     19  C   UNL     1      15.734  43.079  53.033  0.00  0.00    +0.000 A 
ATOM     20  S   UNL     1      14.212  42.824  53.747  0.00  0.00    +0.000 S 
ATOM     21  N   UNL     1      13.804  44.428  53.873  0.00  0.00    +0.000 NA
ENDBRANCH  12  19
ENDBRANCH  10  13
ENDBRANCH   1  10
BRANCH   3  22
ATOM     22  C   UNL     1      15.596  37.921  48.801  0.00  0.00    +0.000 C 
BRANCH  22  23
ATOM     23  C   UNL     1      15.322  39.167  48.055  0.00  0.00    +0.000 A 
ATOM     24  C   UNL     1      14.383  40.167  48.128  0.00  0.00    +0.000 A 
ATOM     25  C   UNL     1      14.716  41.068  47.078  0.00  0.00    +0.000 A 
ATOM     26  N   UNL     1      15.800  40.620  46.425  0.00  0.00    +0.000 NA
ATOM     27  O   UNL     1      16.180  39.449  47.041  0.00  0.00    +0.000 OA
BRANCH  25  28
ATOM     28  C   UNL     1      14.042  42.311  46.695  0.00  0.00    +0.000 A 
ATOM     29  C   UNL     1      12.727  42.579  47.110  0.00  0.00    +0.000 A 
ATOM     30  C   UNL     1      12.091  43.769  46.743  0.00  0.00    +0.000 A 
ATOM     31  C   UNL     1      12.760  44.706  45.958  0.00  0.00    +0.000 A 
ATOM     32  C   UNL     1      14.064  44.456  45.538  0.00  0.00    +0.000 A 
ATOM     33  C   UNL     1      14.701  43.268  45.906  0.00  0.00    +0.000 A 
ENDBRANCH  25  28
ENDBRANCH  22  23
ENDBRANCH   3  22
TORSDOF 6
ENDMDL
MODEL 3
REMARK VINA RESULT:    -6.574      2.908      4.211
REMARK INTER + INTRA:         -10.055
REMARK INTER:                  -8.880
REMARK INTRA:                  -1.174
REMARK UNBOUND:                -1.174
REMARK  Name = 
REMARK  7 active torsions:
REMARK  status: ('A' for Active; 'I' for Inactive)
REMARK    1  A    between atoms: C_1  and  C_2
REMARK    2  A    between atoms: C_4  and  N_5
REMARK    3  A    between atoms: C_6  and  C_8
REMARK    4  A    between atoms: C_8  and  C_10
REMARK    5  A    between atoms: N_12  and  C_13
REMARK    6  A    between atoms: C_13  and  C_14
REMARK    7  A    between atoms: C_16  and  C_17
REMARK                            x       y       z     vdW  Elec       q    Type
REMARK                         _______ _______ _______ _____ _____    ______ ____
ROOT
ATOM      1  C   UNL     1      15.768  41.226  52.147  0.00  0.00    +0.000 A 
ATOM      2  C   UNL     1      14.810  41.077  51.156  0.00  0.00    +0.000 A 
ATOM      3  N   UNL     1      15.099  39.957  50.425  0.00  0.00    +0.000 N 
ATOM      4  C   UNL     1      16.253  39.369  50.900  0.00  0.00    +0.000 A 
ATOM      5  C   UNL     1      16.936  38.221  50.464  0.00  0.00    +0.000 A 
ATOM      6  C   UNL     1      18.106  37.854  51.129  0.00  0.00    +0.000 A 
ATOM      7  C   UNL     1      18.583  38.609  52.193  0.00  0.00    +0.000 A 
ATOM      8  C   UNL     1      17.896  39.750  52.622  0.00  0.00    +0.000 A 
ATOM      9  C   UNL     1      16.699  40.145  51.979  0.00  0.00    +0.000 A 
ENDROOT
BRANCH   1  10
ATOM     10  C   UNL     1      15.751  42.338  53.095  0.00  0.00    +0.000 C 
ATOM     11  O   UNL     1      16.295  43.416  52.841  0.00  0.00    +0.000 OA
BRANCH  10  13
ATOM     12  N   UNL     1      15.752  41.267  55.249  0.00  0.00    +0.000 N 
ATOM     13  C   UNL     1      15.123  42.236  54.487  0.00  0.00    +0.000 C 
ATOM     14  O   UNL     1      14.205  42.976  54.799  0.00  0.00    +0.000 OA
ATOM     15  H   UNL     1      16.587  40.855  54.843  0.00  0.00    +0.000 HD
BRANCH  12  19
ATOM     16  C   UNL     1      15.881  40.611  60.227  0.00  0.00    +0.000 C 
ATOM     17  C   UNL     1      15.426  40.545  58.813  0.00  0.00    +0.000 A 
ATOM     18  C   UNL     1      16.102  41.129  57.689  0.00  0.00    +0.000 A 
ATOM     19  C   UNL     1      15.405  40.886  56.526  0.00  0.00    +0.000 A 
ATOM     20  S   UNL     1      14.009  39.991  56.903  0.00  0.00    +0.000 S 
ATOM     21  N   UNL     1      14.289  39.906  58.536  0.00  0.00    +0.000 NA
ENDBRANCH  12  19
ENDBRANCH  10  13
ENDBRANCH   1  10
BRANCH   3  22
ATOM     22  C   UNL     1      14.317  39.495  49.281  0.00  0.00    +0.000 C 
BRANCH  22  23
ATOM     23  C   UNL     1      14.756  40.135  48.023  0.00  0.00    +0.000 A 
ATOM     24  C   UNL     1      14.459  41.301  47.361  0.00  0.00    +0.000 A 
ATOM     25  C   UNL     1      15.257  41.275  46.183  0.00  0.00    +0.000 A 
ATOM     26  N   UNL     1      15.991  40.150  46.160  0.00  0.00    +0.000 NA
ATOM     27  O   UNL     1      15.687  39.453  47.308  0.00  0.00    +0.000 OA
BRANCH  25  28
ATOM     28  C   UNL     1      15.334  42.270  45.110  0.00  0.00    +0.000 A 
ATOM     29  C   UNL     1      16.144  42.058  43.983  0.00  0.00    +0.000 A 
ATOM     30  C   UNL     1      16.209  43.010  42.961  0.00  0.00    +0.000 A 
ATOM     31  C   UNL     1      15.466  44.186  43.054  0.00  0.00    +0.000 A 
ATOM     32  C   UNL     1      14.657  44.412  44.164  0.00  0.00    +0.000 A 
ATOM     33  C   UNL     1      14.590  43.459  45.185  0.00  0.00    +0.000 A 
ENDBRANCH  25  28
ENDBRANCH  22  23
ENDBRANCH   3  22
TORSDOF 6
ENDMDL
