MODEL 1
REMARK VINA RESULT:    -6.663      0.000      0.000
REMARK INTER + INTRA:          -9.273
REMARK INTER:                  -8.235
REMARK INTRA:                  -1.038
REMARK UNBOUND:                -1.051
REMARK  Name = 
REMARK  5 active torsions:
REMARK  status: ('A' for Active; 'I' for Inactive)
REMARK    1  A    between atoms: C_1  and  S_2
REMARK    2  A    between atoms: S_2  and  C_5
REMARK    3  A    between atoms: C_9  and  C_10
REMARK    4  A    between atoms: C_12  and  C_13
REMARK    5  A    between atoms: C_20  and  C_21
REMARK                            x       y       z     vdW  Elec       q    Type
REMARK                         _______ _______ _______ _____ _____    ______ ____
ROOT
ATOM      1  C   UNL     1      13.828  46.095  45.373  0.00  0.00    +0.000 A 
ATOM      2  N   UNL     1      14.433  45.439  44.402  0.00  0.00    +0.000 NA
ATOM      3  C   UNL     1      14.282  44.098  44.677  0.00  0.00    +0.000 A 
ATOM      4  C   UNL     1      13.593  43.916  45.866  0.00  0.00    +0.000 A 
ATOM      5  N   UNL     1      13.308  45.201  46.278  0.00  0.00    +0.000 N 
ATOM      6  H   UNL     1      12.854  45.445  47.144  0.00  0.00    +0.000 HD
ENDROOT
BRANCH   3   7
ATOM      7  C   UNL     1      14.830  43.074  43.802  0.00  0.00    +0.000 A 
ATOM      8  C   UNL     1      16.222  42.897  43.746  0.00  0.00    +0.000 A 
ATOM      9  C   UNL     1      16.782  41.925  42.914  0.00  0.00    +0.000 A 
ATOM     10  C   UNL     1      15.952  41.138  42.128  0.00  0.00    +0.000 A 
ATOM     11  F   UNL     1      16.487  40.205  41.329  0.00  0.00    +0.000 F 
ATOM     12  C   UNL     1      14.573  41.305  42.156  0.00  0.00    +0.000 A 
ATOM     13  C   UNL     1      14.011  42.276  42.988  0.00  0.00    +0.000 A 
ENDBRANCH   3   7
BRANCH   1  18
ATOM     14  C   UNL     1      14.756  49.729  45.130  0.00  0.00    +0.000 A 
ATOM     15  C   UNL     1      13.642  50.364  45.680  0.00  0.00    +0.000 A 
ATOM     16  C   UNL     1      12.571  49.594  46.129  0.00  0.00    +0.000 A 
ATOM     17  C   UNL     1      12.618  48.199  46.033  0.00  0.00    +0.000 A 
ATOM     18  C   UNL     1      13.741  47.551  45.496  0.00  0.00    +0.000 A 
ATOM     19  C   UNL     1      14.814  48.334  45.046  0.00  0.00    +0.000 A 
BRANCH  14  21
ATOM     20  C   UNL     1      16.215  52.040  45.693  0.00  0.00    +0.000 C 
ATOM     21  S   UNL     1      16.134  50.685  44.550  0.00  0.00    +0.000 S 
ATOM     22  O   UNL     1      15.775  51.203  43.244  0.00  0.00    +0.000 OA
ATOM     23  O   UNL     1      17.331  49.885  44.731  0.00  0.00    +0.000 OA
ENDBRANCH  14  21
ENDBRANCH   1  18
BRANCH   4  24
ATOM     24  C   UNL     1      13.240  42.749  46.665  0.00  0.00    +0.000 A 
ATOM     25  C   UNL     1      11.925  42.544  47.084  0.00  0.00    +0.000 A 
ATOM     26  C   UNL     1      11.643  41.420  47.843  0.00  0.00    +0.000 A 
ATOM     27  N   UNL     1      12.571  40.511  48.210  0.00  0.00    +0.000 NA
ATOM     28  C   UNL     1      13.835  40.730  47.794  0.00  0.00    +0.000 A 
ATOM     29  C   UNL     1      14.216  41.821  47.030  0.00  0.00    +0.000 A 
ENDBRANCH   4  24
TORSDOF 4
ENDMDL
MODEL 2
REMARK VINA RESULT:    -6.648      1.912      4.080
REMARK INTER + INTRA:          -9.254
REMARK INTER:                  -8.206
REMARK INTRA:                  -1.048
REMARK UNBOUND:                -1.051
REMARK  Name = 
REMARK  5 active torsions:
REMARK  status: ('A' for Active; 'I' for Inactive)
REMARK    1  A    between atoms: C_1  and  S_2
REMARK    2  A    between atoms: S_2  and  C_5
REMARK    3  A    between atoms: C_9  and  C_10
REMARK    4  A    between atoms: C_12  and  C_13
REMARK    5  A    between atoms: C_20  and  C_21
REMARK                            x       y       z     vdW  Elec       q    Type
REMARK                         _______ _______ _______ _____ _____    ______ ____
ROOT
ATOM      1  C   UNL     1      14.033  46.045  45.369  0.00  0.00    +0.000 A 
ATOM      2  N   UNL     1      13.590  45.183  46.263  0.00  0.00    +0.000 NA
ATOM      3  C   UNL     1      13.913  43.927  45.796  0.00  0.00    +0.000 A 
ATOM      4  C   UNL     1      14.545  44.011  44.565  0.00  0.00    +0.000 A 
ATOM      5  N   UNL     1      14.617  45.367  44.326  0.00  0.00    +0.000 N 
ATOM      6  H   UNL     1      14.976  45.789  43.484  0.00  0.00    +0.000 HD
ENDROOT
BRANCH   3   7
ATOM      7  C   UNL     1      13.573  42.726  46.541  0.00  0.00    +0.000 A 
ATOM      8  C   UNL     1      12.227  42.471  46.848  0.00  0.00    +0.000 A 
ATOM      9  C   UNL     1      11.866  41.328  47.565  0.00  0.00    +0.000 A 
ATOM     10  C   UNL     1      12.851  40.446  47.986  0.00  0.00    +0.000 A 
ATOM     11  F   UNL     1      12.507  39.349  48.674  0.00  0.00    +0.000 F 
ATOM     12  C   UNL     1      14.191  40.685  47.707  0.00  0.00    +0.000 A 
ATOM     13  C   UNL     1      14.554  41.827  46.989  0.00  0.00    +0.000 A 
ENDBRANCH   3   7
BRANCH   1  18
ATOM     14  C   UNL     1      14.874  49.695  45.068  0.00  0.00    +0.000 A 
ATOM     15  C   UNL     1      13.721  50.314  45.553  0.00  0.00    +0.000 A 
ATOM     16  C   UNL     1      12.653  49.526  45.977  0.00  0.00    +0.000 A 
ATOM     17  C   UNL     1      12.741  48.131  45.921  0.00  0.00    +0.000 A 
ATOM     18  C   UNL     1      13.903  47.501  45.448  0.00  0.00    +0.000 A 
ATOM     19  C   UNL     1      14.973  48.301  45.023  0.00  0.00    +0.000 A 
BRANCH  14  21
ATOM     20  C   UNL     1      16.290  52.023  45.674  0.00  0.00    +0.000 C 
ATOM     21  S   UNL     1      16.250  50.674  44.521  0.00  0.00    +0.000 S 
ATOM     22  O   UNL     1      15.910  51.196  43.211  0.00  0.00    +0.000 OA
ATOM     23  O   UNL     1      17.454  49.889  44.721  0.00  0.00    +0.000 OA
ENDBRANCH  14  21
ENDBRANCH   1  18
BRANCH   4  24
ATOM     24  C   UNL     1      15.009  43.027  43.596  0.00  0.00    +0.000 A 
ATOM     25  C   UNL     1      16.230  42.374  43.772  0.00  0.00    +0.000 A 
ATOM     26  C   UNL     1      16.627  41.448  42.821  0.00  0.00    +0.000 A 
ATOM     27  N   UNL     1      15.903  41.144  41.724  0.00  0.00    +0.000 NA
ATOM     28  C   UNL     1      14.726  41.787  41.573  0.00  0.00    +0.000 A 
ATOM     29  C   UNL     1      14.242  42.726  42.469  0.00  0.00    +0.000 A 
ENDBRANCH   4  24
TORSDOF 4
ENDMDL
MODEL 3
REMARK VINA RESULT:    -6.175      5.264      8.495
REMARK INTER + INTRA:          -8.671
REMARK INTER:                  -7.619
REMARK INTRA:                  -1.051
REMARK UNBOUND:                -1.051
REMARK  Name = 
REMARK  5 active torsions:
REMARK  status: ('A' for Active; 'I' for Inactive)
REMARK    1  A    between atoms: C_1  and  S_2
REMARK    2  A    between atoms: S_2  and  C_5
REMARK    3  A    between atoms: C_9  and  C_10
REMARK    4  A    between atoms: C_12  and  C_13
REMARK    5  A    between atoms: C_20  and  C_21
REMARK                            x       y       z     vdW  Elec       q    Type
REMARK                         _______ _______ _______ _____ _____    ______ ____
ROOT
ATOM      1  C   UNL     1      15.012  41.877  45.351  0.00  0.00    +0.000 A 
ATOM      2  N   UNL     1      14.685  42.967  46.017  0.00  0.00    +0.000 NA
ATOM      3  C   UNL     1      14.148  43.844  45.101  0.00  0.00    +0.000 A 
ATOM      4  C   UNL     1      14.171  43.296  43.828  0.00  0.00    +0.000 A 
ATOM      5  N   UNL     1      14.714  42.044  44.021  0.00  0.00    +0.000 N 
ATOM      6  H   UNL     1      14.925  41.385  43.288  0.00  0.00    +0.000 HD
ENDROOT
BRANCH   3   7
ATOM      7  C   UNL     1      13.672  45.161  45.494  0.00  0.00    +0.000 A 
ATOM      8  C   UNL     1      12.493  45.262  46.249  0.00  0.00    +0.000 A 
ATOM      9  C   UNL     1      12.005  46.512  46.641  0.00  0.00    +0.000 A 
ATOM     10  C   UNL     1      12.691  47.660  46.268  0.00  0.00    +0.000 A 
ATOM     11  F   UNL     1      12.225  48.859  46.642  0.00  0.00    +0.000 F 
ATOM     12  C   UNL     1      13.852  47.585  45.508  0.00  0.00    +0.000 A 
ATOM     13  C   UNL     1      14.341  46.336  45.116  0.00  0.00    +0.000 A 
ENDBRANCH   3   7
BRANCH   1  18
ATOM     14  C   UNL     1      15.989  39.254  47.860  0.00  0.00    +0.000 A 
ATOM     15  C   UNL     1      16.761  38.377  47.098  0.00  0.00    +0.000 A 
ATOM     16  C   UNL     1      16.959  38.644  45.745  0.00  0.00    +0.000 A 
ATOM     17  C   UNL     1      16.392  39.782  45.161  0.00  0.00    +0.000 A 
ATOM     18  C   UNL     1      15.626  40.677  45.924  0.00  0.00    +0.000 A 
ATOM     19  C   UNL     1      15.432  40.401  47.286  0.00  0.00    +0.000 A 
BRANCH  14  21
ATOM     20  C   UNL     1      14.743  40.320  50.118  0.00  0.00    +0.000 C 
ATOM     21  S   UNL     1      15.720  38.939  49.586  0.00  0.00    +0.000 S 
ATOM     22  O   UNL     1      17.013  39.008  50.239  0.00  0.00    +0.000 OA
ATOM     23  O   UNL     1      14.895  37.749  49.692  0.00  0.00    +0.000 OA
ENDBRANCH  14  21
ENDBRANCH   1  18
BRANCH   4  24
ATOM     24  C   UNL     1      13.827  43.798  42.503  0.00  0.00    +0.000 A 
ATOM     25  C   UNL     1      12.563  44.334  42.250  0.00  0.00    +0.000 A 
ATOM     26  C   UNL     1      12.286  44.794  40.973  0.00  0.00    +0.000 A 
ATOM     27  N   UNL     1      13.167  44.748  39.953  0.00  0.00    +0.000 NA
ATOM     28  C   UNL     1      14.382  44.226  40.220  0.00  0.00    +0.000 A 
ATOM     29  C   UNL     1      14.755  43.742  41.463  0.00  0.00    +0.000 A 
ENDBRANCH   4  24
TORSDOF 4
ENDMDL
