MODEL 1
REMARK VINA RESULT:    -6.597      0.000      0.000
REMARK INTER + INTRA:          -9.333
REMARK INTER:                  -8.246
REMARK INTRA:                  -1.087
REMARK UNBOUND:                -0.808
REMARK  Name = 
REMARK  5 active torsions:
REMARK  status: ('A' for Active; 'I' for Inactive)
REMARK    1  A    between atoms: C_2  and  C_3
REMARK    2  A    between atoms: C_3  and  C_4
REMARK    3  A    between atoms: C_7  and  C_8
REMARK    4  A    between atoms: N_16  and  C_17
REMARK    5  A    between atoms: C_17  and  C_18
REMARK                            x       y       z     vdW  Elec       q    Type
REMARK                         _______ _______ _______ _____ _____    ______ ____
ROOT
ATOM      1  C   UNL     1      22.460  34.629  49.265  0.00  0.00    +0.000 C 
ENDROOT
BRANCH   1   2
ATOM      2  C   UNL     1      21.338  35.405  49.907  0.00  0.00    +0.000 A 
ATOM      3  C   UNL     1      21.547  36.142  51.080  0.00  0.00    +0.000 A 
ATOM      4  C   UNL     1      20.509  36.895  51.637  0.00  0.00    +0.000 A 
ATOM      5  C   UNL     1      19.235  36.927  51.042  0.00  0.00    +0.000 A 
ATOM      6  C   UNL     1      19.040  36.186  49.867  0.00  0.00    +0.000 A 
ATOM      7  C   UNL     1      20.076  35.437  49.305  0.00  0.00    +0.000 A 
BRANCH   5   8
ATOM      8  C   UNL     1      18.139  37.717  51.632  0.00  0.00    +0.000 A 
ATOM      9  C   UNL     1      16.825  37.217  51.676  0.00  0.00    +0.000 A 
ATOM     10  C   UNL     1      15.783  37.968  52.233  0.00  0.00    +0.000 A 
ATOM     11  C   UNL     1      16.040  39.234  52.753  0.00  0.00    +0.000 A 
ATOM     12  C   UNL     1      17.335  39.750  52.721  0.00  0.00    +0.000 A 
ATOM     13  C   UNL     1      18.375  38.996  52.165  0.00  0.00    +0.000 A 
ENDBRANCH   5   8
ENDBRANCH   1   2
BRANCH   1  15
ATOM     14  O   UNL     1      24.654  34.739  50.270  0.00  0.00    +0.000 OA
ATOM     15  C   UNL     1      23.526  34.249  50.279  0.00  0.00    +0.000 C 
ATOM     16  N   UNL     1      23.096  33.344  51.228  0.00  0.00    +0.000 N 
ATOM     17  H   UNL     1      22.127  33.060  51.236  0.00  0.00    +0.000 HD
BRANCH  16  18
ATOM     18  C   UNL     1      23.919  32.977  52.358  0.00  0.00    +0.000 C 
BRANCH  18  19
ATOM     19  C   UNL     1      23.313  33.493  53.640  0.00  0.00    +0.000 A 
ATOM     20  C   UNL     1      21.968  33.902  53.693  0.00  0.00    +0.000 A 
ATOM     21  C   UNL     1      21.416  34.379  54.887  0.00  0.00    +0.000 A 
ATOM     22  C   UNL     1      22.202  34.450  56.038  0.00  0.00    +0.000 A 
ATOM     23  C   UNL     1      23.532  34.042  55.988  0.00  0.00    +0.000 A 
ATOM     24  F   UNL     1      24.281  34.106  57.099  0.00  0.00    +0.000 F 
ATOM     25  C   UNL     1      24.091  33.564  54.808  0.00  0.00    +0.000 A 
ENDBRANCH  18  19
ENDBRANCH  16  18
ENDBRANCH   1  15
TORSDOF 5
ENDMDL
MODEL 2
REMARK VINA RESULT:    -6.551      1.307      2.087
REMARK INTER + INTRA:          -9.274
REMARK INTER:                  -8.116
REMARK INTRA:                  -1.158
REMARK UNBOUND:                -0.808
REMARK  Name = 
REMARK  5 active torsions:
REMARK  status: ('A' for Active; 'I' for Inactive)
REMARK    1  A    between atoms: C_2  and  C_3
REMARK    2  A    between atoms: C_3  and  C_4
REMARK    3  A    between atoms: C_7  and  C_8
REMARK    4  A    between atoms: N_16  and  C_17
REMARK    5  A    between atoms: C_17  and  C_18
REMARK                            x       y       z     vdW  Elec       q    Type
REMARK                         _______ _______ _______ _____ _____    ______ ____
ROOT
ATOM      1  C   UNL     1      21.478  34.626  48.890  0.00  0.00    +0.000 C 
ENDROOT
BRANCH   1   2
ATOM      2  C   UNL     1      20.651  35.559  49.739  0.00  0.00    +0.000 A 
ATOM      3  C   UNL     1      19.315  35.837  49.418  0.00  0.00    +0.000 A 
ATOM      4  C   UNL     1      18.548  36.666  50.242  0.00  0.00    +0.000 A 
ATOM      5  C   UNL     1      19.093  37.243  51.403  0.00  0.00    +0.000 A 
ATOM      6  C   UNL     1      20.431  36.955  51.713  0.00  0.00    +0.000 A 
ATOM      7  C   UNL     1      21.199  36.123  50.895  0.00  0.00    +0.000 A 
BRANCH   5   8
ATOM      8  C   UNL     1      18.285  38.121  52.268  0.00  0.00    +0.000 A 
ATOM      9  C   UNL     1      18.237  39.510  52.052  0.00  0.00    +0.000 A 
ATOM     10  C   UNL     1      17.473  40.345  52.876  0.00  0.00    +0.000 A 
ATOM     11  C   UNL     1      16.746  39.801  53.932  0.00  0.00    +0.000 A 
ATOM     12  C   UNL     1      16.779  38.427  54.166  0.00  0.00    +0.000 A 
ATOM     13  C   UNL     1      17.542  37.595  53.339  0.00  0.00    +0.000 A 
ENDBRANCH   5   8
ENDBRANCH   1   2
BRANCH   1  15
ATOM     14  O   UNL     1      23.805  34.475  49.519  0.00  0.00    +0.000 OA
ATOM     15  C   UNL     1      22.656  34.063  49.667  0.00  0.00    +0.000 C 
ATOM     16  N   UNL     1      22.307  33.087  50.578  0.00  0.00    +0.000 N 
ATOM     17  H   UNL     1      21.332  32.869  50.720  0.00  0.00    +0.000 HD
BRANCH  16  18
ATOM     18  C   UNL     1      23.266  32.539  51.511  0.00  0.00    +0.000 C 
BRANCH  18  19
ATOM     19  C   UNL     1      23.111  33.185  52.865  0.00  0.00    +0.000 A 
ATOM     20  C   UNL     1      24.185  33.233  53.773  0.00  0.00    +0.000 A 
ATOM     21  C   UNL     1      24.031  33.837  55.026  0.00  0.00    +0.000 A 
ATOM     22  C   UNL     1      22.804  34.397  55.383  0.00  0.00    +0.000 A 
ATOM     23  C   UNL     1      21.741  34.354  54.485  0.00  0.00    +0.000 A 
ATOM     24  F   UNL     1      20.567  34.900  54.831  0.00  0.00    +0.000 F 
ATOM     25  C   UNL     1      21.884  33.760  53.236  0.00  0.00    +0.000 A 
ENDBRANCH  18  19
ENDBRANCH  16  18
ENDBRANCH   1  15
TORSDOF 5
ENDMDL
MODEL 3
REMARK VINA RESULT:    -6.425      7.351      9.608
REMARK INTER + INTRA:          -9.111
REMARK INTER:                  -8.303
REMARK INTRA:                  -0.808
REMARK UNBOUND:                -0.808
REMARK  Name = 
REMARK  5 active torsions:
REMARK  status: ('A' for Active; 'I' for Inactive)
REMARK    1  A    between atoms: C_2  and  C_3
REMARK    2  A    between atoms: C_3  and  C_4
REMARK    3  A    between atoms: C_7  and  C_8
REMARK    4  A    between atoms: N_16  and  C_17
REMARK    5  A    between atoms: C_17  and  C_18
REMARK                            x       y       z     vdW  Elec       q    Type
REMARK                         _______ _______ _______ _____ _____    ______ ____
ROOT
ATOM      1  C   UNL     1      16.315  39.331  45.657  0.00  0.00    +0.000 C 
ENDROOT
BRANCH   1   2
ATOM      2  C   UNL     1      15.692  40.702  45.731  0.00  0.00    +0.000 A 
ATOM      3  C   UNL     1      15.902  41.648  44.718  0.00  0.00    +0.000 A 
ATOM      4  C   UNL     1      15.279  42.898  44.777  0.00  0.00    +0.000 A 
ATOM      5  C   UNL     1      14.435  43.239  45.850  0.00  0.00    +0.000 A 
ATOM      6  C   UNL     1      14.233  42.282  46.856  0.00  0.00    +0.000 A 
ATOM      7  C   UNL     1      14.850  41.031  46.797  0.00  0.00    +0.000 A 
BRANCH   5   8
ATOM      8  C   UNL     1      13.782  44.559  45.915  0.00  0.00    +0.000 A 
ATOM      9  C   UNL     1      14.371  45.691  45.323  0.00  0.00    +0.000 A 
ATOM     10  C   UNL     1      13.753  46.945  45.387  0.00  0.00    +0.000 A 
ATOM     11  C   UNL     1      12.536  47.087  46.049  0.00  0.00    +0.000 A 
ATOM     12  C   UNL     1      11.934  45.979  46.643  0.00  0.00    +0.000 A 
ATOM     13  C   UNL     1      12.553  44.726  46.575  0.00  0.00    +0.000 A 
ENDBRANCH   5   8
ENDBRANCH   1   2
BRANCH   1  15
ATOM     14  O   UNL     1      15.365  37.639  47.096  0.00  0.00    +0.000 OA
ATOM     15  C   UNL     1      16.153  38.575  46.965  0.00  0.00    +0.000 C 
ATOM     16  N   UNL     1      16.998  39.006  47.966  0.00  0.00    +0.000 N 
ATOM     17  H   UNL     1      17.690  39.711  47.759  0.00  0.00    +0.000 HD
BRANCH  16  18
ATOM     18  C   UNL     1      17.094  38.314  49.232  0.00  0.00    +0.000 C 
BRANCH  18  19
ATOM     19  C   UNL     1      16.900  39.279  50.376  0.00  0.00    +0.000 A 
ATOM     20  C   UNL     1      15.730  40.052  50.481  0.00  0.00    +0.000 A 
ATOM     21  C   UNL     1      15.560  40.943  51.546  0.00  0.00    +0.000 A 
ATOM     22  C   UNL     1      16.556  41.068  52.515  0.00  0.00    +0.000 A 
ATOM     23  C   UNL     1      17.713  40.301  52.415  0.00  0.00    +0.000 A 
ATOM     24  F   UNL     1      18.663  40.420  53.353  0.00  0.00    +0.000 F 
ATOM     25  C   UNL     1      17.892  39.410  51.362  0.00  0.00    +0.000 A 
ENDBRANCH  18  19
ENDBRANCH  16  18
ENDBRANCH   1  15
TORSDOF 5
ENDMDL
