MODEL 1
REMARK VINA RESULT:    -6.531      0.000      0.000
REMARK INTER + INTRA:          -9.379
REMARK INTER:                  -7.541
REMARK INTRA:                  -1.838
REMARK UNBOUND:                -0.748
REMARK  Name = 
REMARK  6 active torsions:
REMARK  status: ('A' for Active; 'I' for Inactive)
REMARK    1  A    between atoms: O_1  and  C_2
REMARK    2  A    between atoms: N_5  and  C_6
REMARK    3  A    between atoms: C_6  and  C_7
REMARK    4  A    between atoms: C_11  and  N_12
REMARK    5  A    between atoms: N_12  and  C_13
REMARK    6  A    between atoms: C_13  and  C_14
REMARK                            x       y       z     vdW  Elec       q    Type
REMARK                         _______ _______ _______ _____ _____    ______ ____
ROOT
ATOM      1  C   UNL     1      25.328  33.187  49.810  0.00  0.00    +0.000 C 
ATOM      2  O   UNL     1      26.725  33.551  49.753  0.00  0.00    +0.000 OA
ATOM      3  C   UNL     1      27.000  34.170  48.491  0.00  0.00    +0.000 C 
ATOM      4  C   UNL     1      25.761  34.064  47.626  0.00  0.00    +0.000 C 
ATOM      5  C   UNL     1      24.626  33.848  48.611  0.00  0.00    +0.000 C 
ENDROOT
BRANCH   5   6
ATOM      6  N   UNL     1      23.867  35.073  48.932  0.00  0.00    +0.000 NA
ATOM      7  H   UNL     1      24.455  35.887  48.750  0.00  0.00    +0.000 HD
BRANCH   6   8
ATOM      8  C   UNL     1      23.340  35.172  50.289  0.00  0.00    +0.000 C 
BRANCH   8   9
ATOM      9  C   UNL     1      21.876  35.547  50.246  0.00  0.00    +0.000 A 
ATOM     10  C   UNL     1      21.298  36.263  51.304  0.00  0.00    +0.000 A 
ATOM     11  C   UNL     1      19.942  36.597  51.279  0.00  0.00    +0.000 A 
ATOM     12  C   UNL     1      19.144  36.214  50.198  0.00  0.00    +0.000 A 
ATOM     13 CL   UNL     1      17.475  36.660  50.232  0.00  0.00    +0.000 Cl
ATOM     14  C   UNL     1      19.707  35.493  49.141  0.00  0.00    +0.000 A 
ATOM     15 CL   UNL     1      18.783  34.979  47.773  0.00  0.00    +0.000 Cl
ATOM     16  C   UNL     1      21.066  35.159  49.167  0.00  0.00    +0.000 A 
ENDBRANCH   8   9
ENDBRANCH   6   8
ENDBRANCH   5   6
BRANCH   1  17
ATOM     17  C   UNL     1      25.196  31.649  49.836  0.00  0.00    +0.000 C 
BRANCH  17  21
ATOM     18  C   UNL     1      21.640  32.494  52.121  0.00  0.00    +0.000 A 
ATOM     19  C   UNL     1      22.603  31.804  51.398  0.00  0.00    +0.000 A 
ATOM     20  C   UNL     1      23.910  31.834  51.854  0.00  0.00    +0.000 A 
ATOM     21  N   UNL     1      24.938  31.154  51.195  0.00  0.00    +0.000 N 
ATOM     22  N   UNL     1      24.273  32.484  52.974  0.00  0.00    +0.000 NA
ATOM     23  C   UNL     1      23.338  33.155  53.671  0.00  0.00    +0.000 A 
ATOM     24  C   UNL     1      23.715  33.837  54.821  0.00  0.00    +0.000 A 
ATOM     25  C   UNL     1      22.794  34.555  55.591  0.00  0.00    +0.000 A 
ATOM     26  C   UNL     1      21.460  34.598  55.208  0.00  0.00    +0.000 A 
ATOM     27  C   UNL     1      21.055  33.923  54.059  0.00  0.00    +0.000 A 
ATOM     28  C   UNL     1      21.986  33.198  53.283  0.00  0.00    +0.000 A 
ATOM     29  H   UNL     1      25.758  31.352  51.776  0.00  0.00    +0.000 HD
BRANCH  18  30
ATOM     30  O   UNL     1      20.334  32.489  51.702  0.00  0.00    +0.000 OA
ATOM     31  H   UNL     1      19.772  32.851  52.406  0.00  0.00    +0.000 HD
ENDBRANCH  18  30
ENDBRANCH  17  21
ENDBRANCH   1  17
TORSDOF 6
ENDMDL
MODEL 2
REMARK VINA RESULT:    -6.333     14.782     16.829
REMARK INTER + INTRA:          -9.116
REMARK INTER:                  -6.349
REMARK INTRA:                  -2.767
REMARK UNBOUND:                -0.748
REMARK  Name = 
REMARK  6 active torsions:
REMARK  status: ('A' for Active; 'I' for Inactive)
REMARK    1  A    between atoms: O_1  and  C_2
REMARK    2  A    between atoms: N_5  and  C_6
REMARK    3  A    between atoms: C_6  and  C_7
REMARK    4  A    between atoms: C_11  and  N_12
REMARK    5  A    between atoms: N_12  and  C_13
REMARK    6  A    between atoms: C_13  and  C_14
REMARK                            x       y       z     vdW  Elec       q    Type
REMARK                         _______ _______ _______ _____ _____    ______ ____
ROOT
ATOM      1  C   UNL     1      14.414  43.802  41.766  0.00  0.00    +0.000 C 
ATOM      2  O   UNL     1      14.907  44.385  40.540  0.00  0.00    +0.000 OA
ATOM      3  C   UNL     1      14.437  43.614  39.428  0.00  0.00    +0.000 C 
ATOM      4  C   UNL     1      13.736  42.383  39.963  0.00  0.00    +0.000 C 
ATOM      5  C   UNL     1      13.361  42.746  41.388  0.00  0.00    +0.000 C 
ENDROOT
BRANCH   5   6
ATOM      6  N   UNL     1      11.959  43.182  41.548  0.00  0.00    +0.000 NA
ATOM      7  H   UNL     1      11.869  44.144  41.218  0.00  0.00    +0.000 HD
BRANCH   6   8
ATOM      8  C   UNL     1      11.403  43.098  42.894  0.00  0.00    +0.000 C 
BRANCH   8   9
ATOM      9  C   UNL     1      10.750  44.410  43.265  0.00  0.00    +0.000 A 
ATOM     10  C   UNL     1       9.680  44.438  44.171  0.00  0.00    +0.000 A 
ATOM     11  C   UNL     1       9.062  45.645  44.505  0.00  0.00    +0.000 A 
ATOM     12  C   UNL     1       9.502  46.840  43.932  0.00  0.00    +0.000 A 
ATOM     13 CL   UNL     1       8.692  48.297  44.388  0.00  0.00    +0.000 Cl
ATOM     14  C   UNL     1      10.563  46.825  43.020  0.00  0.00    +0.000 A 
ATOM     15 CL   UNL     1      11.158  48.263  42.267  0.00  0.00    +0.000 Cl
ATOM     16  C   UNL     1      11.181  45.615  42.688  0.00  0.00    +0.000 A 
ENDBRANCH   8   9
ENDBRANCH   6   8
ENDBRANCH   5   6
BRANCH   1  17
ATOM     17  C   UNL     1      15.597  43.234  42.580  0.00  0.00    +0.000 C 
BRANCH  17  21
ATOM     18  C   UNL     1      13.195  44.013  46.073  0.00  0.00    +0.000 A 
ATOM     19  C   UNL     1      14.231  43.567  45.265  0.00  0.00    +0.000 A 
ATOM     20  C   UNL     1      14.914  44.499  44.501  0.00  0.00    +0.000 A 
ATOM     21  N   UNL     1      15.980  44.137  43.674  0.00  0.00    +0.000 N 
ATOM     22  N   UNL     1      14.625  45.812  44.531  0.00  0.00    +0.000 NA
ATOM     23  C   UNL     1      13.617  46.241  45.312  0.00  0.00    +0.000 A 
ATOM     24  C   UNL     1      13.311  47.596  45.333  0.00  0.00    +0.000 A 
ATOM     25  C   UNL     1      12.275  48.109  46.121  0.00  0.00    +0.000 A 
ATOM     26  C   UNL     1      11.521  47.251  46.912  0.00  0.00    +0.000 A 
ATOM     27  C   UNL     1      11.808  45.888  46.910  0.00  0.00    +0.000 A 
ATOM     28  C   UNL     1      12.854  45.373  46.114  0.00  0.00    +0.000 A 
ATOM     29  H   UNL     1      16.276  45.032  43.271  0.00  0.00    +0.000 HD
BRANCH  18  30
ATOM     30  O   UNL     1      12.494  43.121  46.844  0.00  0.00    +0.000 OA
ATOM     31  H   UNL     1      11.716  42.816  46.350  0.00  0.00    +0.000 HD
ENDBRANCH  18  30
ENDBRANCH  17  21
ENDBRANCH   1  17
TORSDOF 6
ENDMDL
MODEL 3
REMARK VINA RESULT:    -6.286     12.539     15.687
REMARK INTER + INTRA:          -9.054
REMARK INTER:                  -8.307
REMARK INTRA:                  -0.748
REMARK UNBOUND:                -0.748
REMARK  Name = 
REMARK  6 active torsions:
REMARK  status: ('A' for Active; 'I' for Inactive)
REMARK    1  A    between atoms: O_1  and  C_2
REMARK    2  A    between atoms: N_5  and  C_6
REMARK    3  A    between atoms: C_6  and  C_7
REMARK    4  A    between atoms: C_11  and  N_12
REMARK    5  A    between atoms: N_12  and  C_13
REMARK    6  A    between atoms: C_13  and  C_14
REMARK                            x       y       z     vdW  Elec       q    Type
REMARK                         _______ _______ _______ _____ _____    ______ ____
ROOT
ATOM      1  C   UNL     1      13.485  45.209  43.843  0.00  0.00    +0.000 C 
ATOM      2  O   UNL     1      12.324  44.353  43.926  0.00  0.00    +0.000 OA
ATOM      3  C   UNL     1      12.165  43.903  45.276  0.00  0.00    +0.000 C 
ATOM      4  C   UNL     1      13.366  44.360  46.078  0.00  0.00    +0.000 C 
ATOM      5  C   UNL     1      13.937  45.519  45.281  0.00  0.00    +0.000 C 
ENDROOT
BRANCH   5   6
ATOM      6  N   UNL     1      13.538  46.848  45.785  0.00  0.00    +0.000 NA
ATOM      7  H   UNL     1      12.708  46.748  46.371  0.00  0.00    +0.000 HD
BRANCH   6   8
ATOM      8  C   UNL     1      13.276  47.872  44.779  0.00  0.00    +0.000 C 
BRANCH   8   9
ATOM      9  C   UNL     1      14.023  49.140  45.127  0.00  0.00    +0.000 A 
ATOM     10  C   UNL     1      13.382  50.167  45.834  0.00  0.00    +0.000 A 
ATOM     11  C   UNL     1      14.061  51.348  46.144  0.00  0.00    +0.000 A 
ATOM     12  C   UNL     1      15.389  51.519  45.745  0.00  0.00    +0.000 A 
ATOM     13 CL   UNL     1      16.168  53.004  46.161  0.00  0.00    +0.000 Cl
ATOM     14  C   UNL     1      16.037  50.505  45.032  0.00  0.00    +0.000 A 
ATOM     15 CL   UNL     1      17.676  50.647  44.501  0.00  0.00    +0.000 Cl
ATOM     16  C   UNL     1      15.355  49.322  44.724  0.00  0.00    +0.000 A 
ENDBRANCH   8   9
ENDBRANCH   6   8
ENDBRANCH   5   6
BRANCH   1  17
ATOM     17  C   UNL     1      14.572  44.523  42.986  0.00  0.00    +0.000 C 
BRANCH  17  21
ATOM     18  C   UNL     1      16.624  40.759  42.538  0.00  0.00    +0.000 A 
ATOM     19  C   UNL     1      16.367  42.123  42.534  0.00  0.00    +0.000 A 
ATOM     20  C   UNL     1      15.972  42.718  43.721  0.00  0.00    +0.000 A 
ATOM     21  N   UNL     1      15.709  44.088  43.808  0.00  0.00    +0.000 N 
ATOM     22  N   UNL     1      15.852  42.032  44.871  0.00  0.00    +0.000 NA
ATOM     23  C   UNL     1      16.098  40.709  44.871  0.00  0.00    +0.000 A 
ATOM     24  C   UNL     1      15.962  39.998  46.057  0.00  0.00    +0.000 A 
ATOM     25  C   UNL     1      16.201  38.622  46.126  0.00  0.00    +0.000 A 
ATOM     26  C   UNL     1      16.588  37.931  44.985  0.00  0.00    +0.000 A 
ATOM     27  C   UNL     1      16.733  38.620  43.784  0.00  0.00    +0.000 A 
ATOM     28  C   UNL     1      16.490  40.010  43.715  0.00  0.00    +0.000 A 
ATOM     29  H   UNL     1      15.467  44.215  44.795  0.00  0.00    +0.000 HD
BRANCH  18  30
ATOM     30  O   UNL     1      17.017  40.133  41.383  0.00  0.00    +0.000 OA
ATOM     31  H   UNL     1      17.747  40.633  40.982  0.00  0.00    +0.000 HD
ENDBRANCH  18  30
ENDBRANCH  17  21
ENDBRANCH   1  17
TORSDOF 6
ENDMDL
