MODEL 1
REMARK VINA RESULT:    -6.517      0.000      0.000
REMARK INTER + INTRA:          -8.438
REMARK INTER:                  -8.113
REMARK INTRA:                  -0.325
REMARK UNBOUND:                -0.396
REMARK  Name = 
REMARK  7 active torsions:
REMARK  status: ('A' for Active; 'I' for Inactive)
REMARK    1  A    between atoms: C_1  and  O_2
REMARK    2  A    between atoms: O_2  and  C_3
REMARK    3  A    between atoms: C_4  and  O_5
REMARK    4  A    between atoms: C_9  and  C_10
REMARK    5  A    between atoms: C_10  and  O_11
REMARK    6  A    between atoms: C_16  and  O_17
REMARK    7  A    between atoms: C_26  and  O_27
REMARK                            x       y       z     vdW  Elec       q    Type
REMARK                         _______ _______ _______ _____ _____    ______ ____
ROOT
ATOM      1  C   UNL     1      14.706  41.951  54.158  0.00  0.00    +0.000 C 
ATOM      2  C   UNL     1      13.808  40.738  53.909  0.00  0.00    +0.000 C 
ATOM      3  C   UNL     1      14.500  39.689  53.034  0.00  0.00    +0.000 C 
ATOM      4  C   UNL     1      14.807  40.435  51.661  0.00  0.00    +0.000 C 
ATOM      5  O   UNL     1      15.656  41.568  51.897  0.00  0.00    +0.000 OA
ATOM      6  C   UNL     1      15.100  42.547  52.789  0.00  0.00    +0.000 C 
ATOM      7  N   UNL     1      15.504  39.590  50.689  0.00  0.00    +0.000 N 
ATOM      8  C   UNL     1      15.643  39.638  49.322  0.00  0.00    +0.000 A 
ATOM      9  C   UNL     1      15.040  40.470  48.366  0.00  0.00    +0.000 A 
ATOM     10  C   UNL     1      15.399  40.289  47.027  0.00  0.00    +0.000 A 
ATOM     11  C   UNL     1      16.314  39.309  46.659  0.00  0.00    +0.000 A 
ATOM     12  C   UNL     1      16.924  38.480  47.606  0.00  0.00    +0.000 A 
ATOM     13  C   UNL     1      16.599  38.641  48.970  0.00  0.00    +0.000 A 
ATOM     14  C   UNL     1      17.063  38.024  50.173  0.00  0.00    +0.000 A 
ATOM     15  C   UNL     1      17.964  37.086  50.695  0.00  0.00    +0.000 A 
ATOM     16  C   UNL     1      18.124  36.833  52.098  0.00  0.00    +0.000 A 
ATOM     17  C   UNL     1      17.380  37.477  53.103  0.00  0.00    +0.000 A 
ATOM     18  C   UNL     1      17.212  37.591  54.509  0.00  0.00    +0.000 A 
ATOM     19  C   UNL     1      17.878  36.985  55.597  0.00  0.00    +0.000 A 
ATOM     20  C   UNL     1      17.516  37.326  56.896  0.00  0.00    +0.000 A 
ATOM     21  C   UNL     1      16.502  38.234  57.144  0.00  0.00    +0.000 A 
ATOM     22  C   UNL     1      15.803  38.833  56.088  0.00  0.00    +0.000 A 
ATOM     23  C   UNL     1      16.155  38.523  54.764  0.00  0.00    +0.000 A 
ATOM     24  N   UNL     1      15.679  38.950  53.539  0.00  0.00    +0.000 N 
ATOM     25  C   UNL     1      16.466  38.356  52.611  0.00  0.00    +0.000 A 
ATOM     26  C   UNL     1      16.331  38.639  51.143  0.00  0.00    +0.000 A 
ATOM     27  C   UNL     1      19.180  35.838  52.224  0.00  0.00    +0.000 C 
ATOM     28  O   UNL     1      19.622  35.378  53.253  0.00  0.00    +0.000 OA
ATOM     29  N   UNL     1      19.580  35.531  50.956  0.00  0.00    +0.000 N 
ATOM     30  C   UNL     1      18.922  36.238  49.997  0.00  0.00    +0.000 C 
ATOM     31  O   UNL     1      19.101  36.188  48.796  0.00  0.00    +0.000 OA
ATOM     32  H   UNL     1      20.318  34.877  50.754  0.00  0.00    +0.000 HD
ENDROOT
BRANCH   1  34
ATOM     33  C   UNL     1      12.745  43.297  54.185  0.00  0.00    +0.000 C 
ATOM     34  O   UNL     1      13.930  42.923  54.881  0.00  0.00    +0.000 OA
ENDBRANCH   1  34
BRANCH   2  35
ATOM     35  O   UNL     1      13.257  40.191  55.101  0.00  0.00    +0.000 OA
ATOM     36  H   UNL     1      12.320  40.004  54.908  0.00  0.00    +0.000 HD
ENDBRANCH   2  35
BRANCH  11  37
ATOM     37  O   UNL     1      16.615  39.189  45.331  0.00  0.00    +0.000 OA
ATOM     38  H   UNL     1      16.056  39.819  44.848  0.00  0.00    +0.000 HD
ENDBRANCH  11  37
BRANCH  20  39
ATOM     39  O   UNL     1      18.156  36.779  57.965  0.00  0.00    +0.000 OA
ATOM     40  H   UNL     1      18.793  36.122  57.641  0.00  0.00    +0.000 HD
ENDBRANCH  20  39
BRANCH   6  41
ATOM     41  C   UNL     1      16.154  43.647  52.939  0.00  0.00    +0.000 C 
BRANCH  41  42
ATOM     42  O   UNL     1      15.519  44.908  53.141  0.00  0.00    +0.000 OA
ATOM     43  H   UNL     1      14.577  44.756  52.939  0.00  0.00    +0.000 HD
ENDBRANCH  41  42
ENDBRANCH   6  41
TORSDOF 6
ENDMDL
MODEL 2
REMARK VINA RESULT:    -6.420      8.218     11.365
REMARK INTER + INTRA:          -8.318
REMARK INTER:                  -7.919
REMARK INTRA:                  -0.399
REMARK UNBOUND:                -0.396
REMARK  Name = 
REMARK  7 active torsions:
REMARK  status: ('A' for Active; 'I' for Inactive)
REMARK    1  A    between atoms: C_1  and  O_2
REMARK    2  A    between atoms: O_2  and  C_3
REMARK    3  A    between atoms: C_4  and  O_5
REMARK    4  A    between atoms: C_9  and  C_10
REMARK    5  A    between atoms: C_10  and  O_11
REMARK    6  A    between atoms: C_16  and  O_17
REMARK    7  A    between atoms: C_26  and  O_27
REMARK                            x       y       z     vdW  Elec       q    Type
REMARK                         _______ _______ _______ _____ _____    ______ ____
ROOT
ATOM      1  C   UNL     1      14.998  42.673  43.025  0.00  0.00    +0.000 C 
ATOM      2  C   UNL     1      15.631  42.800  44.412  0.00  0.00    +0.000 C 
ATOM      3  C   UNL     1      14.770  43.646  45.355  0.00  0.00    +0.000 C 
ATOM      4  C   UNL     1      14.681  45.076  44.661  0.00  0.00    +0.000 C 
ATOM      5  O   UNL     1      14.080  44.955  43.363  0.00  0.00    +0.000 OA
ATOM      6  C   UNL     1      14.792  44.096  42.460  0.00  0.00    +0.000 C 
ATOM      7  N   UNL     1      13.863  46.031  45.410  0.00  0.00    +0.000 N 
ATOM      8  C   UNL     1      13.793  47.404  45.432  0.00  0.00    +0.000 A 
ATOM      9  C   UNL     1      14.594  48.375  44.812  0.00  0.00    +0.000 A 
ATOM     10  C   UNL     1      14.259  49.718  45.010  0.00  0.00    +0.000 A 
ATOM     11  C   UNL     1      13.175  50.074  45.803  0.00  0.00    +0.000 A 
ATOM     12  C   UNL     1      12.367  49.113  46.419  0.00  0.00    +0.000 A 
ATOM     13  C   UNL     1      12.664  47.746  46.233  0.00  0.00    +0.000 A 
ATOM     14  C   UNL     1      12.033  46.534  46.654  0.00  0.00    +0.000 A 
ATOM     15  C   UNL     1      10.935  46.005  47.347  0.00  0.00    +0.000 A 
ATOM     16  C   UNL     1      10.669  44.600  47.461  0.00  0.00    +0.000 A 
ATOM     17  C   UNL     1      11.491  43.598  46.915  0.00  0.00    +0.000 A 
ATOM     18  C   UNL     1      11.622  42.194  46.739  0.00  0.00    +0.000 A 
ATOM     19  C   UNL     1      10.801  41.108  47.115  0.00  0.00    +0.000 A 
ATOM     20  C   UNL     1      11.173  39.816  46.765  0.00  0.00    +0.000 A 
ATOM     21  C   UNL     1      12.344  39.569  46.070  0.00  0.00    +0.000 A 
ATOM     22  C   UNL     1      13.195  40.620  45.705  0.00  0.00    +0.000 A 
ATOM     23  C   UNL     1      12.839  41.939  46.029  0.00  0.00    +0.000 A 
ATOM     24  N   UNL     1      13.443  43.160  45.797  0.00  0.00    +0.000 N 
ATOM     25  C   UNL     1      12.587  44.092  46.281  0.00  0.00    +0.000 A 
ATOM     26  C   UNL     1      12.838  45.565  46.136  0.00  0.00    +0.000 A 
ATOM     27  C   UNL     1       9.424  44.471  48.206  0.00  0.00    +0.000 C 
ATOM     28  O   UNL     1       8.855  43.442  48.490  0.00  0.00    +0.000 OA
ATOM     29  N   UNL     1       9.020  45.738  48.512  0.00  0.00    +0.000 N 
ATOM     30  C   UNL     1       9.850  46.701  48.026  0.00  0.00    +0.000 C 
ATOM     31  O   UNL     1       9.713  47.904  48.124  0.00  0.00    +0.000 OA
ATOM     32  H   UNL     1       8.171  45.939  49.013  0.00  0.00    +0.000 HD
ENDROOT
BRANCH   1  34
ATOM     33  C   UNL     1      15.380  40.774  41.646  0.00  0.00    +0.000 C 
ATOM     34  O   UNL     1      15.930  41.971  42.186  0.00  0.00    +0.000 OA
ENDBRANCH   1  34
BRANCH   2  35
ATOM     35  O   UNL     1      16.006  41.549  44.975  0.00  0.00    +0.000 OA
ATOM     36  H   UNL     1      15.199  41.175  45.373  0.00  0.00    +0.000 HD
ENDBRANCH   2  35
BRANCH  11  37
ATOM     37  O   UNL     1      12.909  51.406  45.952  0.00  0.00    +0.000 OA
ATOM     38  H   UNL     1      13.471  51.887  45.323  0.00  0.00    +0.000 HD
ENDBRANCH  11  37
BRANCH  20  39
ATOM     39  O   UNL     1      10.391  38.751  47.092  0.00  0.00    +0.000 OA
ATOM     40  H   UNL     1      10.036  38.366  46.275  0.00  0.00    +0.000 HD
ENDBRANCH  20  39
BRANCH   6  41
ATOM     41  C   UNL     1      13.987  44.070  41.158  0.00  0.00    +0.000 C 
BRANCH  41  42
ATOM     42  O   UNL     1      14.866  43.952  40.041  0.00  0.00    +0.000 OA
ATOM     43  H   UNL     1      15.245  43.055  40.108  0.00  0.00    +0.000 HD
ENDBRANCH  41  42
ENDBRANCH   6  41
TORSDOF 6
ENDMDL
MODEL 3
REMARK VINA RESULT:    -6.304      2.975      4.840
REMARK INTER + INTRA:          -8.174
REMARK INTER:                  -7.778
REMARK INTRA:                  -0.396
REMARK UNBOUND:                -0.396
REMARK  Name = 
REMARK  7 active torsions:
REMARK  status: ('A' for Active; 'I' for Inactive)
REMARK    1  A    between atoms: C_1  and  O_2
REMARK    2  A    between atoms: O_2  and  C_3
REMARK    3  A    between atoms: C_4  and  O_5
REMARK    4  A    between atoms: C_9  and  C_10
REMARK    5  A    between atoms: C_10  and  O_11
REMARK    6  A    between atoms: C_16  and  O_17
REMARK    7  A    between atoms: C_26  and  O_27
REMARK                            x       y       z     vdW  Elec       q    Type
REMARK                         _______ _______ _______ _____ _____    ______ ____
ROOT
ATOM      1  C   UNL     1      17.478  37.454  55.105  0.00  0.00    +0.000 C 
ATOM      2  C   UNL     1      17.056  36.028  54.744  0.00  0.00    +0.000 C 
ATOM      3  C   UNL     1      17.815  35.503  53.522  0.00  0.00    +0.000 C 
ATOM      4  C   UNL     1      17.437  36.502  52.341  0.00  0.00    +0.000 C 
ATOM      5  O   UNL     1      17.840  37.838  52.679  0.00  0.00    +0.000 OA
ATOM      6  C   UNL     1      17.233  38.353  53.874  0.00  0.00    +0.000 C 
ATOM      7  N   UNL     1      18.098  36.177  51.076  0.00  0.00    +0.000 N 
ATOM      8  C   UNL     1      17.827  36.479  49.762  0.00  0.00    +0.000 A 
ATOM      9  C   UNL     1      16.723  37.115  49.174  0.00  0.00    +0.000 A 
ATOM     10  C   UNL     1      16.740  37.299  47.788  0.00  0.00    +0.000 A 
ATOM     11  C   UNL     1      17.811  36.854  47.022  0.00  0.00    +0.000 A 
ATOM     12  C   UNL     1      18.918  36.225  47.600  0.00  0.00    +0.000 A 
ATOM     13  C   UNL     1      18.945  36.034  48.998  0.00  0.00    +0.000 A 
ATOM     14  C   UNL     1      19.915  35.496  49.900  0.00  0.00    +0.000 A 
ATOM     15  C   UNL     1      21.204  34.952  49.992  0.00  0.00    +0.000 A 
ATOM     16  C   UNL     1      21.825  34.585  51.232  0.00  0.00    +0.000 A 
ATOM     17  C   UNL     1      21.204  34.706  52.489  0.00  0.00    +0.000 A 
ATOM     18  C   UNL     1      21.401  34.531  53.885  0.00  0.00    +0.000 A 
ATOM     19  C   UNL     1      22.514  34.105  54.642  0.00  0.00    +0.000 A 
ATOM     20  C   UNL     1      22.425  34.070  56.029  0.00  0.00    +0.000 A 
ATOM     21  C   UNL     1      21.260  34.427  56.683  0.00  0.00    +0.000 A 
ATOM     22  C   UNL     1      20.128  34.828  55.961  0.00  0.00    +0.000 A 
ATOM     23  C   UNL     1      20.190  34.891  54.560  0.00  0.00    +0.000 A 
ATOM     24  N   UNL     1      19.273  35.257  53.593  0.00  0.00    +0.000 N 
ATOM     25  C   UNL     1      19.935  35.187  52.413  0.00  0.00    +0.000 A 
ATOM     26  C   UNL     1      19.306  35.601  51.114  0.00  0.00    +0.000 A 
ATOM     27  C   UNL     1      23.164  34.113  50.903  0.00  0.00    +0.000 C 
ATOM     28  O   UNL     1      24.008  33.733  51.683  0.00  0.00    +0.000 OA
ATOM     29  N   UNL     1      23.282  34.191  49.547  0.00  0.00    +0.000 N 
ATOM     30  C   UNL     1      22.174  34.692  48.936  0.00  0.00    +0.000 C 
ATOM     31  O   UNL     1      22.021  34.898  47.749  0.00  0.00    +0.000 OA
ATOM     32  H   UNL     1      24.122  33.940  49.052  0.00  0.00    +0.000 HD
ENDROOT
BRANCH   1  34
ATOM     33  C   UNL     1      17.353  38.112  57.387  0.00  0.00    +0.000 C 
ATOM     34  O   UNL     1      16.631  37.897  56.179  0.00  0.00    +0.000 OA
ENDBRANCH   1  34
BRANCH   2  35
ATOM     35  O   UNL     1      17.096  35.133  55.849  0.00  0.00    +0.000 OA
ATOM     36  H   UNL     1      17.603  35.584  56.548  0.00  0.00    +0.000 HD
ENDBRANCH   2  35
BRANCH  11  37
ATOM     37  O   UNL     1      17.757  37.067  45.673  0.00  0.00    +0.000 OA
ATOM     38  H   UNL     1      18.654  36.946  45.323  0.00  0.00    +0.000 HD
ENDBRANCH  11  37
BRANCH  20  39
ATOM     39  O   UNL     1      23.489  33.687  56.787  0.00  0.00    +0.000 OA
ATOM     40  H   UNL     1      23.317  32.797  57.134  0.00  0.00    +0.000 HD
ENDBRANCH  20  39
BRANCH   6  41
ATOM     41  C   UNL     1      17.807  39.757  54.083  0.00  0.00    +0.000 C 
BRANCH  41  42
ATOM     42  O   UNL     1      16.941  40.520  54.920  0.00  0.00    +0.000 OA
ATOM     43  H   UNL     1      17.069  40.160  55.817  0.00  0.00    +0.000 HD
ENDBRANCH  41  42
ENDBRANCH   6  41
TORSDOF 6
ENDMDL
