MODEL 1
REMARK VINA RESULT:    -5.930      0.000      0.000
REMARK INTER + INTRA:          -7.105
REMARK INTER:                  -6.981
REMARK INTRA:                  -0.124
REMARK UNBOUND:                -0.135
REMARK  Name = 
REMARK  11 active torsions:
REMARK  status: ('A' for Active; 'I' for Inactive)
REMARK    1  A    between atoms: C_1  and  O_2
REMARK    2  A    between atoms: O_2  and  C_3
REMARK    3  A    between atoms: C_3  and  C_5
REMARK    4  A    between atoms: C_8  and  C_9
REMARK    5  A    between atoms: C_8  and  C_10
REMARK    6  A    between atoms: C_17  and  C_18
REMARK    7  A    between atoms: C_20  and  C_21
REMARK    8  A    between atoms: C_25  and  C_26
REMARK    9  A    between atoms: C_25  and  C_27
REMARK   10  A    between atoms: C_31  and  C_32
REMARK   11  A    between atoms: C_33  and  C_34
REMARK                            x       y       z     vdW  Elec       q    Type
REMARK                         _______ _______ _______ _____ _____    ______ ____
ROOT
ATOM      1  C   UNL     1      15.009  38.953  41.334  0.00  0.00    +0.000 C 
ATOM      2  C   UNL     1      15.619  37.890  40.379  0.00  0.00    +0.000 C 
ATOM      3  C   UNL     1      16.990  38.267  39.825  0.00  0.00    +0.000 C 
ATOM      4  C   UNL     1      18.004  38.660  40.919  0.00  0.00    +0.000 C 
ATOM      5  C   UNL     1      18.458  37.408  41.697  0.00  0.00    +0.000 C 
ATOM      6  C   UNL     1      19.248  39.257  40.230  0.00  0.00    +0.000 C 
ATOM      7  C   UNL     1      17.412  39.699  41.911  0.00  0.00    +0.000 C 
ATOM      8  C   UNL     1      15.972  40.153  41.565  0.00  0.00    +0.000 C 
ATOM      9  C   UNL     1      15.346  41.238  42.466  0.00  0.00    +0.000 C 
ATOM     10  C   UNL     1      15.989  41.743  43.536  0.00  0.00    +0.000 C 
ATOM     11  C   UNL     1      15.498  42.848  44.422  0.00  0.00    +0.000 C 
ATOM     12  C   UNL     1      14.280  43.613  43.855  0.00  0.00    +0.000 C 
ATOM     13  C   UNL     1      13.711  44.763  44.802  0.00  0.00    +0.000 C 
ATOM     14  C   UNL     1      13.413  44.298  46.245  0.00  0.00    +0.000 C 
ATOM     15  C   UNL     1      14.746  45.875  44.947  0.00  0.00    +0.000 C 
ATOM     16  C   UNL     1      14.463  47.180  45.105  0.00  0.00    +0.000 C 
ATOM     17  C   UNL     1      13.049  47.645  45.181  0.00  0.00    +0.000 C 
ATOM     18  O   UNL     1      12.808  48.778  45.604  0.00  0.00    +0.000 OA
ATOM     19  C   UNL     1      11.912  46.706  44.741  0.00  0.00    +0.000 C 
ATOM     20  C   UNL     1      10.983  46.470  45.945  0.00  0.00    +0.000 C 
ATOM     21  C   UNL     1      11.097  47.494  43.681  0.00  0.00    +0.000 C 
ATOM     22  C   UNL     1      12.476  45.404  44.086  0.00  0.00    +0.000 C 
ATOM     23  C   UNL     1      11.410  44.340  43.767  0.00  0.00    +0.000 C 
ATOM     24  C   UNL     1      11.970  43.324  42.773  0.00  0.00    +0.000 C 
ATOM     25  C   UNL     1      13.238  42.581  43.269  0.00  0.00    +0.000 C 
ATOM     26  C   UNL     1      12.781  41.583  44.379  0.00  0.00    +0.000 C 
ATOM     27  C   UNL     1      13.950  41.758  42.049  0.00  0.00    +0.000 C 
ATOM     28  C   UNL     1      14.168  42.662  40.795  0.00  0.00    +0.000 C 
ATOM     29  C   UNL     1      13.041  40.570  41.598  0.00  0.00    +0.000 C 
ATOM     30  C   UNL     1      13.719  39.532  40.698  0.00  0.00    +0.000 C 
ENDROOT
BRANCH   1  31
ATOM     31  C   UNL     1      14.692  38.217  42.654  0.00  0.00    +0.000 C 
ATOM     32  O   UNL     1      15.376  38.252  43.669  0.00  0.00    +0.000 OA
BRANCH  31  34
ATOM     33  C   UNL     1      12.794  37.323  43.713  0.00  0.00    +0.000 C 
ATOM     34  O   UNL     1      13.574  37.442  42.523  0.00  0.00    +0.000 OA
ENDBRANCH  31  34
ENDBRANCH   1  31
BRANCH  16  35
ATOM     35  C   UNL     1      15.505  48.138  45.267  0.00  0.00    +0.000 C 
ATOM     36  N   UNL     1      16.365  48.915  45.330  0.00  0.00    +0.000 NA
ENDBRANCH  16  35
TORSDOF 3
ENDMDL
MODEL 2
REMARK VINA RESULT:    -5.817      2.505      8.782
REMARK INTER + INTRA:          -6.972
REMARK INTER:                  -6.898
REMARK INTRA:                  -0.074
REMARK UNBOUND:                -0.135
REMARK  Name = 
REMARK  11 active torsions:
REMARK  status: ('A' for Active; 'I' for Inactive)
REMARK    1  A    between atoms: C_1  and  O_2
REMARK    2  A    between atoms: O_2  and  C_3
REMARK    3  A    between atoms: C_3  and  C_5
REMARK    4  A    between atoms: C_8  and  C_9
REMARK    5  A    between atoms: C_8  and  C_10
REMARK    6  A    between atoms: C_17  and  C_18
REMARK    7  A    between atoms: C_20  and  C_21
REMARK    8  A    between atoms: C_25  and  C_26
REMARK    9  A    between atoms: C_25  and  C_27
REMARK   10  A    between atoms: C_31  and  C_32
REMARK   11  A    between atoms: C_33  and  C_34
REMARK                            x       y       z     vdW  Elec       q    Type
REMARK                         _______ _______ _______ _____ _____    ______ ____
ROOT
ATOM      1  C   UNL     1      10.574  46.825  44.355  0.00  0.00    +0.000 C 
ATOM      2  C   UNL     1       9.384  47.726  44.785  0.00  0.00    +0.000 C 
ATOM      3  C   UNL     1       8.949  47.532  46.235  0.00  0.00    +0.000 C 
ATOM      4  C   UNL     1      10.112  47.650  47.242  0.00  0.00    +0.000 C 
ATOM      5  C   UNL     1      10.549  49.123  47.377  0.00  0.00    +0.000 C 
ATOM      6  C   UNL     1       9.602  47.187  48.622  0.00  0.00    +0.000 C 
ATOM      7  C   UNL     1      11.331  46.784  46.823  0.00  0.00    +0.000 C 
ATOM      8  C   UNL     1      11.105  45.957  45.532  0.00  0.00    +0.000 C 
ATOM      9  C   UNL     1      12.248  45.018  45.095  0.00  0.00    +0.000 C 
ATOM     10  C   UNL     1      13.415  44.944  45.765  0.00  0.00    +0.000 C 
ATOM     11  C   UNL     1      14.549  44.012  45.463  0.00  0.00    +0.000 C 
ATOM     12  C   UNL     1      14.189  42.885  44.469  0.00  0.00    +0.000 C 
ATOM     13  C   UNL     1      15.393  41.908  44.097  0.00  0.00    +0.000 C 
ATOM     14  C   UNL     1      16.670  42.637  43.624  0.00  0.00    +0.000 C 
ATOM     15  C   UNL     1      15.819  41.118  45.332  0.00  0.00    +0.000 C 
ATOM     16  C   UNL     1      16.301  39.862  45.318  0.00  0.00    +0.000 C 
ATOM     17  C   UNL     1      16.486  39.134  44.031  0.00  0.00    +0.000 C 
ATOM     18  O   UNL     1      17.181  38.116  44.008  0.00  0.00    +0.000 OA
ATOM     19  C   UNL     1      15.817  39.666  42.751  0.00  0.00    +0.000 C 
ATOM     20  C   UNL     1      16.918  39.984  41.723  0.00  0.00    +0.000 C 
ATOM     21  C   UNL     1      14.988  38.484  42.183  0.00  0.00    +0.000 C 
ATOM     22  C   UNL     1      14.857  40.858  43.068  0.00  0.00    +0.000 C 
ATOM     23  C   UNL     1      14.275  41.553  41.824  0.00  0.00    +0.000 C 
ATOM     24  C   UNL     1      13.058  42.390  42.217  0.00  0.00    +0.000 C 
ATOM     25  C   UNL     1      13.356  43.489  43.270  0.00  0.00    +0.000 C 
ATOM     26  C   UNL     1      14.175  44.606  42.549  0.00  0.00    +0.000 C 
ATOM     27  C   UNL     1      11.971  44.121  43.866  0.00  0.00    +0.000 C 
ATOM     28  C   UNL     1      10.987  43.006  44.342  0.00  0.00    +0.000 C 
ATOM     29  C   UNL     1      11.230  44.935  42.757  0.00  0.00    +0.000 C 
ATOM     30  C   UNL     1      10.099  45.841  43.255  0.00  0.00    +0.000 C 
ENDROOT
BRANCH   1  31
ATOM     31  C   UNL     1      11.663  47.775  43.813  0.00  0.00    +0.000 C 
ATOM     32  O   UNL     1      12.685  48.096  44.407  0.00  0.00    +0.000 OA
BRANCH  31  34
ATOM     33  C   UNL     1      11.460  49.704  42.486  0.00  0.00    +0.000 C 
ATOM     34  O   UNL     1      11.302  48.289  42.600  0.00  0.00    +0.000 OA
ENDBRANCH  31  34
ENDBRANCH   1  31
BRANCH  16  35
ATOM     35  C   UNL     1      16.705  39.224  46.526  0.00  0.00    +0.000 C 
ATOM     36  N   UNL     1      17.055  38.767  47.534  0.00  0.00    +0.000 NA
ENDBRANCH  16  35
TORSDOF 3
ENDMDL
MODEL 3
REMARK VINA RESULT:    -5.760      1.685      2.586
REMARK INTER + INTRA:          -6.905
REMARK INTER:                  -6.770
REMARK INTRA:                  -0.135
REMARK UNBOUND:                -0.135
REMARK  Name = 
REMARK  11 active torsions:
REMARK  status: ('A' for Active; 'I' for Inactive)
REMARK    1  A    between atoms: C_1  and  O_2
REMARK    2  A    between atoms: O_2  and  C_3
REMARK    3  A    between atoms: C_3  and  C_5
REMARK    4  A    between atoms: C_8  and  C_9
REMARK    5  A    between atoms: C_8  and  C_10
REMARK    6  A    between atoms: C_17  and  C_18
REMARK    7  A    between atoms: C_20  and  C_21
REMARK    8  A    between atoms: C_25  and  C_26
REMARK    9  A    between atoms: C_25  and  C_27
REMARK   10  A    between atoms: C_31  and  C_32
REMARK   11  A    between atoms: C_33  and  C_34
REMARK                            x       y       z     vdW  Elec       q    Type
REMARK                         _______ _______ _______ _____ _____    ______ ____
ROOT
ATOM      1  C   UNL     1      13.520  40.742  42.380  0.00  0.00    +0.000 C 
ATOM      2  C   UNL     1      13.946  39.423  41.680  0.00  0.00    +0.000 C 
ATOM      3  C   UNL     1      15.407  39.396  41.240  0.00  0.00    +0.000 C 
ATOM      4  C   UNL     1      16.392  39.753  42.373  0.00  0.00    +0.000 C 
ATOM      5  C   UNL     1      16.483  38.591  43.383  0.00  0.00    +0.000 C 
ATOM      6  C   UNL     1      17.791  39.941  41.753  0.00  0.00    +0.000 C 
ATOM      7  C   UNL     1      15.975  41.052  43.115  0.00  0.00    +0.000 C 
ATOM      8  C   UNL     1      14.709  41.732  42.535  0.00  0.00    +0.000 C 
ATOM      9  C   UNL     1      14.278  43.067  43.177  0.00  0.00    +0.000 C 
ATOM     10  C   UNL     1      14.930  43.606  44.225  0.00  0.00    +0.000 C 
ATOM     11  C   UNL     1      14.634  44.929  44.864  0.00  0.00    +0.000 C 
ATOM     12  C   UNL     1      13.674  45.822  44.046  0.00  0.00    +0.000 C 
ATOM     13  C   UNL     1      13.309  47.216  44.729  0.00  0.00    +0.000 C 
ATOM     14  C   UNL     1      12.796  47.088  46.181  0.00  0.00    +0.000 C 
ATOM     15  C   UNL     1      14.555  48.090  44.822  0.00  0.00    +0.000 C 
ATOM     16  C   UNL     1      14.566  49.433  44.742  0.00  0.00    +0.000 C 
ATOM     17  C   UNL     1      13.295  50.193  44.577  0.00  0.00    +0.000 C 
ATOM     18  O   UNL     1      13.286  51.408  44.788  0.00  0.00    +0.000 OA
ATOM     19  C   UNL     1      12.012  49.454  44.156  0.00  0.00    +0.000 C 
ATOM     20  C   UNL     1      10.960  49.636  45.263  0.00  0.00    +0.000 C 
ATOM     21  C   UNL     1      11.488  50.196  42.898  0.00  0.00    +0.000 C 
ATOM     22  C   UNL     1      12.315  47.967  43.781  0.00  0.00    +0.000 C 
ATOM     23  C   UNL     1      11.063  47.113  43.507  0.00  0.00    +0.000 C 
ATOM     24  C   UNL     1      11.454  45.842  42.756  0.00  0.00    +0.000 C 
ATOM     25  C   UNL     1      12.475  44.947  43.507  0.00  0.00    +0.000 C 
ATOM     26  C   UNL     1      11.713  44.282  44.696  0.00  0.00    +0.000 C 
ATOM     27  C   UNL     1      13.076  43.790  42.522  0.00  0.00    +0.000 C 
ATOM     28  C   UNL     1      13.596  44.390  41.178  0.00  0.00    +0.000 C 
ATOM     29  C   UNL     1      11.960  42.761  42.156  0.00  0.00    +0.000 C 
ATOM     30  C   UNL     1      12.452  41.460  41.514  0.00  0.00    +0.000 C 
ENDROOT
BRANCH   1  31
ATOM     31  C   UNL     1      12.936  40.336  43.751  0.00  0.00    +0.000 C 
ATOM     32  O   UNL     1      13.505  40.457  44.829  0.00  0.00    +0.000 OA
BRANCH  31  34
ATOM     33  C   UNL     1      10.762  40.086  44.608  0.00  0.00    +0.000 C 
ATOM     34  O   UNL     1      11.717  39.739  43.604  0.00  0.00    +0.000 OA
ENDBRANCH  31  34
ENDBRANCH   1  31
BRANCH  16  35
ATOM     35  C   UNL     1      15.783  50.162  44.877  0.00  0.00    +0.000 C 
ATOM     36  N   UNL     1      16.736  50.813  44.996  0.00  0.00    +0.000 NA
ENDBRANCH  16  35
TORSDOF 3
ENDMDL
