MODEL 1
REMARK VINA RESULT:    -6.886      0.000      0.000
REMARK INTER + INTRA:          -9.714
REMARK INTER:                  -8.724
REMARK INTRA:                  -0.990
REMARK UNBOUND:                -0.815
REMARK  Name = 
REMARK  5 active torsions:
REMARK  status: ('A' for Active; 'I' for Inactive)
REMARK    1  A    between atoms: C_2  and  C_19
REMARK    2  A    between atoms: N_3  and  C_4
REMARK    3  A    between atoms: C_4  and  C_5
REMARK    4  A    between atoms: N_8  and  C_9
REMARK    5  A    between atoms: C_9  and  C_10
REMARK                            x       y       z     vdW  Elec       q    Type
REMARK                         _______ _______ _______ _____ _____    ______ ____
ROOT
ATOM      1  O   UNL     1      14.683  38.642  47.858  0.00  0.00    +0.000 OA
ATOM      2  C   UNL     1      15.654  39.360  47.628  0.00  0.00    +0.000 C 
ATOM      3  N   UNL     1      16.797  39.310  48.387  0.00  0.00    +0.000 N 
ATOM      4  H   UNL     1      17.601  39.871  48.101  0.00  0.00    +0.000 HD
ENDROOT
BRANCH   2   5
ATOM      5  C   UNL     1      15.672  40.329  46.490  0.00  0.00    +0.000 A 
ATOM      6  C   UNL     1      15.080  41.516  46.693  0.00  0.00    +0.000 A 
ATOM      7  C   UNL     1      15.023  42.505  45.630  0.00  0.00    +0.000 A 
ATOM      8  C   UNL     1      14.395  43.741  45.798  0.00  0.00    +0.000 A 
ATOM      9  C   UNL     1      14.340  44.649  44.737  0.00  0.00    +0.000 A 
ATOM     10  C   UNL     1      14.912  44.326  43.505  0.00  0.00    +0.000 A 
ATOM     11  C   UNL     1      15.550  43.098  43.333  0.00  0.00    +0.000 A 
ATOM     12  C   UNL     1      15.596  42.204  44.399  0.00  0.00    +0.000 A 
ATOM     13  O   UNL     1      16.243  40.975  44.189  0.00  0.00    +0.000 OA
ATOM     14  C   UNL     1      16.298  40.010  45.185  0.00  0.00    +0.000 A 
ATOM     15  O   UNL     1      16.840  38.922  44.983  0.00  0.00    +0.000 OA
ENDBRANCH   2   5
BRANCH   3  16
ATOM     16  C   UNL     1      16.967  38.388  49.482  0.00  0.00    +0.000 C 
BRANCH  16  17
ATOM     17  C   UNL     1      16.702  39.083  50.795  0.00  0.00    +0.000 A 
ATOM     18  C   UNL     1      17.712  39.809  51.427  0.00  0.00    +0.000 A 
ATOM     19  C   UNL     1      17.440  40.488  52.609  0.00  0.00    +0.000 A 
ATOM     20  N   UNL     1      16.201  40.456  53.155  0.00  0.00    +0.000 N 
ATOM     21  C   UNL     1      15.204  39.768  52.553  0.00  0.00    +0.000 A 
ATOM     22  C   UNL     1      15.430  39.075  51.369  0.00  0.00    +0.000 A 
BRANCH  20  23
ATOM     23  C   UNL     1      15.933  41.203  54.408  0.00  0.00    +0.000 C 
BRANCH  23  24
ATOM     24  C   UNL     1      15.002  42.361  54.157  0.00  0.00    +0.000 A 
ATOM     25  C   UNL     1      13.629  42.260  54.439  0.00  0.00    +0.000 A 
ATOM     26  C   UNL     1      12.774  43.342  54.212  0.00  0.00    +0.000 A 
ATOM     27  C   UNL     1      13.278  44.537  53.704  0.00  0.00    +0.000 A 
ATOM     28  C   UNL     1      14.632  44.639  53.419  0.00  0.00    +0.000 A 
ATOM     29  F   UNL     1      15.125  45.783  52.928  0.00  0.00    +0.000 F 
ATOM     30  C   UNL     1      15.495  43.567  53.636  0.00  0.00    +0.000 A 
ENDBRANCH  23  24
ENDBRANCH  20  23
ENDBRANCH  16  17
ENDBRANCH   3  16
TORSDOF 5
ENDMDL
MODEL 2
REMARK VINA RESULT:    -6.650      5.043      6.581
REMARK INTER + INTRA:          -9.409
REMARK INTER:                  -8.390
REMARK INTRA:                  -1.020
REMARK UNBOUND:                -0.815
REMARK  Name = 
REMARK  5 active torsions:
REMARK  status: ('A' for Active; 'I' for Inactive)
REMARK    1  A    between atoms: C_2  and  C_19
REMARK    2  A    between atoms: N_3  and  C_4
REMARK    3  A    between atoms: C_4  and  C_5
REMARK    4  A    between atoms: N_8  and  C_9
REMARK    5  A    between atoms: C_9  and  C_10
REMARK                            x       y       z     vdW  Elec       q    Type
REMARK                         _______ _______ _______ _____ _____    ______ ____
ROOT
ATOM      1  O   UNL     1      14.052  40.045  44.396  0.00  0.00    +0.000 OA
ATOM      2  C   UNL     1      14.990  40.826  44.539  0.00  0.00    +0.000 C 
ATOM      3  N   UNL     1      16.295  40.401  44.577  0.00  0.00    +0.000 N 
ATOM      4  H   UNL     1      17.038  41.100  44.618  0.00  0.00    +0.000 HD
ENDROOT
BRANCH   2   5
ATOM      5  C   UNL     1      14.783  42.301  44.662  0.00  0.00    +0.000 A 
ATOM      6  C   UNL     1      13.832  42.712  45.515  0.00  0.00    +0.000 A 
ATOM      7  C   UNL     1      13.542  44.127  45.673  0.00  0.00    +0.000 A 
ATOM      8  C   UNL     1      12.544  44.589  46.534  0.00  0.00    +0.000 A 
ATOM      9  C   UNL     1      12.282  45.959  46.630  0.00  0.00    +0.000 A 
ATOM     10  C   UNL     1      13.016  46.870  45.868  0.00  0.00    +0.000 A 
ATOM     11  C   UNL     1      14.021  46.417  45.015  0.00  0.00    +0.000 A 
ATOM     12  C   UNL     1      14.270  45.050  44.929  0.00  0.00    +0.000 A 
ATOM     13  O   UNL     1      15.287  44.628  44.057  0.00  0.00    +0.000 OA
ATOM     14  C   UNL     1      15.572  43.282  43.880  0.00  0.00    +0.000 A 
ATOM     15  O   UNL     1      16.444  42.917  43.090  0.00  0.00    +0.000 OA
ENDBRANCH   2   5
BRANCH   3  16
ATOM     16  C   UNL     1      16.671  39.019  44.411  0.00  0.00    +0.000 C 
BRANCH  16  17
ATOM     17  C   UNL     1      16.739  38.331  45.753  0.00  0.00    +0.000 A 
ATOM     18  C   UNL     1      16.535  36.954  45.853  0.00  0.00    +0.000 A 
ATOM     19  C   UNL     1      16.653  36.326  47.086  0.00  0.00    +0.000 A 
ATOM     20  N   UNL     1      16.967  37.035  48.197  0.00  0.00    +0.000 N 
ATOM     21  C   UNL     1      17.180  38.368  48.121  0.00  0.00    +0.000 A 
ATOM     22  C   UNL     1      17.074  39.038  46.908  0.00  0.00    +0.000 A 
BRANCH  20  23
ATOM     23  C   UNL     1      17.103  36.336  49.498  0.00  0.00    +0.000 C 
BRANCH  23  24
ATOM     24  C   UNL     1      18.551  36.217  49.897  0.00  0.00    +0.000 A 
ATOM     25  C   UNL     1      19.025  36.799  51.085  0.00  0.00    +0.000 A 
ATOM     26  C   UNL     1      20.368  36.675  51.452  0.00  0.00    +0.000 A 
ATOM     27  C   UNL     1      21.252  35.968  50.642  0.00  0.00    +0.000 A 
ATOM     28  C   UNL     1      20.790  35.396  49.466  0.00  0.00    +0.000 A 
ATOM     29  F   UNL     1      21.634  34.715  48.679  0.00  0.00    +0.000 F 
ATOM     30  C   UNL     1      19.455  35.514  49.085  0.00  0.00    +0.000 A 
ENDBRANCH  23  24
ENDBRANCH  20  23
ENDBRANCH  16  17
ENDBRANCH   3  16
TORSDOF 5
ENDMDL
MODEL 3
REMARK VINA RESULT:    -6.550      6.064      8.666
REMARK INTER + INTRA:          -9.279
REMARK INTER:                  -8.464
REMARK INTRA:                  -0.815
REMARK UNBOUND:                -0.815
REMARK  Name = 
REMARK  5 active torsions:
REMARK  status: ('A' for Active; 'I' for Inactive)
REMARK    1  A    between atoms: C_2  and  C_19
REMARK    2  A    between atoms: N_3  and  C_4
REMARK    3  A    between atoms: C_4  and  C_5
REMARK    4  A    between atoms: N_8  and  C_9
REMARK    5  A    between atoms: C_9  and  C_10
REMARK                            x       y       z     vdW  Elec       q    Type
REMARK                         _______ _______ _______ _____ _____    ______ ____
ROOT
ATOM      1  O   UNL     1      15.146  42.526  46.642  0.00  0.00    +0.000 OA
ATOM      2  C   UNL     1      14.962  42.725  45.443  0.00  0.00    +0.000 C 
ATOM      3  N   UNL     1      14.115  43.704  44.986  0.00  0.00    +0.000 N 
ATOM      4  H   UNL     1      14.062  43.878  43.981  0.00  0.00    +0.000 HD
ENDROOT
BRANCH   2   5
ATOM      5  C   UNL     1      15.664  41.930  44.390  0.00  0.00    +0.000 A 
ATOM      6  C   UNL     1      15.909  40.639  44.666  0.00  0.00    +0.000 A 
ATOM      7  C   UNL     1      16.615  39.801  43.712  0.00  0.00    +0.000 A 
ATOM      8  C   UNL     1      16.908  38.461  43.975  0.00  0.00    +0.000 A 
ATOM      9  C   UNL     1      17.615  37.702  43.038  0.00  0.00    +0.000 A 
ATOM     10  C   UNL     1      18.031  38.278  41.836  0.00  0.00    +0.000 A 
ATOM     11  C   UNL     1      17.733  39.612  41.562  0.00  0.00    +0.000 A 
ATOM     12  C   UNL     1      17.029  40.356  42.505  0.00  0.00    +0.000 A 
ATOM     13  O   UNL     1      16.749  41.697  42.198  0.00  0.00    +0.000 OA
ATOM     14  C   UNL     1      16.089  42.521  43.099  0.00  0.00    +0.000 A 
ATOM     15  O   UNL     1      15.874  43.705  42.835  0.00  0.00    +0.000 OA
ENDBRANCH   2   5
BRANCH   3  16
ATOM     16  C   UNL     1      13.409  44.599  45.868  0.00  0.00    +0.000 C 
BRANCH  16  17
ATOM     17  C   UNL     1      13.507  46.017  45.361  0.00  0.00    +0.000 A 
ATOM     18  C   UNL     1      12.449  46.590  44.653  0.00  0.00    +0.000 A 
ATOM     19  C   UNL     1      12.531  47.914  44.239  0.00  0.00    +0.000 A 
ATOM     20  N   UNL     1      13.627  48.659  44.517  0.00  0.00    +0.000 N 
ATOM     21  C   UNL     1      14.658  48.128  45.213  0.00  0.00    +0.000 A 
ATOM     22  C   UNL     1      14.619  46.809  45.648  0.00  0.00    +0.000 A 
BRANCH  20  23
ATOM     23  C   UNL     1      13.681  50.075  44.078  0.00  0.00    +0.000 C 
BRANCH  23  24
ATOM     24  C   UNL     1      14.122  50.973  45.204  0.00  0.00    +0.000 A 
ATOM     25  C   UNL     1      13.250  51.293  46.259  0.00  0.00    +0.000 A 
ATOM     26  C   UNL     1      13.671  52.121  47.304  0.00  0.00    +0.000 A 
ATOM     27  C   UNL     1      14.965  52.634  47.312  0.00  0.00    +0.000 A 
ATOM     28  C   UNL     1      15.827  52.324  46.271  0.00  0.00    +0.000 A 
ATOM     29  F   UNL     1      17.074  52.815  46.269  0.00  0.00    +0.000 F 
ATOM     30  C   UNL     1      15.421  51.505  45.220  0.00  0.00    +0.000 A 
ENDBRANCH  23  24
ENDBRANCH  20  23
ENDBRANCH  16  17
ENDBRANCH   3  16
TORSDOF 5
ENDMDL
