MODEL 1
REMARK VINA RESULT:    -7.772      0.000      0.000
REMARK INTER + INTRA:         -10.979
REMARK INTER:                 -10.329
REMARK INTRA:                  -0.650
REMARK UNBOUND:                -0.708
REMARK  Name = 
REMARK  8 active torsions:
REMARK  status: ('A' for Active; 'I' for Inactive)
REMARK    1  A    between atoms: C_1  and  C_2
REMARK    2  A    between atoms: C_2  and  C_3
REMARK    3  A    between atoms: C_10  and  O_11
REMARK    4  A    between atoms: O_11  and  C_12
REMARK    5  A    between atoms: C_17  and  N_18
REMARK    6  A    between atoms: C_40  and  O_41
REMARK    7  A    between atoms: C_40  and  C_42
REMARK    8  A    between atoms: C_42  and  C_43
REMARK                            x       y       z     vdW  Elec       q    Type
REMARK                         _______ _______ _______ _____ _____    ______ ____
ROOT
ATOM      1  C   UNL     1      12.401  44.083  46.666  0.00  0.00    +0.000 A 
ATOM      2  C   UNL     1      12.457  45.461  46.504  0.00  0.00    +0.000 A 
ATOM      3  C   UNL     1      13.502  46.017  45.777  0.00  0.00    +0.000 A 
ATOM      4  N   UNL     1      14.502  45.348  45.196  0.00  0.00    +0.000 NA
ATOM      5  C   UNL     1      14.457  44.013  45.326  0.00  0.00    +0.000 A 
ATOM      6  C   UNL     1      15.475  43.287  44.724  0.00  0.00    +0.000 A 
ATOM      7  C   UNL     1      15.526  41.895  44.787  0.00  0.00    +0.000 A 
ATOM      8  C   UNL     1      14.519  41.219  45.459  0.00  0.00    +0.000 A 
ATOM      9  C   UNL     1      13.492  41.907  46.099  0.00  0.00    +0.000 A 
ATOM     10  C   UNL     1      13.431  43.318  46.045  0.00  0.00    +0.000 A 
ATOM     11  C   UNL     1      13.322  47.462  45.758  0.00  0.00    +0.000 A 
ATOM     12  C   UNL     1      14.056  48.423  45.189  0.00  0.00    +0.000 A 
ATOM     13  C   UNL     1      13.640  49.812  45.336  0.00  0.00    +0.000 A 
ATOM     14  C   UNL     1      12.524  50.115  46.022  0.00  0.00    +0.000 A 
ATOM     15  C   UNL     1      11.701  49.033  46.656  0.00  0.00    +0.000 A 
ATOM     16  O   UNL     1      10.689  49.300  47.294  0.00  0.00    +0.000 OA
ATOM     17  N   UNL     1      12.180  47.763  46.472  0.00  0.00    +0.000 N 
ATOM     18  C   UNL     1      11.544  46.550  46.992  0.00  0.00    +0.000 C 
ATOM     19  C   UNL     1      12.039  51.504  46.229  0.00  0.00    +0.000 C 
ATOM     20  O   UNL     1      12.735  52.515  45.473  0.00  0.00    +0.000 OA
ATOM     21  C   UNL     1      13.750  52.253  44.626  0.00  0.00    +0.000 C 
ATOM     22  O   UNL     1      14.121  53.099  43.810  0.00  0.00    +0.000 OA
ATOM     23  C   UNL     1      14.489  50.900  44.738  0.00  0.00    +0.000 C 
ENDROOT
BRANCH   1  25
ATOM     24  C   UNL     1      10.042  43.213  46.582  0.00  0.00    +0.000 C 
ATOM     25  C   UNL     1      11.268  43.465  47.448  0.00  0.00    +0.000 C 
ENDBRANCH   1  25
BRANCH  23  26
ATOM     26  O   UNL     1      14.822  50.510  43.391  0.00  0.00    +0.000 OA
ATOM     27  H   UNL     1      15.206  49.613  43.455  0.00  0.00    +0.000 HD
ENDBRANCH  23  26
BRANCH  23  28
ATOM     28  C   UNL     1      15.824  51.115  45.484  0.00  0.00    +0.000 C 
ATOM     29  C   UNL     1      17.074  50.722  44.706  0.00  0.00    +0.000 C 
ENDBRANCH  23  28
BRANCH   8  30
ATOM     30  O   UNL     1      14.558  39.826  45.569  0.00  0.00    +0.000 OA
BRANCH  30  31
ATOM     31  C   UNL     1      15.800  39.312  45.936  0.00  0.00    +0.000 C 
ATOM     32  O   UNL     1      16.723  39.102  45.156  0.00  0.00    +0.000 OA
ATOM     33  N   UNL     1      15.880  39.054  47.298  0.00  0.00    +0.000 N 
ATOM     34  C   UNL     1      17.115  38.519  47.853  0.00  0.00    +0.000 C 
ATOM     35  C   UNL     1      16.850  37.632  49.064  0.00  0.00    +0.000 C 
ATOM     36  C   UNL     1      16.045  38.337  50.189  0.00  0.00    +0.000 C 
ATOM     37  C   UNL     1      15.354  39.606  49.641  0.00  0.00    +0.000 C 
ATOM     38  C   UNL     1      14.815  39.395  48.231  0.00  0.00    +0.000 C 
BRANCH  36  39
ATOM     39  N   UNL     1      16.889  38.581  51.394  0.00  0.00    +0.000 NA
ATOM     40  C   UNL     1      17.343  39.980  51.521  0.00  0.00    +0.000 C 
ATOM     41  C   UNL     1      18.270  40.172  52.725  0.00  0.00    +0.000 C 
ATOM     42  C   UNL     1      17.610  39.719  54.019  0.00  0.00    +0.000 C 
ATOM     43  C   UNL     1      17.072  38.305  53.864  0.00  0.00    +0.000 C 
ATOM     44  C   UNL     1      16.174  38.188  52.630  0.00  0.00    +0.000 C 
ENDBRANCH  36  39
ENDBRANCH  30  31
ENDBRANCH   8  30
TORSDOF 6
ENDMDL
MODEL 2
REMARK VINA RESULT:    -7.735      5.017      8.662
REMARK INTER + INTRA:         -10.931
REMARK INTER:                  -9.777
REMARK INTRA:                  -1.154
REMARK UNBOUND:                -0.708
REMARK  Name = 
REMARK  8 active torsions:
REMARK  status: ('A' for Active; 'I' for Inactive)
REMARK    1  A    between atoms: C_1  and  C_2
REMARK    2  A    between atoms: C_2  and  C_3
REMARK    3  A    between atoms: C_10  and  O_11
REMARK    4  A    between atoms: O_11  and  C_12
REMARK    5  A    between atoms: C_17  and  N_18
REMARK    6  A    between atoms: C_40  and  O_41
REMARK    7  A    between atoms: C_40  and  C_42
REMARK    8  A    between atoms: C_42  and  C_43
REMARK                            x       y       z     vdW  Elec       q    Type
REMARK                         _______ _______ _______ _____ _____    ______ ____
ROOT
ATOM      1  C   UNL     1      17.624  37.124  48.637  0.00  0.00    +0.000 A 
ATOM      2  C   UNL     1      16.821  38.151  48.161  0.00  0.00    +0.000 A 
ATOM      3  C   UNL     1      16.995  38.600  46.857  0.00  0.00    +0.000 A 
ATOM      4  N   UNL     1      17.888  38.138  45.978  0.00  0.00    +0.000 NA
ATOM      5  C   UNL     1      18.663  37.132  46.412  0.00  0.00    +0.000 A 
ATOM      6  C   UNL     1      19.593  36.621  45.519  0.00  0.00    +0.000 A 
ATOM      7  C   UNL     1      20.445  35.572  45.860  0.00  0.00    +0.000 A 
ATOM      8  C   UNL     1      20.345  35.013  47.125  0.00  0.00    +0.000 A 
ATOM      9  C   UNL     1      19.445  35.511  48.063  0.00  0.00    +0.000 A 
ATOM     10  C   UNL     1      18.578  36.576  47.730  0.00  0.00    +0.000 A 
ATOM     11  C   UNL     1      16.035  39.668  46.613  0.00  0.00    +0.000 A 
ATOM     12  C   UNL     1      15.812  40.405  45.522  0.00  0.00    +0.000 A 
ATOM     13  C   UNL     1      14.774  41.427  45.557  0.00  0.00    +0.000 A 
ATOM     14  C   UNL     1      14.044  41.610  46.672  0.00  0.00    +0.000 A 
ATOM     15  C   UNL     1      14.296  40.779  47.894  0.00  0.00    +0.000 A 
ATOM     16  O   UNL     1      13.644  40.947  48.919  0.00  0.00    +0.000 OA
ATOM     17  N   UNL     1      15.298  39.855  47.765  0.00  0.00    +0.000 N 
ATOM     18  C   UNL     1      15.718  38.929  48.820  0.00  0.00    +0.000 C 
ATOM     19  C   UNL     1      12.977  42.638  46.794  0.00  0.00    +0.000 C 
ATOM     20  O   UNL     1      12.628  43.308  45.567  0.00  0.00    +0.000 OA
ATOM     21  C   UNL     1      13.200  43.040  44.376  0.00  0.00    +0.000 C 
ATOM     22  O   UNL     1      12.683  43.433  43.329  0.00  0.00    +0.000 OA
ATOM     23  C   UNL     1      14.551  42.290  44.346  0.00  0.00    +0.000 C 
ENDROOT
BRANCH   1  25
ATOM     24  C   UNL     1      18.311  37.375  51.044  0.00  0.00    +0.000 C 
ATOM     25  C   UNL     1      17.441  36.622  50.049  0.00  0.00    +0.000 C 
ENDBRANCH   1  25
BRANCH  23  26
ATOM     26  O   UNL     1      14.509  41.429  43.191  0.00  0.00    +0.000 OA
ATOM     27  H   UNL     1      15.207  40.757  43.328  0.00  0.00    +0.000 HD
ENDBRANCH  23  26
BRANCH  23  28
ATOM     28  C   UNL     1      15.687  43.308  44.103  0.00  0.00    +0.000 C 
ATOM     29  C   UNL     1      16.667  42.937  42.997  0.00  0.00    +0.000 C 
ENDBRANCH  23  28
BRANCH   8  30
ATOM     30  O   UNL     1      21.207  33.983  47.509  0.00  0.00    +0.000 OA
BRANCH  30  31
ATOM     31  C   UNL     1      22.305  34.398  48.259  0.00  0.00    +0.000 C 
ATOM     32  O   UNL     1      23.166  35.176  47.859  0.00  0.00    +0.000 OA
ATOM     33  N   UNL     1      22.325  33.826  49.524  0.00  0.00    +0.000 N 
ATOM     34  C   UNL     1      23.403  34.160  50.443  0.00  0.00    +0.000 C 
ATOM     35  C   UNL     1      23.721  33.002  51.383  0.00  0.00    +0.000 C 
ATOM     36  C   UNL     1      22.495  32.501  52.192  0.00  0.00    +0.000 C 
ATOM     37  C   UNL     1      21.183  33.007  51.547  0.00  0.00    +0.000 C 
ATOM     38  C   UNL     1      21.251  32.980  50.025  0.00  0.00    +0.000 C 
BRANCH  36  39
ATOM     39  N   UNL     1      22.623  32.831  53.640  0.00  0.00    +0.000 NA
ATOM     40  C   UNL     1      23.952  33.360  54.007  0.00  0.00    +0.000 C 
ATOM     41  C   UNL     1      24.069  33.613  55.513  0.00  0.00    +0.000 C 
ATOM     42  C   UNL     1      22.980  34.550  56.011  0.00  0.00    +0.000 C 
ATOM     43  C   UNL     1      21.615  34.049  55.567  0.00  0.00    +0.000 C 
ATOM     44  C   UNL     1      21.583  33.799  54.057  0.00  0.00    +0.000 C 
ENDBRANCH  36  39
ENDBRANCH  30  31
ENDBRANCH   8  30
TORSDOF 6
ENDMDL
MODEL 3
REMARK VINA RESULT:    -7.419      4.520      7.985
REMARK INTER + INTRA:         -10.513
REMARK INTER:                  -9.805
REMARK INTRA:                  -0.708
REMARK UNBOUND:                -0.708
REMARK  Name = 
REMARK  8 active torsions:
REMARK  status: ('A' for Active; 'I' for Inactive)
REMARK    1  A    between atoms: C_1  and  C_2
REMARK    2  A    between atoms: C_2  and  C_3
REMARK    3  A    between atoms: C_10  and  O_11
REMARK    4  A    between atoms: O_11  and  C_12
REMARK    5  A    between atoms: C_17  and  N_18
REMARK    6  A    between atoms: C_40  and  O_41
REMARK    7  A    between atoms: C_40  and  C_42
REMARK    8  A    between atoms: C_42  and  C_43
REMARK                            x       y       z     vdW  Elec       q    Type
REMARK                         _______ _______ _______ _____ _____    ______ ____
ROOT
ATOM      1  C   UNL     1      17.315  37.534  45.612  0.00  0.00    +0.000 A 
ATOM      2  C   UNL     1      16.763  38.687  45.070  0.00  0.00    +0.000 A 
ATOM      3  C   UNL     1      16.267  39.667  45.922  0.00  0.00    +0.000 A 
ATOM      4  N   UNL     1      16.258  39.619  47.257  0.00  0.00    +0.000 NA
ATOM      5  C   UNL     1      16.804  38.521  47.801  0.00  0.00    +0.000 A 
ATOM      6  C   UNL     1      16.821  38.445  49.187  0.00  0.00    +0.000 A 
ATOM      7  C   UNL     1      17.369  37.354  49.860  0.00  0.00    +0.000 A 
ATOM      8  C   UNL     1      17.927  36.323  49.120  0.00  0.00    +0.000 A 
ATOM      9  C   UNL     1      17.908  36.344  47.728  0.00  0.00    +0.000 A 
ATOM     10  C   UNL     1      17.353  37.443  47.033  0.00  0.00    +0.000 A 
ATOM     11  C   UNL     1      15.754  40.759  45.106  0.00  0.00    +0.000 A 
ATOM     12  C   UNL     1      15.187  41.916  45.459  0.00  0.00    +0.000 A 
ATOM     13  C   UNL     1      14.754  42.839  44.417  0.00  0.00    +0.000 A 
ATOM     14  C   UNL     1      14.939  42.530  43.121  0.00  0.00    +0.000 A 
ATOM     15  C   UNL     1      15.578  41.232  42.730  0.00  0.00    +0.000 A 
ATOM     16  O   UNL     1      15.740  40.936  41.551  0.00  0.00    +0.000 OA
ATOM     17  N   UNL     1      15.940  40.429  43.779  0.00  0.00    +0.000 N 
ATOM     18  C   UNL     1      16.584  39.120  43.643  0.00  0.00    +0.000 C 
ATOM     19  C   UNL     1      14.515  43.409  42.000  0.00  0.00    +0.000 C 
ATOM     20  O   UNL     1      14.064  44.722  42.387  0.00  0.00    +0.000 OA
ATOM     21  C   UNL     1      14.025  45.156  43.662  0.00  0.00    +0.000 C 
ATOM     22  O   UNL     1      13.899  46.357  43.912  0.00  0.00    +0.000 OA
ATOM     23  C   UNL     1      14.073  44.122  44.808  0.00  0.00    +0.000 C 
ENDROOT
BRANCH   1  25
ATOM     24  C   UNL     1      19.355  36.629  44.451  0.00  0.00    +0.000 C 
ATOM     25  C   UNL     1      17.863  36.465  44.698  0.00  0.00    +0.000 C 
ENDBRANCH   1  25
BRANCH  23  26
ATOM     26  O   UNL     1      14.843  44.726  45.866  0.00  0.00    +0.000 OA
ATOM     27  H   UNL     1      15.659  44.192  45.947  0.00  0.00    +0.000 HD
ENDBRANCH  23  26
BRANCH  23  28
ATOM     28  C   UNL     1      12.645  43.913  45.359  0.00  0.00    +0.000 C 
ATOM     29  C   UNL     1      12.302  44.725  46.602  0.00  0.00    +0.000 C 
ENDBRANCH  23  28
BRANCH   8  30
ATOM     30  O   UNL     1      18.453  35.200  49.763  0.00  0.00    +0.000 OA
BRANCH  30  31
ATOM     31  C   UNL     1      19.834  35.235  49.946  0.00  0.00    +0.000 C 
ATOM     32  O   UNL     1      20.619  35.816  49.203  0.00  0.00    +0.000 OA
ATOM     33  N   UNL     1      20.233  34.526  51.071  0.00  0.00    +0.000 N 
ATOM     34  C   UNL     1      21.646  34.466  51.414  0.00  0.00    +0.000 C 
ATOM     35  C   UNL     1      22.001  33.161  52.117  0.00  0.00    +0.000 C 
ATOM     36  C   UNL     1      21.152  32.886  53.388  0.00  0.00    +0.000 C 
ATOM     37  C   UNL     1      19.889  33.777  53.393  0.00  0.00    +0.000 C 
ATOM     38  C   UNL     1      19.289  33.920  51.999  0.00  0.00    +0.000 C 
BRANCH  36  39
ATOM     39  N   UNL     1      21.974  32.995  54.627  0.00  0.00    +0.000 NA
ATOM     40  C   UNL     1      23.301  33.601  54.402  0.00  0.00    +0.000 C 
ATOM     41  C   UNL     1      24.143  33.624  55.681  0.00  0.00    +0.000 C 
ATOM     42  C   UNL     1      23.426  34.346  56.811  0.00  0.00    +0.000 C 
ATOM     43  C   UNL     1      22.029  33.775  56.994  0.00  0.00    +0.000 C 
ATOM     44  C   UNL     1      21.260  33.766  55.671  0.00  0.00    +0.000 C 
ENDBRANCH  36  39
ENDBRANCH  30  31
ENDBRANCH   8  30
TORSDOF 6
ENDMDL
