MODEL 1
REMARK VINA RESULT:    -6.371      0.000      0.000
REMARK INTER + INTRA:         -10.163
REMARK INTER:                  -9.536
REMARK INTRA:                  -0.627
REMARK UNBOUND:                -0.627
REMARK  Name = 
REMARK  9 active torsions:
REMARK  status: ('A' for Active; 'I' for Inactive)
REMARK    1  A    between atoms: C_2  and  C_3
REMARK    2  A    between atoms: C_3  and  C_4
REMARK    3  A    between atoms: C_7  and  O_8
REMARK    4  A    between atoms: O_8  and  C_9
REMARK    5  A    between atoms: C_9  and  C_10
REMARK    6  A    between atoms: C_12  and  C_13
REMARK    7  A    between atoms: N_16  and  C_17
REMARK    8  A    between atoms: C_17  and  C_18
REMARK    9  A    between atoms: N_30  and  O_31
REMARK                            x       y       z     vdW  Elec       q    Type
REMARK                         _______ _______ _______ _____ _____    ______ ____
ROOT
ATOM      1  C   UNL     1      13.971  42.392  45.900  0.00  0.00    +0.000 A 
ATOM      2  N   UNL     1      13.555  41.605  46.868  0.00  0.00    +0.000 NA
ATOM      3  C   UNL     1      14.616  40.749  47.019  0.00  0.00    +0.000 A 
ATOM      4  N   UNL     1      15.657  40.993  46.211  0.00  0.00    +0.000 NA
ATOM      5  O   UNL     1      15.229  42.091  45.462  0.00  0.00    +0.000 OA
ENDROOT
BRANCH   3   6
ATOM      6  C   UNL     1      14.628  39.646  48.026  0.00  0.00    +0.000 C 
ATOM      7  C   UNL     1      15.466  38.445  47.555  0.00  0.00    +0.000 C 
ATOM      8  C   UNL     1      16.855  38.452  48.189  0.00  0.00    +0.000 C 
ATOM      9  N   UNL     1      16.825  38.394  49.658  0.00  0.00    +0.000 NA
ATOM     10  C   UNL     1      15.624  39.008  50.249  0.00  0.00    +0.000 C 
ATOM     11  C   UNL     1      15.087  40.158  49.401  0.00  0.00    +0.000 C 
BRANCH   9  12
ATOM     12  C   UNL     1      17.041  37.024  50.154  0.00  0.00    +0.000 C 
BRANCH  12  13
ATOM     13  C   UNL     1      18.501  36.629  50.250  0.00  0.00    +0.000 A 
ATOM     14  C   UNL     1      19.090  35.830  49.258  0.00  0.00    +0.000 A 
ATOM     15  C   UNL     1      20.427  35.445  49.358  0.00  0.00    +0.000 A 
ATOM     16  C   UNL     1      21.189  35.850  50.451  0.00  0.00    +0.000 A 
ATOM     17  C   UNL     1      20.615  36.642  51.445  0.00  0.00    +0.000 A 
ATOM     18  C   UNL     1      19.278  37.030  51.346  0.00  0.00    +0.000 A 
ENDBRANCH  12  13
ENDBRANCH   9  12
ENDBRANCH   3   6
BRANCH   1  19
ATOM     19  C   UNL     1      13.308  43.563  45.274  0.00  0.00    +0.000 C 
BRANCH  19  20
ATOM     20  O   UNL     1      13.015  44.496  46.313  0.00  0.00    +0.000 OA
BRANCH  20  24
ATOM     21  C   UNL     1      13.542  48.587  45.633  0.00  0.00    +0.000 A 
ATOM     22  C   UNL     1      14.559  47.703  45.250  0.00  0.00    +0.000 A 
ATOM     23  C   UNL     1      14.429  46.326  45.460  0.00  0.00    +0.000 A 
ATOM     24  C   UNL     1      13.276  45.814  46.055  0.00  0.00    +0.000 A 
ATOM     25  C   UNL     1      12.259  46.691  46.437  0.00  0.00    +0.000 A 
ATOM     26  C   UNL     1      12.388  48.066  46.232  0.00  0.00    +0.000 A 
BRANCH  21  27
ATOM     27  C   UNL     1      13.682  50.070  45.396  0.00  0.00    +0.000 C 
BRANCH  27  29
ATOM     28  O   UNL     1      15.241  50.474  43.565  0.00  0.00    +0.000 OA
ATOM     29  C   UNL     1      15.006  50.468  44.773  0.00  0.00    +0.000 C 
ATOM     30  N   UNL     1      15.972  50.822  45.693  0.00  0.00    +0.000 N 
ATOM     31  H   UNL     1      15.965  50.457  46.640  0.00  0.00    +0.000 HD
BRANCH  30  32
ATOM     32  O   UNL     1      17.255  51.059  45.140  0.00  0.00    +0.000 OA
ATOM     33  H   UNL     1      17.045  51.287  44.206  0.00  0.00    +0.000 HD
ENDBRANCH  30  32
ENDBRANCH  27  29
ENDBRANCH  21  27
ENDBRANCH  20  24
ENDBRANCH  19  20
ENDBRANCH   1  19
TORSDOF 9
ENDMDL
MODEL 2
REMARK VINA RESULT:    -6.356      7.334     10.260
REMARK INTER + INTRA:         -10.141
REMARK INTER:                  -9.260
REMARK INTRA:                  -0.881
REMARK UNBOUND:                -0.627
REMARK  Name = 
REMARK  9 active torsions:
REMARK  status: ('A' for Active; 'I' for Inactive)
REMARK    1  A    between atoms: C_2  and  C_3
REMARK    2  A    between atoms: C_3  and  C_4
REMARK    3  A    between atoms: C_7  and  O_8
REMARK    4  A    between atoms: O_8  and  C_9
REMARK    5  A    between atoms: C_9  and  C_10
REMARK    6  A    between atoms: C_12  and  C_13
REMARK    7  A    between atoms: N_16  and  C_17
REMARK    8  A    between atoms: C_17  and  C_18
REMARK    9  A    between atoms: N_30  and  O_31
REMARK                            x       y       z     vdW  Elec       q    Type
REMARK                         _______ _______ _______ _____ _____    ______ ____
ROOT
ATOM      1  C   UNL     1      17.567  36.143  56.143  0.00  0.00    +0.000 A 
ATOM      2  N   UNL     1      18.231  35.272  55.414  0.00  0.00    +0.000 NA
ATOM      3  C   UNL     1      19.316  34.998  56.208  0.00  0.00    +0.000 A 
ATOM      4  N   UNL     1      19.327  35.639  57.385  0.00  0.00    +0.000 NA
ATOM      5  O   UNL     1      18.160  36.404  57.345  0.00  0.00    +0.000 OA
ENDROOT
BRANCH   3   6
ATOM      6  C   UNL     1      20.388  34.040  55.809  0.00  0.00    +0.000 C 
ATOM      7  C   UNL     1      20.135  33.439  54.416  0.00  0.00    +0.000 C 
ATOM      8  C   UNL     1      20.968  34.142  53.346  0.00  0.00    +0.000 C 
ATOM      9  N   UNL     1      22.416  34.054  53.584  0.00  0.00    +0.000 NA
ATOM     10  C   UNL     1      22.775  33.963  55.010  0.00  0.00    +0.000 C 
ATOM     11  C   UNL     1      21.776  34.693  55.905  0.00  0.00    +0.000 C 
BRANCH   9  12
ATOM     12  C   UNL     1      23.035  32.977  52.793  0.00  0.00    +0.000 C 
BRANCH  12  13
ATOM     13  C   UNL     1      24.025  33.469  51.757  0.00  0.00    +0.000 A 
ATOM     14  C   UNL     1      23.592  34.234  50.663  0.00  0.00    +0.000 A 
ATOM     15  C   UNL     1      24.499  34.665  49.695  0.00  0.00    +0.000 A 
ATOM     16  C   UNL     1      25.848  34.335  49.807  0.00  0.00    +0.000 A 
ATOM     17  C   UNL     1      26.291  33.575  50.888  0.00  0.00    +0.000 A 
ATOM     18  C   UNL     1      25.385  33.142  51.859  0.00  0.00    +0.000 A 
ENDBRANCH  12  13
ENDBRANCH   9  12
ENDBRANCH   3   6
BRANCH   1  19
ATOM     19  C   UNL     1      16.273  36.817  55.876  0.00  0.00    +0.000 C 
BRANCH  19  20
ATOM     20  O   UNL     1      16.168  37.000  54.464  0.00  0.00    +0.000 OA
BRANCH  20  24
ATOM     21  C   UNL     1      16.104  40.889  52.935  0.00  0.00    +0.000 A 
ATOM     22  C   UNL     1      17.268  40.433  53.567  0.00  0.00    +0.000 A 
ATOM     23  C   UNL     1      17.335  39.139  54.097  0.00  0.00    +0.000 A 
ATOM     24  C   UNL     1      16.238  38.284  53.998  0.00  0.00    +0.000 A 
ATOM     25  C   UNL     1      15.077  38.735  53.368  0.00  0.00    +0.000 A 
ATOM     26  C   UNL     1      15.006  40.027  52.841  0.00  0.00    +0.000 A 
BRANCH  21  27
ATOM     27  C   UNL     1      16.039  42.281  52.356  0.00  0.00    +0.000 C 
BRANCH  27  29
ATOM     28  O   UNL     1      15.153  43.128  54.464  0.00  0.00    +0.000 OA
ATOM     29  C   UNL     1      15.670  43.348  53.369  0.00  0.00    +0.000 C 
ATOM     30  N   UNL     1      15.951  44.634  52.954  0.00  0.00    +0.000 N 
ATOM     31  H   UNL     1      15.982  44.881  51.970  0.00  0.00    +0.000 HD
BRANCH  30  32
ATOM     32  O   UNL     1      15.484  45.650  53.824  0.00  0.00    +0.000 OA
ATOM     33  H   UNL     1      16.282  46.214  53.941  0.00  0.00    +0.000 HD
ENDBRANCH  30  32
ENDBRANCH  27  29
ENDBRANCH  21  27
ENDBRANCH  20  24
ENDBRANCH  19  20
ENDBRANCH   1  19
TORSDOF 9
ENDMDL
MODEL 3
REMARK VINA RESULT:    -6.307      5.014     10.894
REMARK INTER + INTRA:         -10.068
REMARK INTER:                  -9.426
REMARK INTRA:                  -0.642
REMARK UNBOUND:                -0.627
REMARK  Name = 
REMARK  9 active torsions:
REMARK  status: ('A' for Active; 'I' for Inactive)
REMARK    1  A    between atoms: C_2  and  C_3
REMARK    2  A    between atoms: C_3  and  C_4
REMARK    3  A    between atoms: C_7  and  O_8
REMARK    4  A    between atoms: O_8  and  C_9
REMARK    5  A    between atoms: C_9  and  C_10
REMARK    6  A    between atoms: C_12  and  C_13
REMARK    7  A    between atoms: N_16  and  C_17
REMARK    8  A    between atoms: C_17  and  C_18
REMARK    9  A    between atoms: N_30  and  O_31
REMARK                            x       y       z     vdW  Elec       q    Type
REMARK                         _______ _______ _______ _____ _____    ______ ____
ROOT
ATOM      1  C   UNL     1      16.738  38.042  50.011  0.00  0.00    +0.000 A 
ATOM      2  N   UNL     1      16.785  38.722  48.886  0.00  0.00    +0.000 NA
ATOM      3  C   UNL     1      15.518  38.546  48.389  0.00  0.00    +0.000 A 
ATOM      4  N   UNL     1      14.706  37.817  49.166  0.00  0.00    +0.000 NA
ATOM      5  O   UNL     1      15.517  37.479  50.251  0.00  0.00    +0.000 OA
ENDROOT
BRANCH   3   6
ATOM      6  C   UNL     1      15.067  39.142  47.097  0.00  0.00    +0.000 C 
ATOM      7  C   UNL     1      13.800  39.998  47.269  0.00  0.00    +0.000 C 
ATOM      8  C   UNL     1      14.137  41.485  47.338  0.00  0.00    +0.000 C 
ATOM      9  N   UNL     1      14.821  41.984  46.136  0.00  0.00    +0.000 NA
ATOM     10  C   UNL     1      15.636  40.963  45.454  0.00  0.00    +0.000 C 
ATOM     11  C   UNL     1      16.202  39.933  46.427  0.00  0.00    +0.000 C 
BRANCH   9  12
ATOM     12  C   UNL     1      13.885  42.645  45.210  0.00  0.00    +0.000 C 
BRANCH  12  13
ATOM     13  C   UNL     1      13.506  44.053  45.623  0.00  0.00    +0.000 A 
ATOM     14  C   UNL     1      12.339  44.289  46.367  0.00  0.00    +0.000 A 
ATOM     15  C   UNL     1      11.976  45.587  46.726  0.00  0.00    +0.000 A 
ATOM     16  C   UNL     1      12.772  46.664  46.344  0.00  0.00    +0.000 A 
ATOM     17  C   UNL     1      13.933  46.444  45.603  0.00  0.00    +0.000 A 
ATOM     18  C   UNL     1      14.299  45.145  45.244  0.00  0.00    +0.000 A 
ENDBRANCH  12  13
ENDBRANCH   9  12
ENDBRANCH   3   6
BRANCH   1  19
ATOM     19  C   UNL     1      17.777  37.855  51.053  0.00  0.00    +0.000 C 
BRANCH  19  20
ATOM     20  O   UNL     1      17.880  39.078  51.781  0.00  0.00    +0.000 OA
BRANCH  20  24
ATOM     21  C   UNL     1      16.998  39.232  55.864  0.00  0.00    +0.000 A 
ATOM     22  C   UNL     1      17.183  37.981  55.261  0.00  0.00    +0.000 A 
ATOM     23  C   UNL     1      17.476  37.880  53.897  0.00  0.00    +0.000 A 
ATOM     24  C   UNL     1      17.593  39.031  53.118  0.00  0.00    +0.000 A 
ATOM     25  C   UNL     1      17.410  40.279  53.715  0.00  0.00    +0.000 A 
ATOM     26  C   UNL     1      17.113  40.383  55.076  0.00  0.00    +0.000 A 
BRANCH  21  27
ATOM     27  C   UNL     1      16.690  39.337  57.338  0.00  0.00    +0.000 C 
BRANCH  27  29
ATOM     28  O   UNL     1      15.889  41.612  57.698  0.00  0.00    +0.000 OA
ATOM     29  C   UNL     1      16.753  40.754  57.876  0.00  0.00    +0.000 C 
ATOM     30  N   UNL     1      17.898  41.028  58.596  0.00  0.00    +0.000 N 
ATOM     31  H   UNL     1      18.765  40.528  58.427  0.00  0.00    +0.000 HD
BRANCH  30  32
ATOM     32  O   UNL     1      18.041  42.383  58.984  0.00  0.00    +0.000 OA
ATOM     33  H   UNL     1      18.770  42.340  59.643  0.00  0.00    +0.000 HD
ENDBRANCH  30  32
ENDBRANCH  27  29
ENDBRANCH  21  27
ENDBRANCH  20  24
ENDBRANCH  19  20
ENDBRANCH   1  19
TORSDOF 9
ENDMDL
