MODEL 1
REMARK VINA RESULT:    -6.460      0.000      0.000
REMARK INTER + INTRA:          -9.064
REMARK INTER:                  -8.216
REMARK INTRA:                  -0.848
REMARK UNBOUND:                -1.282
REMARK  Name = 
REMARK  6 active torsions:
REMARK  status: ('A' for Active; 'I' for Inactive)
REMARK    1  A    between atoms: C_1  and  C_2
REMARK    2  A    between atoms: C_4  and  O_5
REMARK    3  A    between atoms: C_7  and  C_8
REMARK    4  A    between atoms: C_9  and  C_10
REMARK    5  A    between atoms: C_20  and  C_21
REMARK    6  A    between atoms: N_30  and  C_31
REMARK                            x       y       z     vdW  Elec       q    Type
REMARK                         _______ _______ _______ _____ _____    ______ ____
ROOT
ATOM      1  C   UNL     1      17.238  38.353  55.302  0.00  0.00    +0.000 A 
ATOM      2  C   UNL     1      16.763  39.646  55.263  0.00  0.00    +0.000 A 
ATOM      3  C   UNL     1      16.697  40.269  54.032  0.00  0.00    +0.000 A 
ATOM      4  N   UNL     1      16.255  41.579  53.911  0.00  0.00    +0.000 N 
ATOM      5  C   UNL     1      15.169  42.084  54.766  0.00  0.00    +0.000 C 
ATOM      6  C   UNL     1      14.126  42.846  53.931  0.00  0.00    +0.000 C 
ATOM      7  O   UNL     1      14.672  43.942  53.186  0.00  0.00    +0.000 OA
ATOM      8  C   UNL     1      15.998  43.693  52.693  0.00  0.00    +0.000 C 
ATOM      9  C   UNL     1      16.359  42.203  52.583  0.00  0.00    +0.000 C 
ATOM     10  N   UNL     1      17.104  39.625  52.925  0.00  0.00    +0.000 NA
ATOM     11  C   UNL     1      17.541  38.357  53.040  0.00  0.00    +0.000 A 
ATOM     12  N   UNL     1      17.610  37.684  54.196  0.00  0.00    +0.000 NA
ENDROOT
BRANCH   1  14
ATOM     13  C   UNL     1      17.062  38.017  57.830  0.00  0.00    +0.000 A 
ATOM     14  C   UNL     1      17.342  37.589  56.536  0.00  0.00    +0.000 A 
ATOM     15  C   UNL     1      17.787  36.256  56.691  0.00  0.00    +0.000 A 
ATOM     16  N   UNL     1      17.764  35.846  57.958  0.00  0.00    +0.000 NA
ATOM     17  N   UNL     1      17.361  36.937  58.636  0.00  0.00    +0.000 N 
ATOM     18  C   UNL     1      17.309  36.878  60.079  0.00  0.00    +0.000 C 
BRANCH  13  24
ATOM     19  C   UNL     1      13.380  41.002  59.425  0.00  0.00    +0.000 C 
ATOM     20  C   UNL     1      14.836  40.765  59.148  0.00  0.00    +0.000 A 
ATOM     21  C   UNL     1      15.769  41.794  59.326  0.00  0.00    +0.000 A 
ATOM     22  C   UNL     1      17.112  41.569  59.033  0.00  0.00    +0.000 A 
ATOM     23  C   UNL     1      17.544  40.339  58.551  0.00  0.00    +0.000 A 
ATOM     24  C   UNL     1      16.622  39.307  58.356  0.00  0.00    +0.000 A 
ATOM     25  C   UNL     1      15.269  39.528  58.650  0.00  0.00    +0.000 A 
BRANCH  22  26
ATOM     26  O   UNL     1      18.049  42.547  59.202  0.00  0.00    +0.000 OA
ATOM     27  H   UNL     1      17.808  43.083  59.976  0.00  0.00    +0.000 HD
ENDBRANCH  22  26
ENDBRANCH  13  24
ENDBRANCH   1  14
BRANCH  11  28
ATOM     28  C   UNL     1      17.964  37.667  51.815  0.00  0.00    +0.000 A 
ATOM     29  C   UNL     1      19.192  36.996  51.710  0.00  0.00    +0.000 A 
ATOM     30  C   UNL     1      19.559  36.354  50.526  0.00  0.00    +0.000 A 
ATOM     31  C   UNL     1      18.679  36.395  49.461  0.00  0.00    +0.000 A 
ATOM     32  N   UNL     1      17.486  37.022  49.503  0.00  0.00    +0.000 NA
ATOM     33  C   UNL     1      17.163  37.636  50.672  0.00  0.00    +0.000 A 
ENDBRANCH  11  28
TORSDOF 4
ENDMDL
MODEL 2
REMARK VINA RESULT:    -6.338     10.708     14.190
REMARK INTER + INTRA:          -8.917
REMARK INTER:                  -7.635
REMARK INTRA:                  -1.282
REMARK UNBOUND:                -1.282
REMARK  Name = 
REMARK  6 active torsions:
REMARK  status: ('A' for Active; 'I' for Inactive)
REMARK    1  A    between atoms: C_1  and  C_2
REMARK    2  A    between atoms: C_4  and  O_5
REMARK    3  A    between atoms: C_7  and  C_8
REMARK    4  A    between atoms: C_9  and  C_10
REMARK    5  A    between atoms: C_20  and  C_21
REMARK    6  A    between atoms: N_30  and  C_31
REMARK                            x       y       z     vdW  Elec       q    Type
REMARK                         _______ _______ _______ _____ _____    ______ ____
ROOT
ATOM      1  C   UNL     1      13.621  44.875  45.796  0.00  0.00    +0.000 A 
ATOM      2  C   UNL     1      12.417  45.014  46.452  0.00  0.00    +0.000 A 
ATOM      3  C   UNL     1      11.944  46.294  46.661  0.00  0.00    +0.000 A 
ATOM      4  N   UNL     1      10.752  46.520  47.337  0.00  0.00    +0.000 N 
ATOM      5  C   UNL     1       9.612  45.605  47.169  0.00  0.00    +0.000 C 
ATOM      6  C   UNL     1       8.312  46.392  46.925  0.00  0.00    +0.000 C 
ATOM      7  O   UNL     1       8.001  47.329  47.965  0.00  0.00    +0.000 OA
ATOM      8  C   UNL     1       9.163  47.949  48.541  0.00  0.00    +0.000 C 
ATOM      9  C   UNL     1      10.406  47.918  47.638  0.00  0.00    +0.000 C 
ATOM     10  N   UNL     1      12.656  47.355  46.247  0.00  0.00    +0.000 NA
ATOM     11  C   UNL     1      13.815  47.139  45.597  0.00  0.00    +0.000 A 
ATOM     12  N   UNL     1      14.324  45.927  45.340  0.00  0.00    +0.000 NA
ENDROOT
BRANCH   1  14
ATOM     13  C   UNL     1      14.220  42.893  44.296  0.00  0.00    +0.000 A 
ATOM     14  C   UNL     1      14.214  43.578  45.507  0.00  0.00    +0.000 A 
ATOM     15  C   UNL     1      14.883  42.716  46.406  0.00  0.00    +0.000 A 
ATOM     16  N   UNL     1      15.312  41.595  45.827  0.00  0.00    +0.000 NA
ATOM     17  N   UNL     1      14.867  41.703  44.562  0.00  0.00    +0.000 N 
ATOM     18  C   UNL     1      15.081  40.598  43.654  0.00  0.00    +0.000 C 
BRANCH  13  24
ATOM     19  C   UNL     1      10.247  43.094  41.265  0.00  0.00    +0.000 C 
ATOM     20  C   UNL     1      11.709  43.326  41.512  0.00  0.00    +0.000 A 
ATOM     21  C   UNL     1      12.539  43.786  40.482  0.00  0.00    +0.000 A 
ATOM     22  C   UNL     1      13.900  43.966  40.716  0.00  0.00    +0.000 A 
ATOM     23  C   UNL     1      14.456  43.684  41.959  0.00  0.00    +0.000 A 
ATOM     24  C   UNL     1      13.643  43.213  42.992  0.00  0.00    +0.000 A 
ATOM     25  C   UNL     1      12.271  43.030  42.761  0.00  0.00    +0.000 A 
BRANCH  22  26
ATOM     26  O   UNL     1      14.735  44.418  39.737  0.00  0.00    +0.000 OA
ATOM     27  H   UNL     1      15.074  45.293  39.992  0.00  0.00    +0.000 HD
ENDBRANCH  22  26
ENDBRANCH  13  24
ENDBRANCH   1  14
BRANCH  11  28
ATOM     28  C   UNL     1      14.569  48.313  45.137  0.00  0.00    +0.000 A 
ATOM     29  C   UNL     1      13.975  49.357  44.411  0.00  0.00    +0.000 A 
ATOM     30  C   UNL     1      14.726  50.454  43.988  0.00  0.00    +0.000 A 
ATOM     31  C   UNL     1      16.071  50.486  44.306  0.00  0.00    +0.000 A 
ATOM     32  N   UNL     1      16.696  49.515  45.001  0.00  0.00    +0.000 NA
ATOM     33  C   UNL     1      15.933  48.461  45.396  0.00  0.00    +0.000 A 
ENDBRANCH  11  28
TORSDOF 4
ENDMDL
MODEL 3
REMARK VINA RESULT:    -6.335      5.329      8.024
REMARK INTER + INTRA:          -8.913
REMARK INTER:                  -7.708
REMARK INTRA:                  -1.205
REMARK UNBOUND:                -1.282
REMARK  Name = 
REMARK  6 active torsions:
REMARK  status: ('A' for Active; 'I' for Inactive)
REMARK    1  A    between atoms: C_1  and  C_2
REMARK    2  A    between atoms: C_4  and  O_5
REMARK    3  A    between atoms: C_7  and  C_8
REMARK    4  A    between atoms: C_9  and  C_10
REMARK    5  A    between atoms: C_20  and  C_21
REMARK    6  A    between atoms: N_30  and  C_31
REMARK                            x       y       z     vdW  Elec       q    Type
REMARK                         _______ _______ _______ _____ _____    ______ ____
ROOT
ATOM      1  C   UNL     1      14.267  40.488  47.974  0.00  0.00    +0.000 A 
ATOM      2  C   UNL     1      14.188  41.530  47.075  0.00  0.00    +0.000 A 
ATOM      3  C   UNL     1      15.053  41.515  45.998  0.00  0.00    +0.000 A 
ATOM      4  N   UNL     1      15.054  42.541  45.062  0.00  0.00    +0.000 N 
ATOM      5  C   UNL     1      13.796  43.192  44.663  0.00  0.00    +0.000 C 
ATOM      6  C   UNL     1      13.709  43.317  43.132  0.00  0.00    +0.000 C 
ATOM      7  O   UNL     1      14.803  44.036  42.549  0.00  0.00    +0.000 OA
ATOM      8  C   UNL     1      16.055  43.811  43.217  0.00  0.00    +0.000 C 
ATOM      9  C   UNL     1      16.107  42.510  44.035  0.00  0.00    +0.000 C 
ATOM     10  N   UNL     1      15.943  40.519  45.859  0.00  0.00    +0.000 NA
ATOM     11  C   UNL     1      15.949  39.527  46.768  0.00  0.00    +0.000 A 
ATOM     12  N   UNL     1      15.126  39.464  47.824  0.00  0.00    +0.000 NA
ENDROOT
BRANCH   1  14
ATOM     13  C   UNL     1      13.775  40.367  50.480  0.00  0.00    +0.000 A 
ATOM     14  C   UNL     1      13.402  40.387  49.139  0.00  0.00    +0.000 A 
ATOM     15  C   UNL     1      11.995  40.249  49.160  0.00  0.00    +0.000 A 
ATOM     16  N   UNL     1      11.499  40.183  50.395  0.00  0.00    +0.000 NA
ATOM     17  N   UNL     1      12.593  40.215  51.177  0.00  0.00    +0.000 N 
ATOM     18  C   UNL     1      12.430  40.070  52.606  0.00  0.00    +0.000 C 
BRANCH  13  24
ATOM     19  C   UNL     1      18.132  38.165  51.562  0.00  0.00    +0.000 C 
ATOM     20  C   UNL     1      17.216  39.350  51.649  0.00  0.00    +0.000 A 
ATOM     21  C   UNL     1      17.578  40.473  52.402  0.00  0.00    +0.000 A 
ATOM     22  C   UNL     1      16.703  41.553  52.502  0.00  0.00    +0.000 A 
ATOM     23  C   UNL     1      15.464  41.530  51.873  0.00  0.00    +0.000 A 
ATOM     24  C   UNL     1      15.084  40.411  51.128  0.00  0.00    +0.000 A 
ATOM     25  C   UNL     1      15.961  39.321  51.024  0.00  0.00    +0.000 A 
BRANCH  22  26
ATOM     26  O   UNL     1      17.027  42.665  53.222  0.00  0.00    +0.000 OA
ATOM     27  H   UNL     1      17.658  43.198  52.710  0.00  0.00    +0.000 HD
ENDBRANCH  22  26
ENDBRANCH  13  24
ENDBRANCH   1  14
BRANCH  11  28
ATOM     28  C   UNL     1      16.919  38.439  46.587  0.00  0.00    +0.000 A 
ATOM     29  C   UNL     1      17.401  37.669  47.657  0.00  0.00    +0.000 A 
ATOM     30  C   UNL     1      18.326  36.646  47.443  0.00  0.00    +0.000 A 
ATOM     31  C   UNL     1      18.752  36.409  46.149  0.00  0.00    +0.000 A 
ATOM     32  N   UNL     1      18.323  37.115  45.083  0.00  0.00    +0.000 NA
ATOM     33  C   UNL     1      17.423  38.104  45.329  0.00  0.00    +0.000 A 
ENDBRANCH  11  28
TORSDOF 4
ENDMDL
