MODEL 1
REMARK VINA RESULT:    -7.457      0.000      0.000
REMARK INTER + INTRA:         -10.559
REMARK INTER:                  -9.360
REMARK INTRA:                  -1.198
REMARK UNBOUND:                -0.922
REMARK  Name = 
REMARK  8 active torsions:
REMARK  status: ('A' for Active; 'I' for Inactive)
REMARK    1  A    between atoms: C_1  and  C_2
REMARK    2  A    between atoms: N_4  and  C_5
REMARK    3  A    between atoms: C_8  and  C_9
REMARK    4  A    between atoms: C_9  and  C_10
REMARK    5  A    between atoms: N_12  and  C_13
REMARK    6  A    between atoms: C_19  and  C_20
REMARK    7  A    between atoms: C_22  and  C_23
REMARK    8  A    between atoms: C_25  and  C_26
REMARK                            x       y       z     vdW  Elec       q    Type
REMARK                         _______ _______ _______ _____ _____    ______ ____
ROOT
ATOM      1  C   UNL     1      13.597  43.705  45.257  0.00  0.00    +0.000 A 
ATOM      2  C   UNL     1      13.446  43.833  43.932  0.00  0.00    +0.000 A 
ATOM      3  N   UNL     1      13.943  42.981  42.966  0.00  0.00    +0.000 N 
ATOM      4  C   UNL     1      14.816  41.920  43.349  0.00  0.00    +0.000 A 
ATOM      5  C   UNL     1      15.504  41.095  42.435  0.00  0.00    +0.000 A 
ATOM      6  F   UNL     1      15.378  41.321  41.117  0.00  0.00    +0.000 F 
ATOM      7  C   UNL     1      16.337  40.030  42.839  0.00  0.00    +0.000 A 
ATOM      8  C   UNL     1      16.476  39.818  44.217  0.00  0.00    +0.000 A 
ATOM      9  F   UNL     1      17.259  38.828  44.673  0.00  0.00    +0.000 F 
ATOM     10  C   UNL     1      15.834  40.618  45.152  0.00  0.00    +0.000 A 
ATOM     11  C   UNL     1      15.015  41.664  44.719  0.00  0.00    +0.000 A 
ATOM     12  C   UNL     1      14.354  42.519  45.734  0.00  0.00    +0.000 A 
ATOM     13  O   UNL     1      14.439  42.248  46.927  0.00  0.00    +0.000 OA
ENDROOT
BRANCH   7  14
ATOM     14  C   UNL     1      17.029  39.173  41.856  0.00  0.00    +0.000 A 
ATOM     15  C   UNL     1      16.537  37.906  41.522  0.00  0.00    +0.000 A 
ATOM     16  C   UNL     1      17.210  37.125  40.586  0.00  0.00    +0.000 A 
ATOM     17  C   UNL     1      16.686  35.769  40.223  0.00  0.00    +0.000 C 
ATOM     18  N   UNL     1      18.336  37.540  39.967  0.00  0.00    +0.000 NA
ATOM     19  C   UNL     1      18.818  38.763  40.286  0.00  0.00    +0.000 A 
ATOM     20  C   UNL     1      20.070  39.208  39.593  0.00  0.00    +0.000 C 
ATOM     21  C   UNL     1      18.200  39.594  41.215  0.00  0.00    +0.000 A 
ENDBRANCH   7  14
BRANCH   3  22
ATOM     22  C   UNL     1      13.667  43.295  41.551  0.00  0.00    +0.000 C 
ATOM     23  C   UNL     1      14.448  44.330  40.775  0.00  0.00    +0.000 C 
ATOM     24  C   UNL     1      13.027  44.603  41.150  0.00  0.00    +0.000 C 
ENDBRANCH   3  22
BRANCH   1  25
ATOM     25  C   UNL     1      13.012  44.643  46.272  0.00  0.00    +0.000 C 
BRANCH  25  29
ATOM     26  C   UNL     1      13.828  48.818  45.427  0.00  0.00    +0.000 A 
ATOM     27  C   UNL     1      14.795  47.836  45.180  0.00  0.00    +0.000 A 
ATOM     28  C   UNL     1      14.535  46.489  45.448  0.00  0.00    +0.000 A 
ATOM     29  C   UNL     1      13.295  46.095  45.963  0.00  0.00    +0.000 A 
ATOM     30  C   UNL     1      12.331  47.078  46.215  0.00  0.00    +0.000 A 
ATOM     31  C   UNL     1      12.595  48.427  45.948  0.00  0.00    +0.000 A 
BRANCH  26  35
ATOM     32  C   UNL     1      14.444  52.260  44.015  0.00  0.00    +0.000 C 
ATOM     33  C   UNL     1      13.904  50.852  43.966  0.00  0.00    +0.000 C 
ATOM     34  O   UNL     1      13.326  50.439  42.968  0.00  0.00    +0.000 OA
ATOM     35  N   UNL     1      14.173  50.152  45.128  0.00  0.00    +0.000 N 
ATOM     36  H   UNL     1      14.684  50.646  45.848  0.00  0.00    +0.000 HD
ENDBRANCH  26  35
ENDBRANCH  25  29
ENDBRANCH   1  25
TORSDOF 5
ENDMDL
MODEL 2
REMARK VINA RESULT:    -7.357      4.542      7.434
REMARK INTER + INTRA:         -10.430
REMARK INTER:                  -9.270
REMARK INTRA:                  -1.160
REMARK UNBOUND:                -0.922
REMARK  Name = 
REMARK  8 active torsions:
REMARK  status: ('A' for Active; 'I' for Inactive)
REMARK    1  A    between atoms: C_1  and  C_2
REMARK    2  A    between atoms: N_4  and  C_5
REMARK    3  A    between atoms: C_8  and  C_9
REMARK    4  A    between atoms: C_9  and  C_10
REMARK    5  A    between atoms: N_12  and  C_13
REMARK    6  A    between atoms: C_19  and  C_20
REMARK    7  A    between atoms: C_22  and  C_23
REMARK    8  A    between atoms: C_25  and  C_26
REMARK                            x       y       z     vdW  Elec       q    Type
REMARK                         _______ _______ _______ _____ _____    ______ ____
ROOT
ATOM      1  C   UNL     1      12.413  50.588  46.662  0.00  0.00    +0.000 A 
ATOM      2  C   UNL     1      13.496  50.552  45.874  0.00  0.00    +0.000 A 
ATOM      3  N   UNL     1      14.037  49.429  45.279  0.00  0.00    +0.000 N 
ATOM      4  C   UNL     1      13.513  48.142  45.603  0.00  0.00    +0.000 A 
ATOM      5  C   UNL     1      14.089  46.927  45.180  0.00  0.00    +0.000 A 
ATOM      6  F   UNL     1      15.223  46.949  44.459  0.00  0.00    +0.000 F 
ATOM      7  C   UNL     1      13.533  45.666  45.486  0.00  0.00    +0.000 A 
ATOM      8  C   UNL     1      12.363  45.658  46.256  0.00  0.00    +0.000 A 
ATOM      9  F   UNL     1      11.784  44.494  46.591  0.00  0.00    +0.000 F 
ATOM     10  C   UNL     1      11.773  46.829  46.711  0.00  0.00    +0.000 A 
ATOM     11  C   UNL     1      12.348  48.061  46.389  0.00  0.00    +0.000 A 
ATOM     12  C   UNL     1      11.713  49.299  46.900  0.00  0.00    +0.000 A 
ATOM     13  O   UNL     1      10.646  49.248  47.503  0.00  0.00    +0.000 OA
ENDROOT
BRANCH   7  14
ATOM     14  C   UNL     1      14.152  44.413  45.013  0.00  0.00    +0.000 A 
ATOM     15  C   UNL     1      14.536  43.407  45.909  0.00  0.00    +0.000 A 
ATOM     16  C   UNL     1      15.113  42.234  45.430  0.00  0.00    +0.000 A 
ATOM     17  C   UNL     1      15.522  41.155  46.385  0.00  0.00    +0.000 C 
ATOM     18  N   UNL     1      15.320  42.010  44.115  0.00  0.00    +0.000 NA
ATOM     19  C   UNL     1      14.953  42.976  43.244  0.00  0.00    +0.000 A 
ATOM     20  C   UNL     1      15.192  42.714  41.788  0.00  0.00    +0.000 C 
ATOM     21  C   UNL     1      14.376  44.176  43.652  0.00  0.00    +0.000 A 
ENDBRANCH   7  14
BRANCH   3  22
ATOM     22  C   UNL     1      15.240  49.597  44.442  0.00  0.00    +0.000 C 
ATOM     23  C   UNL     1      16.613  49.846  45.020  0.00  0.00    +0.000 C 
ATOM     24  C   UNL     1      15.907  50.942  44.290  0.00  0.00    +0.000 C 
ENDBRANCH   3  22
BRANCH   1  25
ATOM     25  C   UNL     1      11.843  51.839  47.264  0.00  0.00    +0.000 C 
BRANCH  25  29
ATOM     26  C   UNL     1      13.040  52.384  51.396  0.00  0.00    +0.000 A 
ATOM     27  C   UNL     1      13.972  52.512  50.360  0.00  0.00    +0.000 A 
ATOM     28  C   UNL     1      13.589  52.340  49.026  0.00  0.00    +0.000 A 
ATOM     29  C   UNL     1      12.261  52.043  48.702  0.00  0.00    +0.000 A 
ATOM     30  C   UNL     1      11.332  51.910  49.740  0.00  0.00    +0.000 A 
ATOM     31  C   UNL     1      11.718  52.080  51.075  0.00  0.00    +0.000 A 
BRANCH  26  35
ATOM     32  C   UNL     1      14.343  52.192  54.931  0.00  0.00    +0.000 C 
ATOM     33  C   UNL     1      13.911  51.601  53.612  0.00  0.00    +0.000 C 
ATOM     34  O   UNL     1      13.918  50.388  53.438  0.00  0.00    +0.000 OA
ATOM     35  N   UNL     1      13.511  52.573  52.713  0.00  0.00    +0.000 N 
ATOM     36  H   UNL     1      13.550  53.531  53.033  0.00  0.00    +0.000 HD
ENDBRANCH  26  35
ENDBRANCH  25  29
ENDBRANCH   1  25
TORSDOF 5
ENDMDL
MODEL 3
REMARK VINA RESULT:    -7.173      1.764      2.220
REMARK INTER + INTRA:         -10.192
REMARK INTER:                  -9.270
REMARK INTRA:                  -0.922
REMARK UNBOUND:                -0.922
REMARK  Name = 
REMARK  8 active torsions:
REMARK  status: ('A' for Active; 'I' for Inactive)
REMARK    1  A    between atoms: C_1  and  C_2
REMARK    2  A    between atoms: N_4  and  C_5
REMARK    3  A    between atoms: C_8  and  C_9
REMARK    4  A    between atoms: C_9  and  C_10
REMARK    5  A    between atoms: N_12  and  C_13
REMARK    6  A    between atoms: C_19  and  C_20
REMARK    7  A    between atoms: C_22  and  C_23
REMARK    8  A    between atoms: C_25  and  C_26
REMARK                            x       y       z     vdW  Elec       q    Type
REMARK                         _______ _______ _______ _____ _____    ______ ____
ROOT
ATOM      1  C   UNL     1      13.420  45.536  44.142  0.00  0.00    +0.000 A 
ATOM      2  C   UNL     1      13.374  45.309  42.823  0.00  0.00    +0.000 A 
ATOM      3  N   UNL     1      13.812  44.172  42.172  0.00  0.00    +0.000 N 
ATOM      4  C   UNL     1      14.505  43.166  42.909  0.00  0.00    +0.000 A 
ATOM      5  C   UNL     1      15.132  42.048  42.321  0.00  0.00    +0.000 A 
ATOM      6  F   UNL     1      15.124  41.914  40.984  0.00  0.00    +0.000 F 
ATOM      7  C   UNL     1      15.784  41.049  43.075  0.00  0.00    +0.000 A 
ATOM      8  C   UNL     1      15.803  41.212  44.466  0.00  0.00    +0.000 A 
ATOM      9  F   UNL     1      16.412  40.304  45.244  0.00  0.00    +0.000 F 
ATOM     10  C   UNL     1      15.217  42.307  45.086  0.00  0.00    +0.000 A 
ATOM     11  C   UNL     1      14.578  43.279  44.311  0.00  0.00    +0.000 A 
ATOM     12  C   UNL     1      13.975  44.450  44.991  0.00  0.00    +0.000 A 
ATOM     13  O   UNL     1      13.946  44.511  46.215  0.00  0.00    +0.000 OA
ENDROOT
BRANCH   7  14
ATOM     14  C   UNL     1      16.415  39.881  42.428  0.00  0.00    +0.000 A 
ATOM     15  C   UNL     1      15.889  38.592  42.582  0.00  0.00    +0.000 A 
ATOM     16  C   UNL     1      16.505  37.513  41.954  0.00  0.00    +0.000 A 
ATOM     17  C   UNL     1      15.944  36.132  42.113  0.00  0.00    +0.000 C 
ATOM     18  N   UNL     1      17.605  37.650  41.184  0.00  0.00    +0.000 NA
ATOM     19  C   UNL     1      18.119  38.891  41.032  0.00  0.00    +0.000 A 
ATOM     20  C   UNL     1      19.342  39.026  40.176  0.00  0.00    +0.000 C 
ATOM     21  C   UNL     1      17.560  40.014  41.633  0.00  0.00    +0.000 A 
ENDBRANCH   7  14
BRANCH   3  22
ATOM     22  C   UNL     1      13.674  44.112  40.705  0.00  0.00    +0.000 C 
ATOM     23  C   UNL     1      12.690  44.966  39.939  0.00  0.00    +0.000 C 
ATOM     24  C   UNL     1      12.457  43.495  40.058  0.00  0.00    +0.000 C 
ENDBRANCH   3  22
BRANCH   1  25
ATOM     25  C   UNL     1      12.904  46.778  44.808  0.00  0.00    +0.000 C 
BRANCH  25  29
ATOM     26  C   UNL     1      15.885  49.923  44.974  0.00  0.00    +0.000 A 
ATOM     27  C   UNL     1      14.623  50.164  44.418  0.00  0.00    +0.000 A 
ATOM     28  C   UNL     1      13.658  49.153  44.366  0.00  0.00    +0.000 A 
ATOM     29  C   UNL     1      13.936  47.880  44.877  0.00  0.00    +0.000 A 
ATOM     30  C   UNL     1      15.199  47.641  45.428  0.00  0.00    +0.000 A 
ATOM     31  C   UNL     1      16.165  48.653  45.476  0.00  0.00    +0.000 A 
BRANCH  26  35
ATOM     32  C   UNL     1      18.476  52.593  44.356  0.00  0.00    +0.000 C 
ATOM     33  C   UNL     1      17.633  51.406  43.962  0.00  0.00    +0.000 C 
ATOM     34  O   UNL     1      17.746  50.900  42.851  0.00  0.00    +0.000 OA
ATOM     35  N   UNL     1      16.799  50.998  44.986  0.00  0.00    +0.000 N 
ATOM     36  H   UNL     1      16.851  51.521  45.850  0.00  0.00    +0.000 HD
ENDBRANCH  26  35
ENDBRANCH  25  29
ENDBRANCH   1  25
TORSDOF 5
ENDMDL
