MODEL 1
REMARK VINA RESULT:    -6.273      0.000      0.000
REMARK INTER + INTRA:          -6.794
REMARK INTER:                  -6.769
REMARK INTRA:                  -0.025
REMARK UNBOUND:                 0.212
REMARK  Name = 
REMARK  2 active torsions:
REMARK  status: ('A' for Active; 'I' for Inactive)
REMARK    1  A    between atoms: C_2  and  C_3
REMARK    2  A    between atoms: C_15  and  N_16
REMARK                            x       y       z     vdW  Elec       q    Type
REMARK                         _______ _______ _______ _____ _____    ______ ____
ROOT
ATOM      1  O   UNL     1      11.257  44.299  43.191  0.00  0.00    +0.000 OA
ATOM      2  C   UNL     1      12.255  44.450  43.892  0.00  0.00    +0.000 C 
ATOM      3  N   UNL     1      13.239  43.475  44.070  0.00  0.00    +0.000 N 
ATOM      4  C   UNL     1      13.073  42.197  43.381  0.00  0.00    +0.000 C 
ATOM      5  C   UNL     1      13.642  41.047  44.205  0.00  0.00    +0.000 C 
ATOM      6  C   UNL     1      15.095  41.303  44.674  0.00  0.00    +0.000 C 
ATOM      7  C   UNL     1      15.597  42.707  44.307  0.00  0.00    +0.000 C 
ATOM      8  C   UNL     1      14.552  43.761  44.650  0.00  0.00    +0.000 C 
ENDROOT
BRANCH   6   9
ATOM      9  N   UNL     1      16.047  40.251  44.252  0.00  0.00    +0.000 N 
ATOM     10  C   UNL     1      16.536  40.287  42.937  0.00  0.00    +0.000 C 
ATOM     11  O   UNL     1      16.231  41.161  42.129  0.00  0.00    +0.000 OA
ATOM     12  O   UNL     1      17.424  39.325  42.562  0.00  0.00    +0.000 OA
ATOM     13  C   UNL     1      17.413  38.077  43.248  0.00  0.00    +0.000 C 
ATOM     14  C   UNL     1      17.336  38.265  44.722  0.00  0.00    +0.000 A 
ATOM     15  C   UNL     1      17.903  37.329  45.600  0.00  0.00    +0.000 A 
ATOM     16  C   UNL     1      17.763  37.485  46.975  0.00  0.00    +0.000 A 
ATOM     17  C   UNL     1      17.049  38.569  47.472  0.00  0.00    +0.000 A 
ATOM     18  C   UNL     1      16.473  39.495  46.596  0.00  0.00    +0.000 A 
ATOM     19  C   UNL     1      16.606  39.350  45.207  0.00  0.00    +0.000 A 
ENDBRANCH   6   9
BRANCH   2  20
ATOM     20  C   UNL     1      12.413  45.745  44.588  0.00  0.00    +0.000 A 
ATOM     21  C   UNL     1      12.037  45.874  45.927  0.00  0.00    +0.000 A 
ATOM     22  C   UNL     1      12.175  47.097  46.591  0.00  0.00    +0.000 A 
ATOM     23  C   UNL     1      12.688  48.175  45.859  0.00  0.00    +0.000 A 
ATOM     24  N   UNL     1      12.924  49.476  46.243  0.00  0.00    +0.000 N 
ATOM     25  C   UNL     1      13.427  50.197  45.192  0.00  0.00    +0.000 A 
ATOM     26  C   UNL     1      13.513  49.356  44.107  0.00  0.00    +0.000 A 
ATOM     27  C   UNL     1      13.051  48.074  44.514  0.00  0.00    +0.000 A 
ATOM     28  C   UNL     1      12.902  46.837  43.859  0.00  0.00    +0.000 A 
ATOM     29  H   UNL     1      12.745  49.843  47.168  0.00  0.00    +0.000 HD
ENDBRANCH   2  20
TORSDOF 2
ENDMDL
MODEL 2
REMARK VINA RESULT:    -6.068      3.683      8.894
REMARK INTER + INTRA:          -6.566
REMARK INTER:                  -6.578
REMARK INTRA:                   0.012
REMARK UNBOUND:                 0.212
REMARK  Name = 
REMARK  2 active torsions:
REMARK  status: ('A' for Active; 'I' for Inactive)
REMARK    1  A    between atoms: C_2  and  C_3
REMARK    2  A    between atoms: C_15  and  N_16
REMARK                            x       y       z     vdW  Elec       q    Type
REMARK                         _______ _______ _______ _____ _____    ______ ____
ROOT
ATOM      1  O   UNL     1      16.317  43.354  43.204  0.00  0.00    +0.000 OA
ATOM      2  C   UNL     1      15.147  43.566  42.892  0.00  0.00    +0.000 C 
ATOM      3  N   UNL     1      14.286  44.400  43.609  0.00  0.00    +0.000 N 
ATOM      4  C   UNL     1      14.805  45.060  44.805  0.00  0.00    +0.000 C 
ATOM      5  C   UNL     1      13.720  45.219  45.864  0.00  0.00    +0.000 C 
ATOM      6  C   UNL     1      12.434  45.880  45.313  0.00  0.00    +0.000 C 
ATOM      7  C   UNL     1      12.492  46.119  43.797  0.00  0.00    +0.000 C 
ATOM      8  C   UNL     1      13.011  44.881  43.076  0.00  0.00    +0.000 C 
ENDROOT
BRANCH   6   9
ATOM      9  N   UNL     1      12.035  47.102  46.046  0.00  0.00    +0.000 N 
ATOM     10  C   UNL     1      11.089  46.981  47.076  0.00  0.00    +0.000 C 
ATOM     11  O   UNL     1      10.595  45.908  47.412  0.00  0.00    +0.000 OA
ATOM     12  O   UNL     1      10.739  48.108  47.755  0.00  0.00    +0.000 OA
ATOM     13  C   UNL     1      10.881  49.369  47.110  0.00  0.00    +0.000 C 
ATOM     14  C   UNL     1      12.192  49.483  46.416  0.00  0.00    +0.000 A 
ATOM     15  C   UNL     1      12.819  50.728  46.255  0.00  0.00    +0.000 A 
ATOM     16  C   UNL     1      14.010  50.825  45.544  0.00  0.00    +0.000 A 
ATOM     17  C   UNL     1      14.571  49.681  44.987  0.00  0.00    +0.000 A 
ATOM     18  C   UNL     1      13.939  48.442  45.137  0.00  0.00    +0.000 A 
ATOM     19  C   UNL     1      12.737  48.329  45.851  0.00  0.00    +0.000 A 
ENDBRANCH   6   9
BRANCH   2  20
ATOM     20  C   UNL     1      14.629  42.892  41.682  0.00  0.00    +0.000 A 
ATOM     21  C   UNL     1      14.127  41.592  41.763  0.00  0.00    +0.000 A 
ATOM     22  C   UNL     1      13.642  40.943  40.623  0.00  0.00    +0.000 A 
ATOM     23  C   UNL     1      13.695  41.642  39.410  0.00  0.00    +0.000 A 
ATOM     24  N   UNL     1      13.302  41.258  38.147  0.00  0.00    +0.000 N 
ATOM     25  C   UNL     1      13.549  42.263  37.249  0.00  0.00    +0.000 A 
ATOM     26  C   UNL     1      14.115  43.312  37.935  0.00  0.00    +0.000 A 
ATOM     27  C   UNL     1      14.213  42.935  39.303  0.00  0.00    +0.000 A 
ATOM     28  C   UNL     1      14.700  43.572  40.459  0.00  0.00    +0.000 A 
ATOM     29  H   UNL     1      12.896  40.361  37.920  0.00  0.00    +0.000 HD
ENDBRANCH   2  20
TORSDOF 2
ENDMDL
MODEL 3
REMARK VINA RESULT:    -6.050      7.288     11.435
REMARK INTER + INTRA:          -6.545
REMARK INTER:                  -6.757
REMARK INTRA:                   0.212
REMARK UNBOUND:                 0.212
REMARK  Name = 
REMARK  2 active torsions:
REMARK  status: ('A' for Active; 'I' for Inactive)
REMARK    1  A    between atoms: C_2  and  C_3
REMARK    2  A    between atoms: C_15  and  N_16
REMARK                            x       y       z     vdW  Elec       q    Type
REMARK                         _______ _______ _______ _____ _____    ______ ____
ROOT
ATOM      1  O   UNL     1      17.984  34.337  47.423  0.00  0.00    +0.000 OA
ATOM      2  C   UNL     1      18.269  35.203  48.247  0.00  0.00    +0.000 C 
ATOM      3  N   UNL     1      19.219  35.037  49.258  0.00  0.00    +0.000 N 
ATOM      4  C   UNL     1      19.915  33.755  49.344  0.00  0.00    +0.000 C 
ATOM      5  C   UNL     1      20.237  33.395  50.790  0.00  0.00    +0.000 C 
ATOM      6  C   UNL     1      20.961  34.534  51.547  0.00  0.00    +0.000 C 
ATOM      7  C   UNL     1      21.088  35.816  50.709  0.00  0.00    +0.000 C 
ATOM      8  C   UNL     1      19.765  36.151  50.033  0.00  0.00    +0.000 C 
ENDROOT
BRANCH   6   9
ATOM      9  N   UNL     1      22.260  34.127  52.127  0.00  0.00    +0.000 N 
ATOM     10  C   UNL     1      23.341  33.919  51.256  0.00  0.00    +0.000 C 
ATOM     11  O   UNL     1      23.267  34.081  50.041  0.00  0.00    +0.000 OA
ATOM     12  O   UNL     1      24.536  33.559  51.800  0.00  0.00    +0.000 OA
ATOM     13  C   UNL     1      24.545  32.899  53.061  0.00  0.00    +0.000 C 
ATOM     14  C   UNL     1      23.633  33.562  54.031  0.00  0.00    +0.000 A 
ATOM     15  C   UNL     1      23.894  33.527  55.409  0.00  0.00    +0.000 A 
ATOM     16  C   UNL     1      22.996  34.093  56.307  0.00  0.00    +0.000 A 
ATOM     17  C   UNL     1      21.832  34.686  55.830  0.00  0.00    +0.000 A 
ATOM     18  C   UNL     1      21.566  34.710  54.456  0.00  0.00    +0.000 A 
ATOM     19  C   UNL     1      22.463  34.143  53.540  0.00  0.00    +0.000 A 
ENDBRANCH   6   9
BRANCH   2  20
ATOM     20  C   UNL     1      17.557  36.496  48.155  0.00  0.00    +0.000 A 
ATOM     21  C   UNL     1      16.876  37.002  49.264  0.00  0.00    +0.000 A 
ATOM     22  C   UNL     1      16.192  38.219  49.185  0.00  0.00    +0.000 A 
ATOM     23  C   UNL     1      16.212  38.892  47.956  0.00  0.00    +0.000 A 
ATOM     24  N   UNL     1      15.631  40.086  47.589  0.00  0.00    +0.000 N 
ATOM     25  C   UNL     1      15.902  40.360  46.274  0.00  0.00    +0.000 A 
ATOM     26  C   UNL     1      16.665  39.329  45.777  0.00  0.00    +0.000 A 
ATOM     27  C   UNL     1      16.869  38.393  46.829  0.00  0.00    +0.000 A 
ATOM     28  C   UNL     1      17.549  37.165  46.925  0.00  0.00    +0.000 A 
ATOM     29  H   UNL     1      15.080  40.669  48.203  0.00  0.00    +0.000 HD
ENDBRANCH   2  20
TORSDOF 2
ENDMDL
