MODEL 1
REMARK VINA RESULT:    -7.542      0.000      0.000
REMARK INTER + INTRA:         -10.642
REMARK INTER:                  -9.432
REMARK INTRA:                  -1.210
REMARK UNBOUND:                -1.337
REMARK  Name = 
REMARK  15 active torsions:
REMARK  status: ('A' for Active; 'I' for Inactive)
REMARK    1  A    between atoms: C_2  and  C_3
REMARK    2  A    between atoms: C_2  and  C_4
REMARK    3  A    between atoms: C_16  and  C_17
REMARK    4  A    between atoms: C_22  and  C_23
REMARK    5  A    between atoms: C_22  and  C_24
REMARK    6  A    between atoms: C_25  and  C_26
REMARK    7  A    between atoms: N_28  and  C_29
REMARK    8  A    between atoms: N_28  and  C_30
REMARK    9  A    between atoms: C_31  and  O_32
REMARK   10  A    between atoms: C_35  and  C_36
REMARK   11  A    between atoms: C_40  and  C_41
REMARK   12  A    between atoms: C_40  and  C_42
REMARK   13  A    between atoms: C_44  and  C_45
REMARK   14  A    between atoms: C_44  and  C_46
REMARK   15  A    between atoms: C_48  and  O_49
REMARK                            x       y       z     vdW  Elec       q    Type
REMARK                         _______ _______ _______ _____ _____    ______ ____
ROOT
ATOM      1  C   UNL     1      11.718  42.318  54.128  0.00  0.00    +0.000 C 
ATOM      2  C   UNL     1      10.931  43.705  54.074  0.00  0.00    +0.000 C 
ATOM      3  O   UNL     1       9.742  43.925  54.222  0.00  0.00    +0.000 OA
ATOM      4  C   UNL     1      11.920  44.769  53.856  0.00  0.00    +0.000 A 
ATOM      5  C   UNL     1      11.960  46.131  53.747  0.00  0.00    +0.000 A 
ATOM      6  C   UNL     1      13.212  46.754  53.548  0.00  0.00    +0.000 A 
ATOM      7  C   UNL     1      14.425  46.035  53.402  0.00  0.00    +0.000 A 
ATOM      8  C   UNL     1      14.348  44.632  53.491  0.00  0.00    +0.000 A 
ATOM      9  C   UNL     1      15.134  43.469  53.356  0.00  0.00    +0.000 A 
ATOM     10  C   UNL     1      14.335  42.324  53.531  0.00  0.00    +0.000 A 
ATOM     11  N   UNL     1      13.103  42.742  53.861  0.00  0.00    +0.000 N 
ATOM     12  C   UNL     1      13.110  44.109  53.744  0.00  0.00    +0.000 A 
ATOM     13  C   UNL     1      15.066  41.051  53.165  0.00  0.00    +0.000 C 
ATOM     14  C   UNL     1      14.795  40.853  51.638  0.00  0.00    +0.000 C 
ATOM     15  C   UNL     1      16.542  41.616  53.433  0.00  0.00    +0.000 C 
ATOM     16  C   UNL     1      17.620  40.694  52.907  0.00  0.00    +0.000 C 
ATOM     17  C   UNL     1      17.499  39.338  53.624  0.00  0.00    +0.000 C 
ATOM     18  C   UNL     1      16.074  38.713  53.549  0.00  0.00    +0.000 C 
ATOM     19  C   UNL     1      15.990  37.242  54.130  0.00  0.00    +0.000 C 
ATOM     20  C   UNL     1      16.375  37.160  55.623  0.00  0.00    +0.000 C 
ATOM     21  C   UNL     1      14.548  36.684  53.893  0.00  0.00    +0.000 C 
ATOM     22  C   UNL     1      13.430  37.625  54.334  0.00  0.00    +0.000 C 
ATOM     23  C   UNL     1      13.567  39.008  53.704  0.00  0.00    +0.000 C 
ATOM     24  C   UNL     1      14.912  39.718  54.005  0.00  0.00    +0.000 C 
ATOM     25  C   UNL     1      14.989  40.051  55.519  0.00  0.00    +0.000 C 
ATOM     26  C   UNL     1      16.533  43.111  52.986  0.00  0.00    +0.000 C 
ATOM     27  C   UNL     1      12.983  48.190  53.521  0.00  0.00    +0.000 C 
ATOM     28  C   UNL     1      13.857  49.199  53.593  0.00  0.00    +0.000 C 
ATOM     29  C   UNL     1      13.395  50.642  53.652  0.00  0.00    +0.000 C 
ATOM     30  C   UNL     1      13.801  51.340  52.342  0.00  0.00    +0.000 C 
ATOM     31  C   UNL     1      14.053  51.381  54.825  0.00  0.00    +0.000 C 
ATOM     32  O   UNL     1      11.963  50.804  53.745  0.00  0.00    +0.000 OA
ATOM     33  C   UNL     1      11.177  49.721  54.307  0.00  0.00    +0.000 C 
ATOM     34  C   UNL     1       9.715  50.135  54.062  0.00  0.00    +0.000 C 
ATOM     35  C   UNL     1      11.413  49.641  55.825  0.00  0.00    +0.000 C 
ATOM     36  C   UNL     1      11.490  48.445  53.501  0.00  0.00    +0.000 C 
ATOM     37  C   UNL     1      10.818  47.093  53.845  0.00  0.00    +0.000 C 
ENDROOT
BRANCH   1  39
ATOM     38  C   UNL     1      12.071  42.192  56.601  0.00  0.00    +0.000 C 
ATOM     39  C   UNL     1      11.493  41.693  55.493  0.00  0.00    +0.000 C 
ATOM     40  C   UNL     1      10.659  40.437  55.573  0.00  0.00    +0.000 C 
ENDBRANCH   1  39
BRANCH  19  41
ATOM     41  C   UNL     1      16.931  36.349  53.289  0.00  0.00    +0.000 C 
ATOM     42  C   UNL     1      18.053  35.717  53.681  0.00  0.00    +0.000 C 
BRANCH  42  43
ATOM     43  C   UNL     1      18.830  34.905  52.702  0.00  0.00    +0.000 C 
ATOM     44  O   UNL     1      18.371  34.694  51.578  0.00  0.00    +0.000 OA
ATOM     45  N   UNL     1      20.068  34.445  53.124  0.00  0.00    +0.000 N 
ATOM     46  C   UNL     1      20.952  33.829  52.148  0.00  0.00    +0.000 C 
ATOM     47  C   UNL     1      20.620  34.650  54.457  0.00  0.00    +0.000 C 
ENDBRANCH  42  43
ENDBRANCH  19  41
BRANCH  21  48
ATOM     48  O   UNL     1      14.375  35.432  54.568  0.00  0.00    +0.000 OA
ATOM     49  H   UNL     1      15.259  35.090  54.784  0.00  0.00    +0.000 HD
ENDBRANCH  21  48
BRANCH  37  50
ATOM     50  O   UNL     1      10.247  47.011  55.136  0.00  0.00    +0.000 OA
ATOM     51  H   UNL     1      10.764  47.615  55.703  0.00  0.00    +0.000 HD
ENDBRANCH  37  50
TORSDOF 5
ENDMDL
MODEL 2
REMARK VINA RESULT:    -7.241      7.766     10.249
REMARK INTER + INTRA:         -10.271
REMARK INTER:                  -9.060
REMARK INTRA:                  -1.211
REMARK UNBOUND:                -1.337
REMARK  Name = 
REMARK  15 active torsions:
REMARK  status: ('A' for Active; 'I' for Inactive)
REMARK    1  A    between atoms: C_2  and  C_3
REMARK    2  A    between atoms: C_2  and  C_4
REMARK    3  A    between atoms: C_16  and  C_17
REMARK    4  A    between atoms: C_22  and  C_23
REMARK    5  A    between atoms: C_22  and  C_24
REMARK    6  A    between atoms: C_25  and  C_26
REMARK    7  A    between atoms: N_28  and  C_29
REMARK    8  A    between atoms: N_28  and  C_30
REMARK    9  A    between atoms: C_31  and  O_32
REMARK   10  A    between atoms: C_35  and  C_36
REMARK   11  A    between atoms: C_40  and  C_41
REMARK   12  A    between atoms: C_40  and  C_42
REMARK   13  A    between atoms: C_44  and  C_45
REMARK   14  A    between atoms: C_44  and  C_46
REMARK   15  A    between atoms: C_48  and  O_49
REMARK                            x       y       z     vdW  Elec       q    Type
REMARK                         _______ _______ _______ _____ _____    ______ ____
ROOT
ATOM      1  C   UNL     1      18.947  35.397  47.333  0.00  0.00    +0.000 C 
ATOM      2  C   UNL     1      18.595  36.265  46.040  0.00  0.00    +0.000 C 
ATOM      3  O   UNL     1      18.878  36.062  44.873  0.00  0.00    +0.000 OA
ATOM      4  C   UNL     1      17.777  37.403  46.479  0.00  0.00    +0.000 A 
ATOM      5  C   UNL     1      17.126  38.475  45.933  0.00  0.00    +0.000 A 
ATOM      6  C   UNL     1      16.414  39.338  46.793  0.00  0.00    +0.000 A 
ATOM      7  C   UNL     1      16.381  39.182  48.202  0.00  0.00    +0.000 A 
ATOM      8  C   UNL     1      17.083  38.086  48.737  0.00  0.00    +0.000 A 
ATOM      9  C   UNL     1      17.457  37.503  49.965  0.00  0.00    +0.000 A 
ATOM     10  C   UNL     1      18.268  36.377  49.738  0.00  0.00    +0.000 A 
ATOM     11  N   UNL     1      18.332  36.190  48.410  0.00  0.00    +0.000 N 
ATOM     12  C   UNL     1      17.698  37.262  47.834  0.00  0.00    +0.000 A 
ATOM     13  C   UNL     1      18.894  35.851  51.011  0.00  0.00    +0.000 C 
ATOM     14  C   UNL     1      20.238  36.634  51.156  0.00  0.00    +0.000 C 
ATOM     15  C   UNL     1      17.771  36.421  52.003  0.00  0.00    +0.000 C 
ATOM     16  C   UNL     1      18.182  36.332  53.456  0.00  0.00    +0.000 C 
ATOM     17  C   UNL     1      18.416  34.853  53.811  0.00  0.00    +0.000 C 
ATOM     18  C   UNL     1      19.406  34.126  52.853  0.00  0.00    +0.000 C 
ATOM     19  C   UNL     1      19.784  32.660  53.318  0.00  0.00    +0.000 C 
ATOM     20  C   UNL     1      18.562  31.720  53.404  0.00  0.00    +0.000 C 
ATOM     21  C   UNL     1      20.866  32.083  52.347  0.00  0.00    +0.000 C 
ATOM     22  C   UNL     1      20.524  32.232  50.867  0.00  0.00    +0.000 C 
ATOM     23  C   UNL     1      20.206  33.677  50.496  0.00  0.00    +0.000 C 
ATOM     24  C   UNL     1      19.038  34.301  51.303  0.00  0.00    +0.000 C 
ATOM     25  C   UNL     1      17.715  33.581  50.933  0.00  0.00    +0.000 C 
ATOM     26  C   UNL     1      17.320  37.796  51.421  0.00  0.00    +0.000 C 
ATOM     27  C   UNL     1      15.779  40.350  45.963  0.00  0.00    +0.000 C 
ATOM     28  C   UNL     1      14.824  41.234  46.269  0.00  0.00    +0.000 C 
ATOM     29  C   UNL     1      14.221  42.144  45.216  0.00  0.00    +0.000 C 
ATOM     30  C   UNL     1      14.648  43.591  45.515  0.00  0.00    +0.000 C 
ATOM     31  C   UNL     1      12.689  42.070  45.239  0.00  0.00    +0.000 C 
ATOM     32  O   UNL     1      14.678  41.879  43.871  0.00  0.00    +0.000 OA
ATOM     33  C   UNL     1      15.166  40.550  43.553  0.00  0.00    +0.000 C 
ATOM     34  C   UNL     1      15.753  40.681  42.136  0.00  0.00    +0.000 C 
ATOM     35  C   UNL     1      13.988  39.562  43.503  0.00  0.00    +0.000 C 
ATOM     36  C   UNL     1      16.296  40.214  44.547  0.00  0.00    +0.000 C 
ATOM     37  C   UNL     1      17.037  38.855  44.488  0.00  0.00    +0.000 C 
ENDROOT
BRANCH   1  39
ATOM     38  C   UNL     1      17.040  33.779  47.248  0.00  0.00    +0.000 C 
ATOM     39  C   UNL     1      18.363  34.007  47.149  0.00  0.00    +0.000 C 
ATOM     40  C   UNL     1      19.316  32.858  46.927  0.00  0.00    +0.000 C 
ENDBRANCH   1  39
BRANCH  19  41
ATOM     41  C   UNL     1      20.470  32.766  54.699  0.00  0.00    +0.000 C 
ATOM     42  C   UNL     1      21.315  33.717  55.140  0.00  0.00    +0.000 C 
BRANCH  42  43
ATOM     43  C   UNL     1      21.880  33.630  56.516  0.00  0.00    +0.000 C 
ATOM     44  O   UNL     1      21.126  33.626  57.490  0.00  0.00    +0.000 OA
ATOM     45  N   UNL     1      23.260  33.532  56.614  0.00  0.00    +0.000 N 
ATOM     46  C   UNL     1      23.847  33.237  57.911  0.00  0.00    +0.000 C 
ATOM     47  C   UNL     1      24.177  33.569  55.483  0.00  0.00    +0.000 C 
ENDBRANCH  42  43
ENDBRANCH  19  41
BRANCH  21  48
ATOM     48  O   UNL     1      21.097  30.695  52.618  0.00  0.00    +0.000 OA
ATOM     49  H   UNL     1      20.908  30.201  51.803  0.00  0.00    +0.000 HD
ENDBRANCH  21  48
BRANCH  37  50
ATOM     50  O   UNL     1      16.371  37.830  43.776  0.00  0.00    +0.000 OA
ATOM     51  H   UNL     1      16.253  37.092  44.405  0.00  0.00    +0.000 HD
ENDBRANCH  37  50
TORSDOF 5
ENDMDL
MODEL 3
REMARK VINA RESULT:    -7.127      2.674     12.592
REMARK INTER + INTRA:         -10.131
REMARK INTER:                  -8.793
REMARK INTRA:                  -1.337
REMARK UNBOUND:                -1.337
REMARK  Name = 
REMARK  15 active torsions:
REMARK  status: ('A' for Active; 'I' for Inactive)
REMARK    1  A    between atoms: C_2  and  C_3
REMARK    2  A    between atoms: C_2  and  C_4
REMARK    3  A    between atoms: C_16  and  C_17
REMARK    4  A    between atoms: C_22  and  C_23
REMARK    5  A    between atoms: C_22  and  C_24
REMARK    6  A    between atoms: C_25  and  C_26
REMARK    7  A    between atoms: N_28  and  C_29
REMARK    8  A    between atoms: N_28  and  C_30
REMARK    9  A    between atoms: C_31  and  O_32
REMARK   10  A    between atoms: C_35  and  C_36
REMARK   11  A    between atoms: C_40  and  C_41
REMARK   12  A    between atoms: C_40  and  C_42
REMARK   13  A    between atoms: C_44  and  C_45
REMARK   14  A    between atoms: C_44  and  C_46
REMARK   15  A    between atoms: C_48  and  O_49
REMARK                            x       y       z     vdW  Elec       q    Type
REMARK                         _______ _______ _______ _____ _____    ______ ____
ROOT
ATOM      1  C   UNL     1      18.156  35.875  54.574  0.00  0.00    +0.000 C 
ATOM      2  C   UNL     1      19.462  34.964  54.464  0.00  0.00    +0.000 C 
ATOM      3  O   UNL     1      19.930  34.183  55.274  0.00  0.00    +0.000 OA
ATOM      4  C   UNL     1      20.040  35.177  53.131  0.00  0.00    +0.000 A 
ATOM      5  C   UNL     1      21.087  34.721  52.377  0.00  0.00    +0.000 A 
ATOM      6  C   UNL     1      21.244  35.227  51.069  0.00  0.00    +0.000 A 
ATOM      7  C   UNL     1      20.404  36.224  50.512  0.00  0.00    +0.000 A 
ATOM      8  C   UNL     1      19.352  36.694  51.322  0.00  0.00    +0.000 A 
ATOM      9  C   UNL     1      18.323  37.657  51.351  0.00  0.00    +0.000 A 
ATOM     10  C   UNL     1      17.648  37.605  52.585  0.00  0.00    +0.000 A 
ATOM     11  N   UNL     1      18.165  36.580  53.281  0.00  0.00    +0.000 N 
ATOM     12  C   UNL     1      19.230  36.112  52.554  0.00  0.00    +0.000 A 
ATOM     13  C   UNL     1      16.695  38.764  52.770  0.00  0.00    +0.000 C 
ATOM     14  C   UNL     1      17.552  39.892  53.429  0.00  0.00    +0.000 C 
ATOM     15  C   UNL     1      16.456  39.042  51.209  0.00  0.00    +0.000 C 
ATOM     16  C   UNL     1      15.740  40.350  50.956  0.00  0.00    +0.000 C 
ATOM     17  C   UNL     1      14.362  40.295  51.639  0.00  0.00    +0.000 C 
ATOM     18  C   UNL     1      14.424  39.917  53.149  0.00  0.00    +0.000 C 
ATOM     19  C   UNL     1      13.030  40.033  53.893  0.00  0.00    +0.000 C 
ATOM     20  C   UNL     1      11.951  39.101  53.301  0.00  0.00    +0.000 C 
ATOM     21  C   UNL     1      13.244  39.744  55.416  0.00  0.00    +0.000 C 
ATOM     22  C   UNL     1      14.039  38.474  55.709  0.00  0.00    +0.000 C 
ATOM     23  C   UNL     1      15.380  38.459  54.981  0.00  0.00    +0.000 C 
ATOM     24  C   UNL     1      15.271  38.588  53.440  0.00  0.00    +0.000 C 
ATOM     25  C   UNL     1      14.584  37.321  52.865  0.00  0.00    +0.000 C 
ATOM     26  C   UNL     1      17.817  38.769  50.496  0.00  0.00    +0.000 C 
ATOM     27  C   UNL     1      22.385  34.547  50.475  0.00  0.00    +0.000 C 
ATOM     28  C   UNL     1      22.787  34.501  49.201  0.00  0.00    +0.000 C 
ATOM     29  C   UNL     1      23.959  33.640  48.773  0.00  0.00    +0.000 C 
ATOM     30  C   UNL     1      25.116  34.560  48.349  0.00  0.00    +0.000 C 
ATOM     31  C   UNL     1      23.579  32.750  47.582  0.00  0.00    +0.000 C 
ATOM     32  O   UNL     1      24.497  32.805  49.822  0.00  0.00    +0.000 OA
ATOM     33  C   UNL     1      23.632  32.434  50.927  0.00  0.00    +0.000 C 
ATOM     34  C   UNL     1      24.566  31.743  51.937  0.00  0.00    +0.000 C 
ATOM     35  C   UNL     1      22.589  31.411  50.449  0.00  0.00    +0.000 C 
ATOM     36  C   UNL     1      23.079  33.733  51.547  0.00  0.00    +0.000 C 
ATOM     37  C   UNL     1      22.110  33.696  52.754  0.00  0.00    +0.000 C 
ENDROOT
BRANCH   1  39
ATOM     38  C   UNL     1      16.462  34.198  53.814  0.00  0.00    +0.000 C 
ATOM     39  C   UNL     1      16.959  34.969  54.800  0.00  0.00    +0.000 C 
ATOM     40  C   UNL     1      16.280  35.008  56.147  0.00  0.00    +0.000 C 
ENDBRANCH   1  39
BRANCH  19  41
ATOM     41  C   UNL     1      12.569  41.505  53.803  0.00  0.00    +0.000 C 
ATOM     42  C   UNL     1      13.229  42.612  54.191  0.00  0.00    +0.000 C 
BRANCH  42  43
ATOM     43  C   UNL     1      12.598  43.952  54.024  0.00  0.00    +0.000 C 
ATOM     44  O   UNL     1      11.389  44.088  54.213  0.00  0.00    +0.000 OA
ATOM     45  N   UNL     1      13.443  44.996  53.680  0.00  0.00    +0.000 N 
ATOM     46  C   UNL     1      12.922  46.352  53.708  0.00  0.00    +0.000 C 
ATOM     47  C   UNL     1      14.870  44.857  53.418  0.00  0.00    +0.000 C 
ENDBRANCH  42  43
ENDBRANCH  19  41
BRANCH  21  48
ATOM     48  O   UNL     1      11.985  39.653  56.093  0.00  0.00    +0.000 OA
ATOM     49  H   UNL     1      11.370  40.265  55.654  0.00  0.00    +0.000 HD
ENDBRANCH  21  48
BRANCH  37  50
ATOM     50  O   UNL     1      21.468  32.456  52.979  0.00  0.00    +0.000 OA
ATOM     51  H   UNL     1      21.599  32.247  53.924  0.00  0.00    +0.000 HD
ENDBRANCH  37  50
TORSDOF 5
ENDMDL
