MODEL 1
REMARK VINA RESULT:    -6.684      0.000      0.000
REMARK INTER + INTRA:          -9.640
REMARK INTER:                  -8.478
REMARK INTRA:                  -1.162
REMARK UNBOUND:                -1.003
REMARK  Name = 
REMARK  6 active torsions:
REMARK  status: ('A' for Active; 'I' for Inactive)
REMARK    1  A    between atoms: C_1  and  C_2
REMARK    2  A    between atoms: C_9  and  C_10
REMARK    3  A    between atoms: C_11  and  C_12
REMARK    4  A    between atoms: C_12  and  O_13
REMARK    5  A    between atoms: O_13  and  C_14
REMARK    6  A    between atoms: C_22  and  C_23
REMARK                            x       y       z     vdW  Elec       q    Type
REMARK                         _______ _______ _______ _____ _____    ______ ____
ROOT
ATOM      1  C   UNL     1      15.510  38.115  43.807  0.00  0.00    +0.000 C 
ATOM      2  C   UNL     1      16.016  39.427  43.338  0.00  0.00    +0.000 A 
ATOM      3  N   UNL     1      16.560  39.617  42.153  0.00  0.00    +0.000 NA
ATOM      4  N   UNL     1      16.848  40.942  42.016  0.00  0.00    +0.000 NA
ATOM      5  C   UNL     1      16.478  41.549  43.121  0.00  0.00    +0.000 A 
ATOM      6  N   UNL     1      15.918  40.646  44.006  0.00  0.00    +0.000 N 
ATOM      7  C   UNL     1      15.417  40.993  45.267  0.00  0.00    +0.000 A 
ATOM      8  S   UNL     1      15.362  39.833  46.503  0.00  0.00    +0.000 S 
ATOM      9  C   UNL     1      14.754  40.954  47.627  0.00  0.00    +0.000 A 
ATOM     10  C   UNL     1      14.578  42.194  47.055  0.00  0.00    +0.000 A 
ATOM     11  C   UNL     1      14.960  42.242  45.662  0.00  0.00    +0.000 A 
ATOM     12  C   UNL     1      14.786  43.409  44.788  0.00  0.00    +0.000 C 
ATOM     13  N   UNL     1      15.530  43.706  43.784  0.00  0.00    +0.000 NA
ATOM     14  C   UNL     1      16.744  42.958  43.488  0.00  0.00    +0.000 C 
ENDROOT
BRANCH  12  15
ATOM     15  C   UNL     1      13.626  44.283  45.066  0.00  0.00    +0.000 A 
ATOM     16  C   UNL     1      13.843  45.445  45.819  0.00  0.00    +0.000 A 
ATOM     17  C   UNL     1      12.771  46.288  46.111  0.00  0.00    +0.000 A 
ATOM     18  C   UNL     1      11.490  45.970  45.658  0.00  0.00    +0.000 A 
ATOM     19  C   UNL     1      11.276  44.807  44.912  0.00  0.00    +0.000 A 
ATOM     20  C   UNL     1      12.344  43.957  44.616  0.00  0.00    +0.000 A 
ATOM     21 CL   UNL     1      12.031  42.555  43.660  0.00  0.00    +0.000 Cl
ENDBRANCH  12  15
BRANCH   9  22
ATOM     22  C   UNL     1      14.459  40.631  48.982  0.00  0.00    +0.000 C 
ATOM     23  C   UNL     1      14.210  40.356  50.124  0.00  0.00    +0.000 C 
BRANCH  23  24
ATOM     24  C   UNL     1      13.909  40.020  51.521  0.00  0.00    +0.000 C 
BRANCH  24  25
ATOM     25  O   UNL     1      14.960  40.515  52.350  0.00  0.00    +0.000 OA
BRANCH  25  26
ATOM     26  C   UNL     1      14.869  41.817  52.761  0.00  0.00    +0.000 A 
ATOM     27  C   UNL     1      13.747  42.429  53.320  0.00  0.00    +0.000 A 
ATOM     28  C   UNL     1      13.795  43.776  53.697  0.00  0.00    +0.000 A 
ATOM     29  C   UNL     1      14.964  44.514  53.517  0.00  0.00    +0.000 A 
ATOM     30  C   UNL     1      16.085  43.909  52.958  0.00  0.00    +0.000 A 
ATOM     31  C   UNL     1      16.035  42.565  52.583  0.00  0.00    +0.000 A 
ENDBRANCH  25  26
ENDBRANCH  24  25
ENDBRANCH  23  24
ENDBRANCH   9  22
TORSDOF 5
ENDMDL
MODEL 2
REMARK VINA RESULT:    -6.187      4.197      7.738
REMARK INTER + INTRA:          -8.999
REMARK INTER:                  -8.096
REMARK INTRA:                  -0.903
REMARK UNBOUND:                -1.003
REMARK  Name = 
REMARK  6 active torsions:
REMARK  status: ('A' for Active; 'I' for Inactive)
REMARK    1  A    between atoms: C_1  and  C_2
REMARK    2  A    between atoms: C_9  and  C_10
REMARK    3  A    between atoms: C_11  and  C_12
REMARK    4  A    between atoms: C_12  and  O_13
REMARK    5  A    between atoms: O_13  and  C_14
REMARK    6  A    between atoms: C_22  and  C_23
REMARK                            x       y       z     vdW  Elec       q    Type
REMARK                         _______ _______ _______ _____ _____    ______ ____
ROOT
ATOM      1  C   UNL     1      17.882  36.703  49.185  0.00  0.00    +0.000 C 
ATOM      2  C   UNL     1      16.976  36.669  50.358  0.00  0.00    +0.000 A 
ATOM      3  N   UNL     1      17.049  35.758  51.308  0.00  0.00    +0.000 NA
ATOM      4  N   UNL     1      16.127  36.057  52.266  0.00  0.00    +0.000 NA
ATOM      5  C   UNL     1      15.498  37.148  51.890  0.00  0.00    +0.000 A 
ATOM      6  N   UNL     1      16.002  37.609  50.688  0.00  0.00    +0.000 N 
ATOM      7  C   UNL     1      15.545  38.761  50.037  0.00  0.00    +0.000 A 
ATOM      8  S   UNL     1      15.711  38.904  48.355  0.00  0.00    +0.000 S 
ATOM      9  C   UNL     1      14.921  40.409  48.333  0.00  0.00    +0.000 A 
ATOM     10  C   UNL     1      14.553  40.803  49.600  0.00  0.00    +0.000 A 
ATOM     11  C   UNL     1      14.913  39.848  50.623  0.00  0.00    +0.000 A 
ATOM     12  C   UNL     1      14.726  40.059  52.064  0.00  0.00    +0.000 C 
ATOM     13  N   UNL     1      14.519  39.135  52.933  0.00  0.00    +0.000 NA
ATOM     14  C   UNL     1      14.310  37.750  52.535  0.00  0.00    +0.000 C 
ENDROOT
BRANCH  12  15
ATOM     15  C   UNL     1      14.833  41.450  52.554  0.00  0.00    +0.000 A 
ATOM     16  C   UNL     1      16.099  42.052  52.560  0.00  0.00    +0.000 A 
ATOM     17  C   UNL     1      16.240  43.358  53.025  0.00  0.00    +0.000 A 
ATOM     18  C   UNL     1      15.124  44.059  53.486  0.00  0.00    +0.000 A 
ATOM     19  C   UNL     1      13.864  43.455  53.484  0.00  0.00    +0.000 A 
ATOM     20  C   UNL     1      13.714  42.146  53.020  0.00  0.00    +0.000 A 
ATOM     21 CL   UNL     1      12.130  41.461  53.004  0.00  0.00    +0.000 Cl
ENDBRANCH  12  15
BRANCH   9  22
ATOM     22  C   UNL     1      14.687  41.158  47.145  0.00  0.00    +0.000 C 
ATOM     23  C   UNL     1      14.489  41.793  46.144  0.00  0.00    +0.000 C 
BRANCH  23  24
ATOM     24  C   UNL     1      14.252  42.569  44.921  0.00  0.00    +0.000 C 
BRANCH  24  25
ATOM     25  O   UNL     1      14.731  43.898  45.118  0.00  0.00    +0.000 OA
BRANCH  25  26
ATOM     26  C   UNL     1      13.843  44.813  45.616  0.00  0.00    +0.000 A 
ATOM     27  C   UNL     1      12.662  44.528  46.300  0.00  0.00    +0.000 A 
ATOM     28  C   UNL     1      11.845  45.568  46.756  0.00  0.00    +0.000 A 
ATOM     29  C   UNL     1      12.205  46.895  46.529  0.00  0.00    +0.000 A 
ATOM     30  C   UNL     1      13.382  47.186  45.845  0.00  0.00    +0.000 A 
ATOM     31  C   UNL     1      14.196  46.146  45.391  0.00  0.00    +0.000 A 
ENDBRANCH  25  26
ENDBRANCH  24  25
ENDBRANCH  23  24
ENDBRANCH   9  22
TORSDOF 5
ENDMDL
MODEL 3
REMARK VINA RESULT:    -6.033      2.476      3.274
REMARK INTER + INTRA:          -8.799
REMARK INTER:                  -7.797
REMARK INTRA:                  -1.003
REMARK UNBOUND:                -1.003
REMARK  Name = 
REMARK  6 active torsions:
REMARK  status: ('A' for Active; 'I' for Inactive)
REMARK    1  A    between atoms: C_1  and  C_2
REMARK    2  A    between atoms: C_9  and  C_10
REMARK    3  A    between atoms: C_11  and  C_12
REMARK    4  A    between atoms: C_12  and  O_13
REMARK    5  A    between atoms: O_13  and  C_14
REMARK    6  A    between atoms: C_22  and  C_23
REMARK                            x       y       z     vdW  Elec       q    Type
REMARK                         _______ _______ _______ _____ _____    ______ ____
ROOT
ATOM      1  C   UNL     1      13.741  39.112  40.584  0.00  0.00    +0.000 C 
ATOM      2  C   UNL     1      14.001  40.549  40.325  0.00  0.00    +0.000 A 
ATOM      3  N   UNL     1      13.777  41.132  39.164  0.00  0.00    +0.000 NA
ATOM      4  N   UNL     1      14.052  42.461  39.287  0.00  0.00    +0.000 NA
ATOM      5  C   UNL     1      14.445  42.676  40.522  0.00  0.00    +0.000 A 
ATOM      6  N   UNL     1      14.418  41.501  41.251  0.00  0.00    +0.000 N 
ATOM      7  C   UNL     1      14.771  41.411  42.604  0.00  0.00    +0.000 A 
ATOM      8  S   UNL     1      15.333  39.941  43.234  0.00  0.00    +0.000 S 
ATOM      9  C   UNL     1      15.590  40.616  44.773  0.00  0.00    +0.000 A 
ATOM     10  C   UNL     1      15.231  41.945  44.805  0.00  0.00    +0.000 A 
ATOM     11  C   UNL     1      14.741  42.437  43.537  0.00  0.00    +0.000 A 
ATOM     12  C   UNL     1      14.202  43.785  43.317  0.00  0.00    +0.000 C 
ATOM     13  N   UNL     1      14.255  44.437  42.212  0.00  0.00    +0.000 NA
ATOM     14  C   UNL     1      15.001  43.935  41.067  0.00  0.00    +0.000 C 
ENDROOT
BRANCH  12  15
ATOM     15  C   UNL     1      13.501  44.417  44.455  0.00  0.00    +0.000 A 
ATOM     16  C   UNL     1      14.070  45.564  45.025  0.00  0.00    +0.000 A 
ATOM     17  C   UNL     1      13.444  46.180  46.107  0.00  0.00    +0.000 A 
ATOM     18  C   UNL     1      12.258  45.653  46.620  0.00  0.00    +0.000 A 
ATOM     19  C   UNL     1      11.696  44.505  46.054  0.00  0.00    +0.000 A 
ATOM     20  C   UNL     1      12.318  43.881  44.970  0.00  0.00    +0.000 A 
ATOM     21 CL   UNL     1      11.562  42.489  44.285  0.00  0.00    +0.000 Cl
ENDBRANCH  12  15
BRANCH   9  22
ATOM     22  C   UNL     1      16.103  39.882  45.880  0.00  0.00    +0.000 C 
ATOM     23  C   UNL     1      16.533  39.263  46.816  0.00  0.00    +0.000 C 
BRANCH  23  24
ATOM     24  C   UNL     1      17.059  38.504  47.956  0.00  0.00    +0.000 C 
BRANCH  24  25
ATOM     25  O   UNL     1      16.084  38.505  48.999  0.00  0.00    +0.000 OA
BRANCH  25  26
ATOM     26  C   UNL     1      16.320  39.321  50.071  0.00  0.00    +0.000 A 
ATOM     27  C   UNL     1      17.449  39.302  50.890  0.00  0.00    +0.000 A 
ATOM     28  C   UNL     1      17.559  40.200  51.957  0.00  0.00    +0.000 A 
ATOM     29  C   UNL     1      16.542  41.119  52.209  0.00  0.00    +0.000 A 
ATOM     30  C   UNL     1      15.412  41.142  51.397  0.00  0.00    +0.000 A 
ATOM     31  C   UNL     1      15.305  40.245  50.332  0.00  0.00    +0.000 A 
ENDBRANCH  25  26
ENDBRANCH  24  25
ENDBRANCH  23  24
ENDBRANCH   9  22
TORSDOF 5
ENDMDL
