MODEL 1
REMARK VINA RESULT:    -6.177      0.000      0.000
REMARK INTER + INTRA:          -9.019
REMARK INTER:                  -7.943
REMARK INTRA:                  -1.076
REMARK UNBOUND:                -1.037
REMARK  Name = 
REMARK  6 active torsions:
REMARK  status: ('A' for Active; 'I' for Inactive)
REMARK    1  A    between atoms: C_1  and  N_2
REMARK    2  A    between atoms: C_7  and  C_8
REMARK    3  A    between atoms: N_10  and  C_11
REMARK    4  A    between atoms: C_11  and  C_12
REMARK    5  A    between atoms: N_16  and  C_17
REMARK    6  A    between atoms: C_17  and  C_18
REMARK                            x       y       z     vdW  Elec       q    Type
REMARK                         _______ _______ _______ _____ _____    ______ ____
ROOT
ATOM      1  C   UNL     1      14.709  40.669  47.943  0.00  0.00    +0.000 C 
ATOM      2  O   UNL     1      13.604  40.968  48.389  0.00  0.00    +0.000 OA
ATOM      3  N   UNL     1      15.636  39.967  48.673  0.00  0.00    +0.000 N 
ATOM      4  H   UNL     1      16.468  39.654  48.186  0.00  0.00    +0.000 HD
ENDROOT
BRANCH   1  11
ATOM      5  C   UNL     1      17.286  40.337  42.200  0.00  0.00    +0.000 C 
ATOM      6  N   UNL     1      16.491  39.782  43.291  0.00  0.00    +0.000 N 
ATOM      7  C   UNL     1      16.946  38.498  43.830  0.00  0.00    +0.000 C 
ATOM      8  C   UNL     1      15.922  37.985  44.828  0.00  0.00    +0.000 C 
ATOM      9  O   UNL     1      15.830  38.874  45.945  0.00  0.00    +0.000 OA
ATOM     10  C   UNL     1      15.618  40.188  45.571  0.00  0.00    +0.000 A 
ATOM     11  C   UNL     1      15.083  41.063  46.544  0.00  0.00    +0.000 A 
ATOM     12  C   UNL     1      14.842  42.400  46.199  0.00  0.00    +0.000 A 
ATOM     13  C   UNL     1      15.135  42.854  44.920  0.00  0.00    +0.000 A 
ATOM     14 CL   UNL     1      14.818  44.494  44.504  0.00  0.00    +0.000 Cl
ATOM     15  C   UNL     1      15.682  41.996  43.967  0.00  0.00    +0.000 A 
ATOM     16  C   UNL     1      15.955  40.651  44.265  0.00  0.00    +0.000 A 
ENDBRANCH   1  11
BRANCH   3  17
ATOM     17  C   UNL     1      15.336  39.344  49.951  0.00  0.00    +0.000 C 
BRANCH  17  18
ATOM     18  C   UNL     1      16.590  39.163  50.832  0.00  0.00    +0.000 C 
ATOM     19  C   UNL     1      16.700  37.737  51.397  0.00  0.00    +0.000 C 
ATOM     20  C   UNL     1      17.317  37.890  52.785  0.00  0.00    +0.000 C 
ATOM     21  C   UNL     1      17.657  39.367  52.903  0.00  0.00    +0.000 C 
ATOM     22  N   UNL     1      16.642  39.978  52.056  0.00  0.00    +0.000 NA
BRANCH  22  23
ATOM     23  C   UNL     1      16.759  41.425  51.871  0.00  0.00    +0.000 C 
BRANCH  23  24
ATOM     24  C   UNL     1      15.706  42.297  52.526  0.00  0.00    +0.000 A 
ATOM     25  C   UNL     1      14.387  41.842  52.676  0.00  0.00    +0.000 A 
ATOM     26  C   UNL     1      13.422  42.648  53.284  0.00  0.00    +0.000 A 
ATOM     27  C   UNL     1      13.760  43.921  53.743  0.00  0.00    +0.000 A 
ATOM     28  C   UNL     1      15.062  44.393  53.586  0.00  0.00    +0.000 A 
ATOM     29  C   UNL     1      16.028  43.588  52.978  0.00  0.00    +0.000 A 
ENDBRANCH  23  24
ENDBRANCH  22  23
ENDBRANCH  17  18
ENDBRANCH   3  17
TORSDOF 5
ENDMDL
MODEL 2
REMARK VINA RESULT:    -6.067      5.213      9.047
REMARK INTER + INTRA:          -8.878
REMARK INTER:                  -7.752
REMARK INTRA:                  -1.125
REMARK UNBOUND:                -1.037
REMARK  Name = 
REMARK  6 active torsions:
REMARK  status: ('A' for Active; 'I' for Inactive)
REMARK    1  A    between atoms: C_1  and  N_2
REMARK    2  A    between atoms: C_7  and  C_8
REMARK    3  A    between atoms: N_10  and  C_11
REMARK    4  A    between atoms: C_11  and  C_12
REMARK    5  A    between atoms: N_16  and  C_17
REMARK    6  A    between atoms: C_17  and  C_18
REMARK                            x       y       z     vdW  Elec       q    Type
REMARK                         _______ _______ _______ _____ _____    ______ ____
ROOT
ATOM      1  C   UNL     1      14.512  44.277  45.483  0.00  0.00    +0.000 C 
ATOM      2  O   UNL     1      14.906  43.329  46.159  0.00  0.00    +0.000 OA
ATOM      3  N   UNL     1      15.060  44.595  44.265  0.00  0.00    +0.000 N 
ATOM      4  H   UNL     1      14.592  45.309  43.719  0.00  0.00    +0.000 HD
ENDROOT
BRANCH   1  11
ATOM      5  C   UNL     1      11.254  49.443  47.041  0.00  0.00    +0.000 C 
ATOM      6  N   UNL     1      12.061  48.658  46.111  0.00  0.00    +0.000 N 
ATOM      7  C   UNL     1      13.295  49.289  45.639  0.00  0.00    +0.000 C 
ATOM      8  C   UNL     1      13.918  48.421  44.559  0.00  0.00    +0.000 C 
ATOM      9  O   UNL     1      14.303  47.155  45.104  0.00  0.00    +0.000 OA
ATOM     10  C   UNL     1      13.277  46.527  45.785  0.00  0.00    +0.000 A 
ATOM     11  C   UNL     1      13.382  45.131  45.978  0.00  0.00    +0.000 A 
ATOM     12  C   UNL     1      12.355  44.457  46.654  0.00  0.00    +0.000 A 
ATOM     13  C   UNL     1      11.256  45.159  47.131  0.00  0.00    +0.000 A 
ATOM     14 CL   UNL     1       9.994  44.317  47.943  0.00  0.00    +0.000 Cl
ATOM     15  C   UNL     1      11.162  46.539  46.958  0.00  0.00    +0.000 A 
ATOM     16  C   UNL     1      12.169  47.264  46.300  0.00  0.00    +0.000 A 
ENDBRANCH   1  11
BRANCH   3  17
ATOM     17  C   UNL     1      16.008  43.739  43.572  0.00  0.00    +0.000 C 
BRANCH  17  18
ATOM     18  C   UNL     1      15.463  43.218  42.225  0.00  0.00    +0.000 C 
ATOM     19  C   UNL     1      14.061  43.771  41.914  0.00  0.00    +0.000 C 
ATOM     20  C   UNL     1      13.330  42.649  41.181  0.00  0.00    +0.000 C 
ATOM     21  C   UNL     1      14.375  41.562  40.983  0.00  0.00    +0.000 C 
ATOM     22  N   UNL     1      15.243  41.766  42.135  0.00  0.00    +0.000 NA
BRANCH  22  23
ATOM     23  C   UNL     1      16.438  40.922  42.185  0.00  0.00    +0.000 C 
BRANCH  23  24
ATOM     24  C   UNL     1      16.580  39.989  43.370  0.00  0.00    +0.000 A 
ATOM     25  C   UNL     1      17.132  38.708  43.216  0.00  0.00    +0.000 A 
ATOM     26  C   UNL     1      17.265  37.853  44.313  0.00  0.00    +0.000 A 
ATOM     27  C   UNL     1      16.841  38.265  45.576  0.00  0.00    +0.000 A 
ATOM     28  C   UNL     1      16.274  39.527  45.742  0.00  0.00    +0.000 A 
ATOM     29  C   UNL     1      16.142  40.383  44.646  0.00  0.00    +0.000 A 
ENDBRANCH  23  24
ENDBRANCH  22  23
ENDBRANCH  17  18
ENDBRANCH   3  17
TORSDOF 5
ENDMDL
MODEL 3
REMARK VINA RESULT:    -6.003      1.877      2.996
REMARK INTER + INTRA:          -8.795
REMARK INTER:                  -7.758
REMARK INTRA:                  -1.037
REMARK UNBOUND:                -1.037
REMARK  Name = 
REMARK  6 active torsions:
REMARK  status: ('A' for Active; 'I' for Inactive)
REMARK    1  A    between atoms: C_1  and  N_2
REMARK    2  A    between atoms: C_7  and  C_8
REMARK    3  A    between atoms: N_10  and  C_11
REMARK    4  A    between atoms: C_11  and  C_12
REMARK    5  A    between atoms: N_16  and  C_17
REMARK    6  A    between atoms: C_17  and  C_18
REMARK                            x       y       z     vdW  Elec       q    Type
REMARK                         _______ _______ _______ _____ _____    ______ ____
ROOT
ATOM      1  C   UNL     1      14.298  40.474  47.172  0.00  0.00    +0.000 C 
ATOM      2  O   UNL     1      13.379  39.659  47.203  0.00  0.00    +0.000 OA
ATOM      3  N   UNL     1      14.813  41.051  48.306  0.00  0.00    +0.000 N 
ATOM      4  H   UNL     1      15.651  41.612  48.200  0.00  0.00    +0.000 HD
ENDROOT
BRANCH   1  11
ATOM      5  C   UNL     1      15.434  43.809  41.946  0.00  0.00    +0.000 C 
ATOM      6  N   UNL     1      15.279  43.691  43.393  0.00  0.00    +0.000 N 
ATOM      7  C   UNL     1      14.258  44.546  44.002  0.00  0.00    +0.000 C 
ATOM      8  C   UNL     1      14.345  44.427  45.514  0.00  0.00    +0.000 C 
ATOM      9  O   UNL     1      14.041  43.090  45.924  0.00  0.00    +0.000 OA
ATOM     10  C   UNL     1      14.790  42.139  45.257  0.00  0.00    +0.000 A 
ATOM     11  C   UNL     1      14.907  40.865  45.857  0.00  0.00    +0.000 A 
ATOM     12  C   UNL     1      15.668  39.877  45.217  0.00  0.00    +0.000 A 
ATOM     13  C   UNL     1      16.289  40.151  44.006  0.00  0.00    +0.000 A 
ATOM     14 CL   UNL     1      17.236  38.936  43.239  0.00  0.00    +0.000 Cl
ATOM     15  C   UNL     1      16.157  41.401  43.403  0.00  0.00    +0.000 A 
ATOM     16  C   UNL     1      15.395  42.421  43.996  0.00  0.00    +0.000 A 
ENDBRANCH   1  11
BRANCH   3  17
ATOM     17  C   UNL     1      14.468  40.614  49.648  0.00  0.00    +0.000 C 
BRANCH  17  18
ATOM     18  C   UNL     1      15.558  39.724  50.282  0.00  0.00    +0.000 C 
ATOM     19  C   UNL     1      15.156  38.240  50.300  0.00  0.00    +0.000 C 
ATOM     20  C   UNL     1      15.749  37.668  51.585  0.00  0.00    +0.000 C 
ATOM     21  C   UNL     1      16.573  38.802  52.176  0.00  0.00    +0.000 C 
ATOM     22  N   UNL     1      15.853  39.976  51.701  0.00  0.00    +0.000 NA
BRANCH  22  23
ATOM     23  C   UNL     1      16.465  41.266  52.020  0.00  0.00    +0.000 C 
BRANCH  23  24
ATOM     24  C   UNL     1      15.571  42.329  52.627  0.00  0.00    +0.000 A 
ATOM     25  C   UNL     1      16.061  43.617  52.892  0.00  0.00    +0.000 A 
ATOM     26  C   UNL     1      15.232  44.593  53.448  0.00  0.00    +0.000 A 
ATOM     27  C   UNL     1      13.904  44.293  53.752  0.00  0.00    +0.000 A 
ATOM     28  C   UNL     1      13.408  43.014  53.511  0.00  0.00    +0.000 A 
ATOM     29  C   UNL     1      14.236  42.036  52.955  0.00  0.00    +0.000 A 
ENDBRANCH  23  24
ENDBRANCH  22  23
ENDBRANCH  17  18
ENDBRANCH   3  17
TORSDOF 5
ENDMDL
