MODEL 1
REMARK VINA RESULT:    -5.491      0.000      0.000
REMARK INTER + INTRA:         -11.526
REMARK INTER:                  -7.861
REMARK INTRA:                  -3.665
REMARK UNBOUND:                -3.787
REMARK  Name = 
REMARK  8 active torsions:
REMARK  status: ('A' for Active; 'I' for Inactive)
REMARK    1  A    between atoms: C_1  and  N_2
REMARK    2  A    between atoms: N_2  and  C_3
REMARK    3  A    between atoms: N_2  and  C_19
REMARK    4  A    between atoms: C_3  and  C_4
REMARK    5  A    between atoms: C_4  and  C_5
REMARK    6  A    between atoms: C_6  and  C_7
REMARK    7  A    between atoms: C_10  and  C_11
REMARK    8  A    between atoms: C_19  and  C_20
REMARK                            x       y       z     vdW  Elec       q    Type
REMARK                         _______ _______ _______ _____ _____    ______ ____
ROOT
ATOM      1  C   UNL     1      16.849  38.115  45.320  0.00  0.00    +0.000 C 
ENDROOT
BRANCH   1   2
ATOM      2  C   UNL     1      16.227  39.484  45.463  0.00  0.00    +0.000 C 
ATOM      3  C   UNL     1      14.926  39.802  45.353  0.00  0.00    +0.000 C 
BRANCH   3   4
ATOM      4  C   UNL     1      14.403  41.166  45.517  0.00  0.00    +0.000 A 
ATOM      5  C   UNL     1      13.083  41.502  45.198  0.00  0.00    +0.000 A 
ATOM      6  C   UNL     1      12.612  42.806  45.399  0.00  0.00    +0.000 A 
ATOM      7  C   UNL     1      13.441  43.803  45.935  0.00  0.00    +0.000 A 
ATOM      8  C   UNL     1      14.759  43.452  46.266  0.00  0.00    +0.000 A 
ATOM      9  C   UNL     1      15.233  42.150  46.065  0.00  0.00    +0.000 A 
BRANCH   7  10
ATOM     10  C   UNL     1      12.942  45.170  46.149  0.00  0.00    +0.000 A 
ATOM     11  C   UNL     1      13.671  46.286  45.703  0.00  0.00    +0.000 A 
ATOM     12  C   UNL     1      13.200  47.585  45.908  0.00  0.00    +0.000 A 
ATOM     13  C   UNL     1      11.990  47.791  46.564  0.00  0.00    +0.000 A 
ATOM     14  C   UNL     1      11.250  46.700  47.014  0.00  0.00    +0.000 A 
ATOM     15  C   UNL     1      11.723  45.401  46.808  0.00  0.00    +0.000 A 
ENDBRANCH   7  10
ENDBRANCH   3   4
ENDBRANCH   1   2
BRANCH   1  16
ATOM     16  C   UNL     1      17.465  37.773  43.949  0.00  0.00    +0.000 C 
BRANCH  16  18
ATOM     17  C   UNL     1      16.372  37.047  41.933  0.00  0.00    +0.000 C 
ATOM     18  N   UNL     1      16.623  38.197  42.811  0.00  0.00    +0.000 NA
BRANCH  18  19
ATOM     19  C   UNL     1      17.253  39.298  42.055  0.00  0.00    +0.000 C 
BRANCH  19  20
ATOM     20  C   UNL     1      16.511  40.614  42.164  0.00  0.00    +0.000 A 
ATOM     21  C   UNL     1      17.105  41.721  42.786  0.00  0.00    +0.000 A 
ATOM     22  C   UNL     1      16.413  42.929  42.893  0.00  0.00    +0.000 A 
ATOM     23  C   UNL     1      15.116  43.054  42.380  0.00  0.00    +0.000 A 
ATOM     24  C   UNL     1      14.508  41.943  41.787  0.00  0.00    +0.000 A 
ATOM     25  C   UNL     1      15.203  40.738  41.670  0.00  0.00    +0.000 A 
ATOM     26  O   UNL     1      13.243  41.961  41.261  0.00  0.00    +0.000 OA
ATOM     27  C   UNL     1      12.441  43.073  41.668  0.00  0.00    +0.000 C 
ATOM     28  C   UNL     1      13.191  44.389  41.550  0.00  0.00    +0.000 C 
ATOM     29  C   UNL     1      14.383  44.361  42.494  0.00  0.00    +0.000 C 
ENDBRANCH  19  20
ENDBRANCH  18  19
ENDBRANCH  16  18
ENDBRANCH   1  16
TORSDOF 7
ENDMDL
MODEL 2
REMARK VINA RESULT:    -5.375      2.598      7.118
REMARK INTER + INTRA:         -11.362
REMARK INTER:                  -7.423
REMARK INTRA:                  -3.939
REMARK UNBOUND:                -3.787
REMARK  Name = 
REMARK  8 active torsions:
REMARK  status: ('A' for Active; 'I' for Inactive)
REMARK    1  A    between atoms: C_1  and  N_2
REMARK    2  A    between atoms: N_2  and  C_3
REMARK    3  A    between atoms: N_2  and  C_19
REMARK    4  A    between atoms: C_3  and  C_4
REMARK    5  A    between atoms: C_4  and  C_5
REMARK    6  A    between atoms: C_6  and  C_7
REMARK    7  A    between atoms: C_10  and  C_11
REMARK    8  A    between atoms: C_19  and  C_20
REMARK                            x       y       z     vdW  Elec       q    Type
REMARK                         _______ _______ _______ _____ _____    ______ ____
ROOT
ATOM      1  C   UNL     1      13.320  47.748  45.876  0.00  0.00    +0.000 C 
ENDROOT
BRANCH   1   2
ATOM      2  C   UNL     1      13.969  46.469  45.401  0.00  0.00    +0.000 C 
ATOM      3  C   UNL     1      13.730  45.223  45.844  0.00  0.00    +0.000 C 
BRANCH   3   4
ATOM      4  C   UNL     1      14.403  44.028  45.317  0.00  0.00    +0.000 A 
ATOM      5  C   UNL     1      14.069  42.736  45.740  0.00  0.00    +0.000 A 
ATOM      6  C   UNL     1      14.711  41.619  45.190  0.00  0.00    +0.000 A 
ATOM      7  C   UNL     1      15.691  41.761  44.197  0.00  0.00    +0.000 A 
ATOM      8  C   UNL     1      16.008  43.059  43.768  0.00  0.00    +0.000 A 
ATOM      9  C   UNL     1      15.369  44.178  44.317  0.00  0.00    +0.000 A 
BRANCH   7  10
ATOM     10  C   UNL     1      16.360  40.585  43.618  0.00  0.00    +0.000 A 
ATOM     11  C   UNL     1      16.880  40.617  42.313  0.00  0.00    +0.000 A 
ATOM     12  C   UNL     1      17.513  39.501  41.760  0.00  0.00    +0.000 A 
ATOM     13  C   UNL     1      17.637  38.331  42.505  0.00  0.00    +0.000 A 
ATOM     14  C   UNL     1      17.129  38.277  43.801  0.00  0.00    +0.000 A 
ATOM     15  C   UNL     1      16.497  39.396  44.352  0.00  0.00    +0.000 A 
ENDBRANCH   7  10
ENDBRANCH   3   4
ENDBRANCH   1   2
BRANCH   1  16
ATOM     16  C   UNL     1      11.914  48.059  45.326  0.00  0.00    +0.000 C 
BRANCH  16  18
ATOM     17  C   UNL     1      11.441  49.102  43.210  0.00  0.00    +0.000 C 
ATOM     18  N   UNL     1      11.800  47.840  43.869  0.00  0.00    +0.000 NA
BRANCH  18  19
ATOM     19  C   UNL     1      10.804  46.794  43.557  0.00  0.00    +0.000 C 
BRANCH  19  20
ATOM     20  C   UNL     1      11.415  45.507  43.041  0.00  0.00    +0.000 A 
ATOM     21  C   UNL     1      10.993  44.266  43.537  0.00  0.00    +0.000 A 
ATOM     22  C   UNL     1      11.565  43.082  43.065  0.00  0.00    +0.000 A 
ATOM     23  C   UNL     1      12.570  43.118  42.090  0.00  0.00    +0.000 A 
ATOM     24  C   UNL     1      13.016  44.356  41.616  0.00  0.00    +0.000 A 
ATOM     25  C   UNL     1      12.436  45.538  42.079  0.00  0.00    +0.000 A 
ATOM     26  O   UNL     1      13.996  44.498  40.669  0.00  0.00    +0.000 OA
ATOM     27  C   UNL     1      14.789  43.327  40.449  0.00  0.00    +0.000 C 
ATOM     28  C   UNL     1      13.933  42.081  40.290  0.00  0.00    +0.000 C 
ATOM     29  C   UNL     1      13.174  41.839  41.585  0.00  0.00    +0.000 C 
ENDBRANCH  19  20
ENDBRANCH  18  19
ENDBRANCH  16  18
ENDBRANCH   1  16
TORSDOF 7
ENDMDL
MODEL 3
REMARK VINA RESULT:    -5.262      2.524      6.943
REMARK INTER + INTRA:         -11.202
REMARK INTER:                  -7.415
REMARK INTRA:                  -3.787
REMARK UNBOUND:                -3.787
REMARK  Name = 
REMARK  8 active torsions:
REMARK  status: ('A' for Active; 'I' for Inactive)
REMARK    1  A    between atoms: C_1  and  N_2
REMARK    2  A    between atoms: N_2  and  C_3
REMARK    3  A    between atoms: N_2  and  C_19
REMARK    4  A    between atoms: C_3  and  C_4
REMARK    5  A    between atoms: C_4  and  C_5
REMARK    6  A    between atoms: C_6  and  C_7
REMARK    7  A    between atoms: C_10  and  C_11
REMARK    8  A    between atoms: C_19  and  C_20
REMARK                            x       y       z     vdW  Elec       q    Type
REMARK                         _______ _______ _______ _____ _____    ______ ____
ROOT
ATOM      1  C   UNL     1      12.178  47.532  46.288  0.00  0.00    +0.000 C 
ENDROOT
BRANCH   1   2
ATOM      2  C   UNL     1      12.960  46.242  46.203  0.00  0.00    +0.000 C 
ATOM      3  C   UNL     1      12.491  44.994  46.362  0.00  0.00    +0.000 C 
BRANCH   3   4
ATOM      4  C   UNL     1      13.325  43.789  46.252  0.00  0.00    +0.000 A 
ATOM      5  C   UNL     1      12.879  42.531  46.675  0.00  0.00    +0.000 A 
ATOM      6  C   UNL     1      13.690  41.400  46.523  0.00  0.00    +0.000 A 
ATOM      7  C   UNL     1      14.961  41.492  45.935  0.00  0.00    +0.000 A 
ATOM      8  C   UNL     1      15.393  42.754  45.499  0.00  0.00    +0.000 A 
ATOM      9  C   UNL     1      14.584  43.887  45.651  0.00  0.00    +0.000 A 
BRANCH   7  10
ATOM     10  C   UNL     1      15.809  40.301  45.773  0.00  0.00    +0.000 A 
ATOM     11  C   UNL     1      16.140  39.815  44.496  0.00  0.00    +0.000 A 
ATOM     12  C   UNL     1      16.943  38.682  44.340  0.00  0.00    +0.000 A 
ATOM     13  C   UNL     1      17.431  38.015  45.461  0.00  0.00    +0.000 A 
ATOM     14  C   UNL     1      17.116  38.480  46.736  0.00  0.00    +0.000 A 
ATOM     15  C   UNL     1      16.312  39.613  46.889  0.00  0.00    +0.000 A 
ENDBRANCH   7  10
ENDBRANCH   3   4
ENDBRANCH   1   2
BRANCH   1  16
ATOM     16  C   UNL     1      11.058  47.734  45.249  0.00  0.00    +0.000 C 
BRANCH  16  18
ATOM     17  C   UNL     1      11.444  48.840  43.147  0.00  0.00    +0.000 C 
ATOM     18  N   UNL     1      11.520  47.556  43.856  0.00  0.00    +0.000 NA
BRANCH  18  19
ATOM     19  C   UNL     1      10.725  46.529  43.152  0.00  0.00    +0.000 C 
BRANCH  19  20
ATOM     20  C   UNL     1      11.459  45.217  42.961  0.00  0.00    +0.000 A 
ATOM     21  C   UNL     1      10.852  44.002  43.304  0.00  0.00    +0.000 A 
ATOM     22  C   UNL     1      11.535  42.795  43.135  0.00  0.00    +0.000 A 
ATOM     23  C   UNL     1      12.838  42.782  42.620  0.00  0.00    +0.000 A 
ATOM     24  C   UNL     1      13.458  43.996  42.306  0.00  0.00    +0.000 A 
ATOM     25  C   UNL     1      12.771  45.201  42.464  0.00  0.00    +0.000 A 
ATOM     26  O   UNL     1      14.730  44.090  41.803  0.00  0.00    +0.000 OA
ATOM     27  C   UNL     1      15.521  42.907  41.950  0.00  0.00    +0.000 C 
ATOM     28  C   UNL     1      14.764  41.660  41.523  0.00  0.00    +0.000 C 
ATOM     29  C   UNL     1      13.562  41.479  42.436  0.00  0.00    +0.000 C 
ENDBRANCH  19  20
ENDBRANCH  18  19
ENDBRANCH  16  18
ENDBRANCH   1  16
TORSDOF 7
ENDMDL
