MODEL 1
REMARK VINA RESULT:    -6.701      0.000      0.000
REMARK INTER + INTRA:          -9.177
REMARK INTER:                  -8.344
REMARK INTRA:                  -0.834
REMARK UNBOUND:                -0.909
REMARK  Name = 
REMARK  6 active torsions:
REMARK  status: ('A' for Active; 'I' for Inactive)
REMARK    1  A    between atoms: C_1  and  C_2
REMARK    2  A    between atoms: C_2  and  N_3
REMARK    3  A    between atoms: C_2  and  C_22
REMARK    4  A    between atoms: C_7  and  C_8
REMARK    5  A    between atoms: C_12  and  C_13
REMARK    6  A    between atoms: N_20  and  C_21
REMARK                            x       y       z     vdW  Elec       q    Type
REMARK                         _______ _______ _______ _____ _____    ______ ____
ROOT
ATOM      1  N   UNL     1      15.194  40.581  43.804  0.00  0.00    +0.000 N 
ATOM      2  C   UNL     1      14.969  41.492  44.772  0.00  0.00    +0.000 A 
ATOM      3  N   UNL     1      15.256  41.383  46.048  0.00  0.00    +0.000 NA
ATOM      4  C   UNL     1      14.813  42.539  46.630  0.00  0.00    +0.000 A 
ATOM      5  C   UNL     1      14.235  43.385  45.703  0.00  0.00    +0.000 A 
ATOM      6  N   UNL     1      14.385  42.711  44.506  0.00  0.00    +0.000 N 
ATOM      7  C   UNL     1      14.050  43.216  43.195  0.00  0.00    +0.000 C 
ATOM      8  H   UNL     1      14.744  40.633  42.899  0.00  0.00    +0.000 HD
ENDROOT
BRANCH   5   9
ATOM      9  C   UNL     1      13.627  44.696  45.882  0.00  0.00    +0.000 A 
ATOM     10  C   UNL     1      12.387  44.828  46.515  0.00  0.00    +0.000 A 
ATOM     11  C   UNL     1      11.817  46.088  46.686  0.00  0.00    +0.000 A 
ATOM     12  C   UNL     1      12.486  47.226  46.230  0.00  0.00    +0.000 A 
ATOM     13  C   UNL     1      13.736  47.127  45.599  0.00  0.00    +0.000 A 
ATOM     14  C   UNL     1      14.294  45.846  45.436  0.00  0.00    +0.000 A 
BRANCH  13  15
ATOM     15  C   UNL     1      14.442  48.327  45.121  0.00  0.00    +0.000 A 
ATOM     16  C   UNL     1      15.805  48.528  45.400  0.00  0.00    +0.000 A 
ATOM     17  C   UNL     1      16.474  49.668  44.947  0.00  0.00    +0.000 A 
ATOM     18  C   UNL     1      15.792  50.628  44.205  0.00  0.00    +0.000 A 
ATOM     19  C   UNL     1      14.441  50.450  43.916  0.00  0.00    +0.000 A 
ATOM     20  C   UNL     1      13.773  49.310  44.371  0.00  0.00    +0.000 A 
ENDBRANCH  13  15
ENDBRANCH   5   9
BRANCH   1  22
ATOM     21  C   UNL     1      14.534  38.269  44.281  0.00  0.00    +0.000 C 
ATOM     22  C   UNL     1      15.697  39.257  44.153  0.00  0.00    +0.000 C 
BRANCH  22  23
ATOM     23  C   UNL     1      16.737  38.875  43.106  0.00  0.00    +0.000 A 
ATOM     24  C   UNL     1      16.855  39.674  41.953  0.00  0.00    +0.000 A 
ATOM     25  C   UNL     1      17.774  39.360  40.950  0.00  0.00    +0.000 A 
ATOM     26  C   UNL     1      18.586  38.237  41.077  0.00  0.00    +0.000 A 
ATOM     27  C   UNL     1      18.473  37.425  42.205  0.00  0.00    +0.000 A 
ATOM     28  C   UNL     1      17.553  37.737  43.209  0.00  0.00    +0.000 A 
ENDBRANCH  22  23
ENDBRANCH   1  22
TORSDOF 4
ENDMDL
MODEL 2
REMARK VINA RESULT:    -6.381      4.345     10.061
REMARK INTER + INTRA:          -8.783
REMARK INTER:                  -8.325
REMARK INTRA:                  -0.458
REMARK UNBOUND:                -0.909
REMARK  Name = 
REMARK  6 active torsions:
REMARK  status: ('A' for Active; 'I' for Inactive)
REMARK    1  A    between atoms: C_1  and  C_2
REMARK    2  A    between atoms: C_2  and  N_3
REMARK    3  A    between atoms: C_2  and  C_22
REMARK    4  A    between atoms: C_7  and  C_8
REMARK    5  A    between atoms: C_12  and  C_13
REMARK    6  A    between atoms: N_20  and  C_21
REMARK                            x       y       z     vdW  Elec       q    Type
REMARK                         _______ _______ _______ _____ _____    ______ ____
ROOT
ATOM      1  N   UNL     1      14.467  42.640  46.341  0.00  0.00    +0.000 N 
ATOM      2  C   UNL     1      15.130  41.473  46.221  0.00  0.00    +0.000 A 
ATOM      3  N   UNL     1      15.883  41.086  45.218  0.00  0.00    +0.000 NA
ATOM      4  C   UNL     1      16.310  39.826  45.536  0.00  0.00    +0.000 A 
ATOM      5  C   UNL     1      15.813  39.414  46.756  0.00  0.00    +0.000 A 
ATOM      6  N   UNL     1      15.092  40.506  47.202  0.00  0.00    +0.000 N 
ATOM      7  C   UNL     1      14.460  40.642  48.493  0.00  0.00    +0.000 C 
ATOM      8  H   UNL     1      13.732  42.774  47.023  0.00  0.00    +0.000 HD
ENDROOT
BRANCH   5   9
ATOM      9  C   UNL     1      15.997  38.157  47.469  0.00  0.00    +0.000 A 
ATOM     10  C   UNL     1      15.001  37.176  47.453  0.00  0.00    +0.000 A 
ATOM     11  C   UNL     1      15.190  35.973  48.132  0.00  0.00    +0.000 A 
ATOM     12  C   UNL     1      16.378  35.743  48.828  0.00  0.00    +0.000 A 
ATOM     13  C   UNL     1      17.401  36.705  48.854  0.00  0.00    +0.000 A 
ATOM     14  C   UNL     1      17.191  37.911  48.162  0.00  0.00    +0.000 A 
BRANCH  13  15
ATOM     15  C   UNL     1      18.655  36.459  49.586  0.00  0.00    +0.000 A 
ATOM     16  C   UNL     1      19.675  35.666  49.032  0.00  0.00    +0.000 A 
ATOM     17  C   UNL     1      20.864  35.433  49.727  0.00  0.00    +0.000 A 
ATOM     18  C   UNL     1      21.056  35.989  50.989  0.00  0.00    +0.000 A 
ATOM     19  C   UNL     1      20.058  36.778  51.557  0.00  0.00    +0.000 A 
ATOM     20  C   UNL     1      18.869  37.010  50.861  0.00  0.00    +0.000 A 
ENDBRANCH  13  15
ENDBRANCH   5   9
BRANCH   1  22
ATOM     21  C   UNL     1      13.830  42.904  43.989  0.00  0.00    +0.000 C 
ATOM     22  C   UNL     1      14.435  43.578  45.225  0.00  0.00    +0.000 C 
BRANCH  22  23
ATOM     23  C   UNL     1      13.688  44.820  45.695  0.00  0.00    +0.000 A 
ATOM     24  C   UNL     1      12.502  44.652  46.433  0.00  0.00    +0.000 A 
ATOM     25  C   UNL     1      11.764  45.753  46.871  0.00  0.00    +0.000 A 
ATOM     26  C   UNL     1      12.194  47.042  46.571  0.00  0.00    +0.000 A 
ATOM     27  C   UNL     1      13.358  47.229  45.828  0.00  0.00    +0.000 A 
ATOM     28  C   UNL     1      14.097  46.128  45.388  0.00  0.00    +0.000 A 
ENDBRANCH  22  23
ENDBRANCH   1  22
TORSDOF 4
ENDMDL
MODEL 3
REMARK VINA RESULT:    -6.222      9.873     14.392
REMARK INTER + INTRA:          -8.587
REMARK INTER:                  -7.678
REMARK INTRA:                  -0.909
REMARK UNBOUND:                -0.909
REMARK  Name = 
REMARK  6 active torsions:
REMARK  status: ('A' for Active; 'I' for Inactive)
REMARK    1  A    between atoms: C_1  and  C_2
REMARK    2  A    between atoms: C_2  and  N_3
REMARK    3  A    between atoms: C_2  and  C_22
REMARK    4  A    between atoms: C_7  and  C_8
REMARK    5  A    between atoms: C_12  and  C_13
REMARK    6  A    between atoms: N_20  and  C_21
REMARK                            x       y       z     vdW  Elec       q    Type
REMARK                         _______ _______ _______ _____ _____    ______ ____
ROOT
ATOM      1  N   UNL     1      16.425  39.446  55.422  0.00  0.00    +0.000 N 
ATOM      2  C   UNL     1      17.181  39.416  54.305  0.00  0.00    +0.000 A 
ATOM      3  N   UNL     1      17.813  40.421  53.747  0.00  0.00    +0.000 NA
ATOM      4  C   UNL     1      18.410  39.910  52.627  0.00  0.00    +0.000 A 
ATOM      5  C   UNL     1      18.144  38.563  52.479  0.00  0.00    +0.000 A 
ATOM      6  N   UNL     1      17.388  38.254  53.594  0.00  0.00    +0.000 N 
ATOM      7  C   UNL     1      16.944  36.937  53.986  0.00  0.00    +0.000 C 
ATOM      8  H   UNL     1      15.789  38.697  55.662  0.00  0.00    +0.000 HD
ENDROOT
BRANCH   5   9
ATOM      9  C   UNL     1      18.561  37.633  51.438  0.00  0.00    +0.000 A 
ATOM     10  C   UNL     1      17.798  37.474  50.277  0.00  0.00    +0.000 A 
ATOM     11  C   UNL     1      18.208  36.586  49.284  0.00  0.00    +0.000 A 
ATOM     12  C   UNL     1      19.387  35.856  49.444  0.00  0.00    +0.000 A 
ATOM     13  C   UNL     1      20.180  36.001  50.594  0.00  0.00    +0.000 A 
ATOM     14  C   UNL     1      19.748  36.902  51.584  0.00  0.00    +0.000 A 
BRANCH  13  15
ATOM     15  C   UNL     1      21.424  35.232  50.760  0.00  0.00    +0.000 A 
ATOM     16  C   UNL     1      22.502  35.394  49.872  0.00  0.00    +0.000 A 
ATOM     17  C   UNL     1      23.682  34.664  50.030  0.00  0.00    +0.000 A 
ATOM     18  C   UNL     1      23.808  33.758  51.079  0.00  0.00    +0.000 A 
ATOM     19  C   UNL     1      22.752  33.580  51.971  0.00  0.00    +0.000 A 
ATOM     20  C   UNL     1      21.572  34.311  51.812  0.00  0.00    +0.000 A 
ENDBRANCH  13  15
ENDBRANCH   5   9
BRANCH   1  22
ATOM     21  C   UNL     1      14.795  41.271  55.562  0.00  0.00    +0.000 C 
ATOM     22  C   UNL     1      16.132  40.720  56.068  0.00  0.00    +0.000 C 
BRANCH  22  23
ATOM     23  C   UNL     1      16.190  40.489  57.574  0.00  0.00    +0.000 A 
ATOM     24  C   UNL     1      16.544  39.212  58.046  0.00  0.00    +0.000 A 
ATOM     25  C   UNL     1      16.592  38.936  59.414  0.00  0.00    +0.000 A 
ATOM     26  C   UNL     1      16.278  39.931  60.335  0.00  0.00    +0.000 A 
ATOM     27  C   UNL     1      15.910  41.199  59.887  0.00  0.00    +0.000 A 
ATOM     28  C   UNL     1      15.860  41.475  58.518  0.00  0.00    +0.000 A 
ENDBRANCH  22  23
ENDBRANCH   1  22
TORSDOF 4
ENDMDL
