MODEL 1
REMARK VINA RESULT:    -6.386      0.000      0.000
REMARK INTER + INTRA:          -8.529
REMARK INTER:                  -7.645
REMARK INTRA:                  -0.883
REMARK UNBOUND:                -0.836
REMARK  Name = 
REMARK  10 active torsions:
REMARK  status: ('A' for Active; 'I' for Inactive)
REMARK    1  A    between atoms: C_1  and  C_2
REMARK    2  A    between atoms: C_2  and  C_13
REMARK    3  A    between atoms: C_3  and  C_4
REMARK    4  A    between atoms: C_7  and  C_8
REMARK    5  A    between atoms: C_8  and  O_10
REMARK    6  A    between atoms: C_18  and  C_19
REMARK    7  A    between atoms: C_20  and  C_21
REMARK    8  A    between atoms: C_20  and  C_22
REMARK    9  A    between atoms: C_25  and  C_26
REMARK   10  A    between atoms: C_25  and  C_27
REMARK                            x       y       z     vdW  Elec       q    Type
REMARK                         _______ _______ _______ _____ _____    ______ ____
ROOT
ATOM      1  C   UNL     1      17.718  38.414  51.627  0.00  0.00    +0.000 A 
ATOM      2  C   UNL     1      18.692  37.410  51.523  0.00  0.00    +0.000 A 
ATOM      3  C   UNL     1      18.848  36.621  50.362  0.00  0.00    +0.000 A 
ATOM      4  C   UNL     1      17.955  36.825  49.287  0.00  0.00    +0.000 A 
ATOM      5  C   UNL     1      16.991  37.854  49.397  0.00  0.00    +0.000 A 
ATOM      6  C   UNL     1      16.863  38.652  50.544  0.00  0.00    +0.000 A 
ATOM      7  C   UNL     1      15.803  39.719  50.586  0.00  0.00    +0.000 C 
ATOM      8  C   UNL     1      18.021  35.998  47.995  0.00  0.00    +0.000 C 
ATOM      9  C   UNL     1      16.621  35.512  47.550  0.00  0.00    +0.000 C 
ATOM     10  C   UNL     1      18.608  36.880  46.872  0.00  0.00    +0.000 C 
ATOM     11  C   UNL     1      18.886  34.730  48.173  0.00  0.00    +0.000 C 
ATOM     12  C   UNL     1      20.188  35.027  48.896  0.00  0.00    +0.000 C 
ATOM     13  C   UNL     1      19.947  35.550  50.329  0.00  0.00    +0.000 C 
ATOM     14  C   UNL     1      19.531  34.384  51.252  0.00  0.00    +0.000 C 
ATOM     15  C   UNL     1      21.304  36.103  50.827  0.00  0.00    +0.000 C 
ENDROOT
BRANCH   1  17
ATOM     16  C   UNL     1      18.538  40.375  52.976  0.00  0.00    +0.000 C 
ATOM     17  C   UNL     1      17.632  39.178  52.888  0.00  0.00    +0.000 C 
ATOM     18  C   UNL     1      16.777  38.747  53.833  0.00  0.00    +0.000 C 
BRANCH  18  19
ATOM     19  C   UNL     1      16.583  39.389  55.132  0.00  0.00    +0.000 A 
ATOM     20  C   UNL     1      15.724  40.486  55.258  0.00  0.00    +0.000 A 
ATOM     21  C   UNL     1      15.538  41.092  56.503  0.00  0.00    +0.000 A 
ATOM     22  C   UNL     1      16.208  40.605  57.631  0.00  0.00    +0.000 A 
ATOM     23  C   UNL     1      17.067  39.506  57.505  0.00  0.00    +0.000 A 
ATOM     24  C   UNL     1      17.253  38.902  56.259  0.00  0.00    +0.000 A 
BRANCH  22  25
ATOM     25  C   UNL     1      15.979  41.279  58.932  0.00  0.00    +0.000 C 
ATOM     26  O   UNL     1      15.246  42.232  59.121  0.00  0.00    +0.000 OA
BRANCH  25  27
ATOM     27  O   UNL     1      16.681  40.730  59.938  0.00  0.00    +0.000 OA
ATOM     28  H   UNL     1      16.909  39.838  59.603  0.00  0.00    +0.000 HD
ENDBRANCH  25  27
ENDBRANCH  22  25
ENDBRANCH  18  19
ENDBRANCH   1  17
TORSDOF 4
ENDMDL
MODEL 2
REMARK VINA RESULT:    -6.091     10.737     14.334
REMARK INTER + INTRA:          -8.174
REMARK INTER:                  -7.457
REMARK INTRA:                  -0.717
REMARK UNBOUND:                -0.836
REMARK  Name = 
REMARK  10 active torsions:
REMARK  status: ('A' for Active; 'I' for Inactive)
REMARK    1  A    between atoms: C_1  and  C_2
REMARK    2  A    between atoms: C_2  and  C_13
REMARK    3  A    between atoms: C_3  and  C_4
REMARK    4  A    between atoms: C_7  and  C_8
REMARK    5  A    between atoms: C_8  and  O_10
REMARK    6  A    between atoms: C_18  and  C_19
REMARK    7  A    between atoms: C_20  and  C_21
REMARK    8  A    between atoms: C_20  and  C_22
REMARK    9  A    between atoms: C_25  and  C_26
REMARK   10  A    between atoms: C_25  and  C_27
REMARK                            x       y       z     vdW  Elec       q    Type
REMARK                         _______ _______ _______ _____ _____    ______ ____
ROOT
ATOM      1  C   UNL     1      13.218  47.348  45.375  0.00  0.00    +0.000 A 
ATOM      2  C   UNL     1      13.955  48.436  44.884  0.00  0.00    +0.000 A 
ATOM      3  C   UNL     1      13.697  49.767  45.279  0.00  0.00    +0.000 A 
ATOM      4  C   UNL     1      12.624  50.008  46.165  0.00  0.00    +0.000 A 
ATOM      5  C   UNL     1      11.902  48.902  46.667  0.00  0.00    +0.000 A 
ATOM      6  C   UNL     1      12.185  47.579  46.291  0.00  0.00    +0.000 A 
ATOM      7  C   UNL     1      11.361  46.458  46.862  0.00  0.00    +0.000 C 
ATOM      8  C   UNL     1      12.243  51.422  46.629  0.00  0.00    +0.000 C 
ATOM      9  C   UNL     1      10.716  51.661  46.553  0.00  0.00    +0.000 C 
ATOM     10  C   UNL     1      12.690  51.599  48.096  0.00  0.00    +0.000 C 
ATOM     11  C   UNL     1      12.898  52.508  45.746  0.00  0.00    +0.000 C 
ATOM     12  C   UNL     1      14.364  52.217  45.481  0.00  0.00    +0.000 C 
ATOM     13  C   UNL     1      14.560  50.898  44.701  0.00  0.00    +0.000 C 
ATOM     14  C   UNL     1      14.182  51.102  43.218  0.00  0.00    +0.000 C 
ATOM     15  C   UNL     1      16.069  50.565  44.776  0.00  0.00    +0.000 C 
ENDROOT
BRANCH   1  17
ATOM     16  C   UNL     1      12.787  45.525  43.693  0.00  0.00    +0.000 C 
ATOM     17  C   UNL     1      13.562  45.995  44.893  0.00  0.00    +0.000 C 
ATOM     18  C   UNL     1      14.512  45.309  45.554  0.00  0.00    +0.000 C 
BRANCH  18  19
ATOM     19  C   UNL     1      14.957  43.961  45.204  0.00  0.00    +0.000 A 
ATOM     20  C   UNL     1      15.603  43.723  43.986  0.00  0.00    +0.000 A 
ATOM     21  C   UNL     1      16.032  42.434  43.660  0.00  0.00    +0.000 A 
ATOM     22  C   UNL     1      15.820  41.374  44.549  0.00  0.00    +0.000 A 
ATOM     23  C   UNL     1      15.175  41.613  45.770  0.00  0.00    +0.000 A 
ATOM     24  C   UNL     1      14.745  42.903  46.094  0.00  0.00    +0.000 A 
BRANCH  22  25
ATOM     25  C   UNL     1      16.293  40.023  44.161  0.00  0.00    +0.000 C 
ATOM     26  O   UNL     1      16.376  39.596  43.024  0.00  0.00    +0.000 OA
BRANCH  25  27
ATOM     27  O   UNL     1      16.641  39.267  45.217  0.00  0.00    +0.000 OA
ATOM     28  H   UNL     1      16.912  38.415  44.814  0.00  0.00    +0.000 HD
ENDBRANCH  25  27
ENDBRANCH  22  25
ENDBRANCH  18  19
ENDBRANCH   1  17
TORSDOF 4
ENDMDL
MODEL 3
REMARK VINA RESULT:    -5.986      8.272     10.779
REMARK INTER + INTRA:          -8.047
REMARK INTER:                  -7.211
REMARK INTRA:                  -0.836
REMARK UNBOUND:                -0.836
REMARK  Name = 
REMARK  10 active torsions:
REMARK  status: ('A' for Active; 'I' for Inactive)
REMARK    1  A    between atoms: C_1  and  C_2
REMARK    2  A    between atoms: C_2  and  C_13
REMARK    3  A    between atoms: C_3  and  C_4
REMARK    4  A    between atoms: C_7  and  C_8
REMARK    5  A    between atoms: C_8  and  O_10
REMARK    6  A    between atoms: C_18  and  C_19
REMARK    7  A    between atoms: C_20  and  C_21
REMARK    8  A    between atoms: C_20  and  C_22
REMARK    9  A    between atoms: C_25  and  C_26
REMARK   10  A    between atoms: C_25  and  C_27
REMARK                            x       y       z     vdW  Elec       q    Type
REMARK                         _______ _______ _______ _____ _____    ______ ____
ROOT
ATOM      1  C   UNL     1      14.396  42.932  45.171  0.00  0.00    +0.000 A 
ATOM      2  C   UNL     1      13.740  42.089  46.080  0.00  0.00    +0.000 A 
ATOM      3  C   UNL     1      14.173  40.770  46.342  0.00  0.00    +0.000 A 
ATOM      4  C   UNL     1      15.280  40.272  45.620  0.00  0.00    +0.000 A 
ATOM      5  C   UNL     1      15.944  41.138  44.720  0.00  0.00    +0.000 A 
ATOM      6  C   UNL     1      15.523  42.457  44.489  0.00  0.00    +0.000 A 
ATOM      7  C   UNL     1      16.277  43.310  43.506  0.00  0.00    +0.000 C 
ATOM      8  C   UNL     1      15.808  38.842  45.807  0.00  0.00    +0.000 C 
ATOM      9  C   UNL     1      16.084  38.147  44.452  0.00  0.00    +0.000 C 
ATOM     10  C   UNL     1      17.132  38.903  46.600  0.00  0.00    +0.000 C 
ATOM     11  C   UNL     1      14.790  37.952  46.555  0.00  0.00    +0.000 C 
ATOM     12  C   UNL     1      14.197  38.656  47.762  0.00  0.00    +0.000 C 
ATOM     13  C   UNL     1      13.403  39.920  47.362  0.00  0.00    +0.000 C 
ATOM     14  C   UNL     1      12.046  39.516  46.748  0.00  0.00    +0.000 C 
ATOM     15  C   UNL     1      13.132  40.698  48.671  0.00  0.00    +0.000 C 
ENDROOT
BRANCH   1  17
ATOM     16  C   UNL     1      13.036  44.473  43.718  0.00  0.00    +0.000 C 
ATOM     17  C   UNL     1      13.859  44.291  44.963  0.00  0.00    +0.000 C 
ATOM     18  C   UNL     1      14.148  45.233  45.879  0.00  0.00    +0.000 C 
BRANCH  18  19
ATOM     19  C   UNL     1      13.697  46.623  45.812  0.00  0.00    +0.000 A 
ATOM     20  C   UNL     1      12.463  46.993  46.357  0.00  0.00    +0.000 A 
ATOM     21  C   UNL     1      12.039  48.323  46.295  0.00  0.00    +0.000 A 
ATOM     22  C   UNL     1      12.847  49.292  45.688  0.00  0.00    +0.000 A 
ATOM     23  C   UNL     1      14.083  48.921  45.143  0.00  0.00    +0.000 A 
ATOM     24  C   UNL     1      14.505  47.590  45.205  0.00  0.00    +0.000 A 
BRANCH  22  25
ATOM     25  C   UNL     1      12.357  50.692  45.647  0.00  0.00    +0.000 C 
ATOM     26  O   UNL     1      11.729  51.200  44.737  0.00  0.00    +0.000 OA
BRANCH  25  27
ATOM     27  O   UNL     1      12.679  51.392  46.749  0.00  0.00    +0.000 OA
ATOM     28  H   UNL     1      13.652  51.294  46.812  0.00  0.00    +0.000 HD
ENDBRANCH  25  27
ENDBRANCH  22  25
ENDBRANCH  18  19
ENDBRANCH   1  17
TORSDOF 4
ENDMDL
