MODEL 1
REMARK VINA RESULT:    -6.435      0.000      0.000
REMARK INTER + INTRA:          -9.453
REMARK INTER:                  -8.452
REMARK INTRA:                  -1.001
REMARK UNBOUND:                -1.137
REMARK  Name = 
REMARK  6 active torsions:
REMARK  status: ('A' for Active; 'I' for Inactive)
REMARK    1  A    between atoms: C_1  and  C_2
REMARK    2  A    between atoms: C_2  and  C_3
REMARK    3  A    between atoms: C_2  and  N_6
REMARK    4  A    between atoms: C_20  and  O_21
REMARK    5  A    between atoms: O_21  and  C_22
REMARK    6  A    between atoms: C_22  and  C_23
REMARK                            x       y       z     vdW  Elec       q    Type
REMARK                         _______ _______ _______ _____ _____    ______ ____
ROOT
ATOM      1  N   UNL     1      19.957  34.743  52.849  0.00  0.00    +0.000 NA
ATOM      2  C   UNL     1      20.624  35.427  51.736  0.00  0.00    +0.000 C 
ATOM      3  C   UNL     1      20.035  36.812  51.413  0.00  0.00    +0.000 C 
ATOM      4  C   UNL     1      18.478  36.848  51.405  0.00  0.00    +0.000 C 
ATOM      5  C   UNL     1      17.957  37.471  50.089  0.00  0.00    +0.000 C 
ATOM      6  C   UNL     1      16.431  37.471  49.944  0.00  0.00    +0.000 C 
ATOM      7  C   UNL     1      15.696  36.546  50.911  0.00  0.00    +0.000 C 
ATOM      8  C   UNL     1      16.436  35.241  51.191  0.00  0.00    +0.000 C 
ATOM      9  C   UNL     1      17.957  35.392  51.428  0.00  0.00    +0.000 C 
ATOM     10  C   UNL     1      18.468  34.724  52.722  0.00  0.00    +0.000 C 
ATOM     11  C   UNL     1      17.857  35.423  53.958  0.00  0.00    +0.000 C 
ATOM     12  C   UNL     1      17.787  36.929  53.867  0.00  0.00    +0.000 A 
ATOM     13  C   UNL     1      17.416  37.650  55.015  0.00  0.00    +0.000 A 
ATOM     14  C   UNL     1      17.313  39.041  54.991  0.00  0.00    +0.000 A 
ATOM     15  C   UNL     1      17.573  39.732  53.813  0.00  0.00    +0.000 A 
ATOM     16  C   UNL     1      17.960  39.022  52.673  0.00  0.00    +0.000 A 
ATOM     17  C   UNL     1      18.049  37.617  52.667  0.00  0.00    +0.000 A 
ENDROOT
BRANCH   1  19
ATOM     18  C   UNL     1      19.463  32.277  53.028  0.00  0.00    +0.000 C 
ATOM     19  C   UNL     1      20.516  33.390  53.146  0.00  0.00    +0.000 C 
BRANCH  19  20
ATOM     20  C   UNL     1      21.090  33.295  54.582  0.00  0.00    +0.000 C 
ATOM     21  N   UNL     1      20.156  33.117  55.571  0.00  0.00    +0.000 N 
ATOM     22  O   UNL     1      22.280  33.388  54.873  0.00  0.00    +0.000 OA
ATOM     23  H   UNL     1      20.525  32.972  56.503  0.00  0.00    +0.000 HD
ATOM     24  H   UNL     1      19.240  32.744  55.364  0.00  0.00    +0.000 HD
ENDBRANCH  19  20
ENDBRANCH   1  19
BRANCH  15  25
ATOM     25  O   UNL     1      17.527  41.089  53.651  0.00  0.00    +0.000 OA
BRANCH  25  26
ATOM     26  C   UNL     1      16.763  41.611  52.561  0.00  0.00    +0.000 C 
BRANCH  26  27
ATOM     27  C   UNL     1      15.666  42.560  52.994  0.00  0.00    +0.000 A 
ATOM     28  C   UNL     1      14.369  42.069  53.216  0.00  0.00    +0.000 A 
ATOM     29  C   UNL     1      13.331  42.930  53.584  0.00  0.00    +0.000 A 
ATOM     30  C   UNL     1      13.578  44.293  53.729  0.00  0.00    +0.000 A 
ATOM     31  C   UNL     1      14.855  44.785  53.492  0.00  0.00    +0.000 A 
ATOM     32  F   UNL     1      15.088  46.100  53.615  0.00  0.00    +0.000 F 
ATOM     33  C   UNL     1      15.895  43.937  53.123  0.00  0.00    +0.000 A 
ENDBRANCH  26  27
ENDBRANCH  25  26
ENDBRANCH  15  25
TORSDOF 5
ENDMDL
MODEL 2
REMARK VINA RESULT:    -6.255     10.995     13.669
REMARK INTER + INTRA:          -9.220
REMARK INTER:                  -7.823
REMARK INTRA:                  -1.396
REMARK UNBOUND:                -1.137
REMARK  Name = 
REMARK  6 active torsions:
REMARK  status: ('A' for Active; 'I' for Inactive)
REMARK    1  A    between atoms: C_1  and  C_2
REMARK    2  A    between atoms: C_2  and  C_3
REMARK    3  A    between atoms: C_2  and  N_6
REMARK    4  A    between atoms: C_20  and  O_21
REMARK    5  A    between atoms: O_21  and  C_22
REMARK    6  A    between atoms: C_22  and  C_23
REMARK                            x       y       z     vdW  Elec       q    Type
REMARK                         _______ _______ _______ _____ _____    ______ ____
ROOT
ATOM      1  N   UNL     1      13.599  44.845  43.725  0.00  0.00    +0.000 NA
ATOM      2  C   UNL     1      12.539  45.250  42.797  0.00  0.00    +0.000 C 
ATOM      3  C   UNL     1      12.194  46.749  42.859  0.00  0.00    +0.000 C 
ATOM      4  C   UNL     1      12.089  47.311  44.308  0.00  0.00    +0.000 C 
ATOM      5  C   UNL     1      10.749  48.060  44.502  0.00  0.00    +0.000 C 
ATOM      6  C   UNL     1      10.508  48.576  45.925  0.00  0.00    +0.000 C 
ATOM      7  C   UNL     1      11.417  47.966  46.990  0.00  0.00    +0.000 C 
ATOM      8  C   UNL     1      11.728  46.491  46.755  0.00  0.00    +0.000 C 
ATOM      9  C   UNL     1      12.063  46.119  45.292  0.00  0.00    +0.000 C 
ATOM     10  C   UNL     1      13.378  45.332  45.121  0.00  0.00    +0.000 C 
ATOM     11  C   UNL     1      14.581  46.210  45.535  0.00  0.00    +0.000 C 
ATOM     12  C   UNL     1      14.503  47.649  45.084  0.00  0.00    +0.000 A 
ATOM     13  C   UNL     1      15.633  48.466  45.259  0.00  0.00    +0.000 A 
ATOM     14  C   UNL     1      15.617  49.809  44.882  0.00  0.00    +0.000 A 
ATOM     15  C   UNL     1      14.466  50.358  44.329  0.00  0.00    +0.000 A 
ATOM     16  C   UNL     1      13.345  49.546  44.136  0.00  0.00    +0.000 A 
ATOM     17  C   UNL     1      13.330  48.194  44.528  0.00  0.00    +0.000 A 
ENDROOT
BRANCH   1  19
ATOM     18  C   UNL     1      12.930  42.541  44.499  0.00  0.00    +0.000 C 
ATOM     19  C   UNL     1      13.916  43.386  43.679  0.00  0.00    +0.000 C 
BRANCH  19  20
ATOM     20  C   UNL     1      15.326  43.074  44.239  0.00  0.00    +0.000 C 
ATOM     21  N   UNL     1      16.362  43.701  43.593  0.00  0.00    +0.000 N 
ATOM     22  O   UNL     1      15.561  42.311  45.174  0.00  0.00    +0.000 OA
ATOM     23  H   UNL     1      17.279  43.569  44.001  0.00  0.00    +0.000 HD
ATOM     24  H   UNL     1      16.206  44.536  43.044  0.00  0.00    +0.000 HD
ENDBRANCH  19  20
ENDBRANCH   1  19
BRANCH  15  25
ATOM     25  O   UNL     1      14.316  51.648  43.902  0.00  0.00    +0.000 OA
BRANCH  25  26
ATOM     26  C   UNL     1      14.594  52.701  44.828  0.00  0.00    +0.000 C 
BRANCH  26  27
ATOM     27  C   UNL     1      13.931  52.510  46.174  0.00  0.00    +0.000 A 
ATOM     28  C   UNL     1      12.530  52.432  46.255  0.00  0.00    +0.000 A 
ATOM     29  C   UNL     1      11.892  52.289  47.490  0.00  0.00    +0.000 A 
ATOM     30  C   UNL     1      12.647  52.228  48.660  0.00  0.00    +0.000 A 
ATOM     31  C   UNL     1      14.031  52.324  48.585  0.00  0.00    +0.000 A 
ATOM     32  F   UNL     1      14.755  52.283  49.713  0.00  0.00    +0.000 F 
ATOM     33  C   UNL     1      14.677  52.469  47.361  0.00  0.00    +0.000 A 
ENDBRANCH  26  27
ENDBRANCH  25  26
ENDBRANCH  15  25
TORSDOF 5
ENDMDL
MODEL 3
REMARK VINA RESULT:    -6.213      4.267      8.666
REMARK INTER + INTRA:          -9.166
REMARK INTER:                  -8.029
REMARK INTRA:                  -1.137
REMARK UNBOUND:                -1.137
REMARK  Name = 
REMARK  6 active torsions:
REMARK  status: ('A' for Active; 'I' for Inactive)
REMARK    1  A    between atoms: C_1  and  C_2
REMARK    2  A    between atoms: C_2  and  C_3
REMARK    3  A    between atoms: C_2  and  N_6
REMARK    4  A    between atoms: C_20  and  O_21
REMARK    5  A    between atoms: O_21  and  C_22
REMARK    6  A    between atoms: C_22  and  C_23
REMARK                            x       y       z     vdW  Elec       q    Type
REMARK                         _______ _______ _______ _____ _____    ______ ____
ROOT
ATOM      1  N   UNL     1      13.821  40.510  54.072  0.00  0.00    +0.000 NA
ATOM      2  C   UNL     1      13.414  39.487  53.104  0.00  0.00    +0.000 C 
ATOM      3  C   UNL     1      14.389  38.299  53.005  0.00  0.00    +0.000 C 
ATOM      4  C   UNL     1      15.889  38.718  52.970  0.00  0.00    +0.000 C 
ATOM      5  C   UNL     1      16.606  38.064  51.765  0.00  0.00    +0.000 C 
ATOM      6  C   UNL     1      18.069  38.485  51.590  0.00  0.00    +0.000 C 
ATOM      7  C   UNL     1      18.476  39.731  52.373  0.00  0.00    +0.000 C 
ATOM      8  C   UNL     1      17.380  40.791  52.446  0.00  0.00    +0.000 C 
ATOM      9  C   UNL     1      15.963  40.245  52.738  0.00  0.00    +0.000 C 
ATOM     10  C   UNL     1      15.243  40.940  53.912  0.00  0.00    +0.000 C 
ATOM     11  C   UNL     1      15.995  40.665  55.235  0.00  0.00    +0.000 C 
ATOM     12  C   UNL     1      16.503  39.252  55.395  0.00  0.00    +0.000 A 
ATOM     13  C   UNL     1      17.034  38.871  56.640  0.00  0.00    +0.000 A 
ATOM     14  C   UNL     1      17.537  37.586  56.846  0.00  0.00    +0.000 A 
ATOM     15  C   UNL     1      17.523  36.664  55.806  0.00  0.00    +0.000 A 
ATOM     16  C   UNL     1      16.980  37.031  54.571  0.00  0.00    +0.000 A 
ATOM     17  C   UNL     1      16.486  38.328  54.333  0.00  0.00    +0.000 A 
ENDROOT
BRANCH   1  19
ATOM     18  C   UNL     1      13.498  42.963  53.591  0.00  0.00    +0.000 C 
ATOM     19  C   UNL     1      12.885  41.671  54.151  0.00  0.00    +0.000 C 
BRANCH  19  20
ATOM     20  C   UNL     1      12.462  41.986  55.608  0.00  0.00    +0.000 C 
ATOM     21  N   UNL     1      12.552  40.932  56.481  0.00  0.00    +0.000 N 
ATOM     22  O   UNL     1      12.047  43.074  56.002  0.00  0.00    +0.000 OA
ATOM     23  H   UNL     1      12.356  41.147  57.451  0.00  0.00    +0.000 HD
ATOM     24  H   UNL     1      13.150  40.141  56.285  0.00  0.00    +0.000 HD
ENDBRANCH  19  20
ENDBRANCH   1  19
BRANCH  15  25
ATOM     25  O   UNL     1      17.967  35.372  55.872  0.00  0.00    +0.000 OA
BRANCH  25  26
ATOM     26  C   UNL     1      19.025  35.069  56.783  0.00  0.00    +0.000 C 
BRANCH  26  27
ATOM     27  C   UNL     1      20.343  34.774  56.100  0.00  0.00    +0.000 A 
ATOM     28  C   UNL     1      20.385  34.633  54.702  0.00  0.00    +0.000 A 
ATOM     29  C   UNL     1      21.584  34.328  54.050  0.00  0.00    +0.000 A 
ATOM     30  C   UNL     1      22.752  34.153  54.789  0.00  0.00    +0.000 A 
ATOM     31  C   UNL     1      22.709  34.273  56.173  0.00  0.00    +0.000 A 
ATOM     32  F   UNL     1      23.831  34.088  56.885  0.00  0.00    +0.000 F 
ATOM     33  C   UNL     1      21.521  34.574  56.833  0.00  0.00    +0.000 A 
ENDBRANCH  26  27
ENDBRANCH  25  26
ENDBRANCH  15  25
TORSDOF 5
ENDMDL
