MODEL 1
REMARK VINA RESULT:    -6.703      0.000      0.000
REMARK INTER + INTRA:          -8.785
REMARK INTER:                  -8.049
REMARK INTRA:                  -0.736
REMARK UNBOUND:                -0.907
REMARK  Name = 
REMARK  4 active torsions:
REMARK  status: ('A' for Active; 'I' for Inactive)
REMARK    1  A    between atoms: C_1  and  C_2
REMARK    2  A    between atoms: N_4  and  C_5
REMARK    3  A    between atoms: C_8  and  N_9
REMARK    4  A    between atoms: N_9  and  C_10
REMARK                            x       y       z     vdW  Elec       q    Type
REMARK                         _______ _______ _______ _____ _____    ______ ____
ROOT
ATOM      1  C   UNL     1      13.521  45.666  45.819  0.00  0.00    +0.000 A 
ATOM      2  C   UNL     1      12.451  45.032  46.506  0.00  0.00    +0.000 A 
ATOM      3  C   UNL     1      12.304  43.629  46.638  0.00  0.00    +0.000 A 
ATOM      4  C   UNL     1      11.229  43.075  47.333  0.00  0.00    +0.000 A 
ATOM      5  C   UNL     1      10.285  43.913  47.905  0.00  0.00    +0.000 A 
ATOM      6  C   UNL     1      10.418  45.296  47.771  0.00  0.00    +0.000 A 
ATOM      7  C   UNL     1      11.478  45.872  47.081  0.00  0.00    +0.000 A 
ATOM      8  N   UNL     1      11.517  47.209  46.991  0.00  0.00    +0.000 NA
ATOM      9  C   UNL     1      12.519  47.800  46.325  0.00  0.00    +0.000 A 
ATOM     10  C   UNL     1      12.527  49.187  46.242  0.00  0.00    +0.000 A 
ATOM     11  C   UNL     1      13.533  49.883  45.569  0.00  0.00    +0.000 A 
ATOM     12  C   UNL     1      14.564  49.183  44.962  0.00  0.00    +0.000 A 
ATOM     13  C   UNL     1      14.578  47.791  45.033  0.00  0.00    +0.000 A 
ATOM     14  C   UNL     1      13.558  47.079  45.710  0.00  0.00    +0.000 A 
ENDROOT
BRANCH   1  15
ATOM     15  N   UNL     1      14.544  44.887  45.193  0.00  0.00    +0.000 N 
ATOM     16  H   UNL     1      14.767  44.076  45.766  0.00  0.00    +0.000 HD
BRANCH  15  20
ATOM     17  C   UNL     1      14.779  43.907  41.066  0.00  0.00    +0.000 A 
ATOM     18  C   UNL     1      15.786  43.536  41.955  0.00  0.00    +0.000 A 
ATOM     19  C   UNL     1      15.685  43.857  43.316  0.00  0.00    +0.000 A 
ATOM     20  C   UNL     1      14.568  44.533  43.821  0.00  0.00    +0.000 A 
ATOM     21  C   UNL     1      13.580  44.935  42.918  0.00  0.00    +0.000 A 
ATOM     22  C   UNL     1      13.677  44.615  41.558  0.00  0.00    +0.000 A 
BRANCH  17  26
ATOM     23  C   UNL     1      14.273  42.748  37.513  0.00  0.00    +0.000 C 
ATOM     24  C   UNL     1      13.925  42.818  38.979  0.00  0.00    +0.000 C 
ATOM     25  O   UNL     1      12.973  42.188  39.427  0.00  0.00    +0.000 OA
ATOM     26  N   UNL     1      14.799  43.623  39.685  0.00  0.00    +0.000 N 
ATOM     27  H   UNL     1      15.543  44.060  39.156  0.00  0.00    +0.000 HD
ENDBRANCH  17  26
ENDBRANCH  15  20
ENDBRANCH   1  15
TORSDOF 3
ENDMDL
MODEL 2
REMARK VINA RESULT:    -6.689      0.087      3.624
REMARK INTER + INTRA:          -8.768
REMARK INTER:                  -8.032
REMARK INTRA:                  -0.737
REMARK UNBOUND:                -0.907
REMARK  Name = 
REMARK  4 active torsions:
REMARK  status: ('A' for Active; 'I' for Inactive)
REMARK    1  A    between atoms: C_1  and  C_2
REMARK    2  A    between atoms: N_4  and  C_5
REMARK    3  A    between atoms: C_8  and  N_9
REMARK    4  A    between atoms: N_9  and  C_10
REMARK                            x       y       z     vdW  Elec       q    Type
REMARK                         _______ _______ _______ _____ _____    ______ ____
ROOT
ATOM      1  C   UNL     1      13.535  45.665  45.735  0.00  0.00    +0.000 A 
ATOM      2  C   UNL     1      13.587  47.082  45.659  0.00  0.00    +0.000 A 
ATOM      3  C   UNL     1      14.603  47.811  44.990  0.00  0.00    +0.000 A 
ATOM      4  C   UNL     1      14.588  49.204  44.950  0.00  0.00    +0.000 A 
ATOM      5  C   UNL     1      13.561  49.892  45.578  0.00  0.00    +0.000 A 
ATOM      6  C   UNL     1      12.563  49.182  46.246  0.00  0.00    +0.000 A 
ATOM      7  C   UNL     1      12.557  47.793  46.303  0.00  0.00    +0.000 A 
ATOM      8  N   UNL     1      11.566  47.196  46.980  0.00  0.00    +0.000 NA
ATOM      9  C   UNL     1      11.532  45.858  47.065  0.00  0.00    +0.000 A 
ATOM     10  C   UNL     1      10.498  45.270  47.782  0.00  0.00    +0.000 A 
ATOM     11  C   UNL     1      10.386  43.884  47.918  0.00  0.00    +0.000 A 
ATOM     12  C   UNL     1      11.328  43.058  47.325  0.00  0.00    +0.000 A 
ATOM     13  C   UNL     1      12.375  43.626  46.600  0.00  0.00    +0.000 A 
ATOM     14  C   UNL     1      12.496  45.031  46.462  0.00  0.00    +0.000 A 
ENDROOT
BRANCH   1  15
ATOM     15  N   UNL     1      14.549  44.867  45.121  0.00  0.00    +0.000 N 
ATOM     16  H   UNL     1      14.748  44.050  45.694  0.00  0.00    +0.000 HD
BRANCH  15  20
ATOM     17  C   UNL     1      14.819  43.887  40.995  0.00  0.00    +0.000 A 
ATOM     18  C   UNL     1      15.796  43.477  41.901  0.00  0.00    +0.000 A 
ATOM     19  C   UNL     1      15.684  43.799  43.260  0.00  0.00    +0.000 A 
ATOM     20  C   UNL     1      14.584  44.515  43.748  0.00  0.00    +0.000 A 
ATOM     21  C   UNL     1      13.627  44.954  42.830  0.00  0.00    +0.000 A 
ATOM     22  C   UNL     1      13.736  44.634  41.471  0.00  0.00    +0.000 A 
BRANCH  17  26
ATOM     23  C   UNL     1      14.312  42.783  37.425  0.00  0.00    +0.000 C 
ATOM     24  C   UNL     1      13.932  42.880  38.881  0.00  0.00    +0.000 C 
ATOM     25  O   UNL     1      12.917  42.333  39.300  0.00  0.00    +0.000 OA
ATOM     26  N   UNL     1      14.852  43.605  39.614  0.00  0.00    +0.000 N 
ATOM     27  H   UNL     1      15.645  43.978  39.107  0.00  0.00    +0.000 HD
ENDBRANCH  17  26
ENDBRANCH  15  20
ENDBRANCH   1  15
TORSDOF 3
ENDMDL
MODEL 3
REMARK VINA RESULT:    -5.773      4.403      7.852
REMARK INTER + INTRA:          -7.692
REMARK INTER:                  -6.785
REMARK INTRA:                  -0.907
REMARK UNBOUND:                -0.907
REMARK  Name = 
REMARK  4 active torsions:
REMARK  status: ('A' for Active; 'I' for Inactive)
REMARK    1  A    between atoms: C_1  and  C_2
REMARK    2  A    between atoms: N_4  and  C_5
REMARK    3  A    between atoms: C_8  and  N_9
REMARK    4  A    between atoms: N_9  and  C_10
REMARK                            x       y       z     vdW  Elec       q    Type
REMARK                         _______ _______ _______ _____ _____    ______ ____
ROOT
ATOM      1  C   UNL     1      13.591  42.702  45.563  0.00  0.00    +0.000 A 
ATOM      2  C   UNL     1      14.647  42.335  44.688  0.00  0.00    +0.000 A 
ATOM      3  C   UNL     1      15.049  40.999  44.435  0.00  0.00    +0.000 A 
ATOM      4  C   UNL     1      16.093  40.711  43.556  0.00  0.00    +0.000 A 
ATOM      5  C   UNL     1      16.752  41.751  42.919  0.00  0.00    +0.000 A 
ATOM      6  C   UNL     1      16.368  43.069  43.170  0.00  0.00    +0.000 A 
ATOM      7  C   UNL     1      15.333  43.382  44.044  0.00  0.00    +0.000 A 
ATOM      8  N   UNL     1      15.042  44.676  44.235  0.00  0.00    +0.000 NA
ATOM      9  C   UNL     1      14.057  45.018  45.078  0.00  0.00    +0.000 A 
ATOM     10  C   UNL     1      13.786  46.368  45.262  0.00  0.00    +0.000 A 
ATOM     11  C   UNL     1      12.776  46.810  46.119  0.00  0.00    +0.000 A 
ATOM     12  C   UNL     1      12.011  45.886  46.813  0.00  0.00    +0.000 A 
ATOM     13  C   UNL     1      12.264  44.525  46.643  0.00  0.00    +0.000 A 
ATOM     14  C   UNL     1      13.290  44.071  45.779  0.00  0.00    +0.000 A 
ENDROOT
BRANCH   1  15
ATOM     15  N   UNL     1      12.852  41.702  46.269  0.00  0.00    +0.000 N 
ATOM     16  H   UNL     1      12.674  40.905  45.663  0.00  0.00    +0.000 HD
BRANCH  15  20
ATOM     17  C   UNL     1      13.651  40.527  50.273  0.00  0.00    +0.000 A 
ATOM     18  C   UNL     1      12.374  40.917  49.876  0.00  0.00    +0.000 A 
ATOM     19  C   UNL     1      12.126  41.290  48.548  0.00  0.00    +0.000 A 
ATOM     20  C   UNL     1      13.141  41.257  47.584  0.00  0.00    +0.000 A 
ATOM     21  C   UNL     1      14.427  40.900  47.996  0.00  0.00    +0.000 A 
ATOM     22  C   UNL     1      14.678  40.527  49.322  0.00  0.00    +0.000 A 
BRANCH  17  26
ATOM     23  C   UNL     1      14.640  40.164  53.895  0.00  0.00    +0.000 C 
ATOM     24  C   UNL     1      14.339  40.951  52.643  0.00  0.00    +0.000 C 
ATOM     25  O   UNL     1      14.439  42.173  52.634  0.00  0.00    +0.000 OA
ATOM     26  N   UNL     1      13.987  40.134  51.585  0.00  0.00    +0.000 N 
ATOM     27  H   UNL     1      13.968  39.139  51.766  0.00  0.00    +0.000 HD
ENDBRANCH  17  26
ENDBRANCH  15  20
ENDBRANCH   1  15
TORSDOF 3
ENDMDL
