MODEL 1
REMARK VINA RESULT:    -6.433      0.000      0.000
REMARK INTER + INTRA:          -9.030
REMARK INTER:                  -7.812
REMARK INTRA:                  -1.218
REMARK UNBOUND:                -1.092
REMARK  Name = 
REMARK  5 active torsions:
REMARK  status: ('A' for Active; 'I' for Inactive)
REMARK    1  A    between atoms: C_1  and  C_2
REMARK    2  A    between atoms: C_5  and  N_6
REMARK    3  A    between atoms: C_7  and  C_9
REMARK    4  A    between atoms: C_11  and  C_12
REMARK    5  A    between atoms: N_20  and  C_21
REMARK                            x       y       z     vdW  Elec       q    Type
REMARK                         _______ _______ _______ _____ _____    ______ ____
ROOT
ATOM      1  C   UNL     1      14.010  41.051  46.548  0.00  0.00    +0.000 A 
ATOM      2  N   UNL     1      14.088  40.956  45.176  0.00  0.00    +0.000 NA
ATOM      3  C   UNL     1      13.892  42.191  44.752  0.00  0.00    +0.000 A 
ATOM      4  N   UNL     1      13.682  43.028  45.849  0.00  0.00    +0.000 N 
ATOM      5  N   UNL     1      13.807  42.297  46.988  0.00  0.00    +0.000 NA
ENDROOT
BRANCH   3   6
ATOM      6  C   UNL     1      13.960  42.559  43.342  0.00  0.00    +0.000 A 
ATOM      7  C   UNL     1      12.789  42.492  42.569  0.00  0.00    +0.000 A 
ATOM      8  C   UNL     1      12.807  42.867  41.223  0.00  0.00    +0.000 A 
ATOM      9  C   UNL     1      13.994  43.318  40.647  0.00  0.00    +0.000 A 
ATOM     10 CL   UNL     1      14.015  43.775  38.989  0.00  0.00    +0.000 Cl
ATOM     11  C   UNL     1      15.161  43.404  41.402  0.00  0.00    +0.000 A 
ATOM     12  C   UNL     1      15.143  43.030  42.749  0.00  0.00    +0.000 A 
ATOM     13 CL   UNL     1      16.625  43.141  43.635  0.00  0.00    +0.000 Cl
ENDBRANCH   3   6
BRANCH   4  14
ATOM     14  C   UNL     1      13.396  44.427  45.950  0.00  0.00    +0.000 A 
ATOM     15  C   UNL     1      14.248  45.421  45.453  0.00  0.00    +0.000 A 
ATOM     16  C   UNL     1      13.908  46.775  45.581  0.00  0.00    +0.000 A 
ATOM     17  C   UNL     1      12.718  47.147  46.202  0.00  0.00    +0.000 A 
ATOM     18 CL   UNL     1      12.315  48.811  46.352  0.00  0.00    +0.000 Cl
ATOM     19  C   UNL     1      11.857  46.174  46.695  0.00  0.00    +0.000 A 
ATOM     20  C   UNL     1      12.192  44.822  46.567  0.00  0.00    +0.000 A 
ENDBRANCH   4  14
BRANCH   1  22
ATOM     21  N   UNL     1      14.847  40.165  48.595  0.00  0.00    +0.000 N 
ATOM     22  C   UNL     1      14.163  39.872  47.427  0.00  0.00    +0.000 C 
ATOM     23  O   UNL     1      13.727  38.755  47.164  0.00  0.00    +0.000 OA
ATOM     24  H   UNL     1      15.052  41.147  48.752  0.00  0.00    +0.000 HD
BRANCH  21  29
ATOM     25  C   UNL     1      18.140  40.060  52.302  0.00  0.00    +0.000 C 
ATOM     26  C   UNL     1      17.249  38.974  51.699  0.00  0.00    +0.000 C 
ATOM     27  C   UNL     1      15.774  39.173  52.095  0.00  0.00    +0.000 C 
ATOM     28  C   UNL     1      14.997  39.945  51.034  0.00  0.00    +0.000 C 
ATOM     29  C   UNL     1      14.984  39.209  49.682  0.00  0.00    +0.000 C 
ATOM     30  C   UNL     1      16.227  38.329  49.472  0.00  0.00    +0.000 C 
ATOM     31  C   UNL     1      17.450  38.909  50.174  0.00  0.00    +0.000 C 
ENDBRANCH  21  29
ENDBRANCH   1  22
TORSDOF 4
ENDMDL
MODEL 2
REMARK VINA RESULT:    -6.406      2.937      5.148
REMARK INTER + INTRA:          -8.996
REMARK INTER:                  -7.950
REMARK INTRA:                  -1.046
REMARK UNBOUND:                -1.092
REMARK  Name = 
REMARK  5 active torsions:
REMARK  status: ('A' for Active; 'I' for Inactive)
REMARK    1  A    between atoms: C_1  and  C_2
REMARK    2  A    between atoms: C_5  and  N_6
REMARK    3  A    between atoms: C_7  and  C_9
REMARK    4  A    between atoms: C_11  and  C_12
REMARK    5  A    between atoms: N_20  and  C_21
REMARK                            x       y       z     vdW  Elec       q    Type
REMARK                         _______ _______ _______ _____ _____    ______ ____
ROOT
ATOM      1  C   UNL     1      14.963  40.501  47.912  0.00  0.00    +0.000 A 
ATOM      2  N   UNL     1      14.250  41.600  47.486  0.00  0.00    +0.000 NA
ATOM      3  C   UNL     1      14.532  41.692  46.199  0.00  0.00    +0.000 A 
ATOM      4  N   UNL     1      15.418  40.672  45.847  0.00  0.00    +0.000 N 
ATOM      5  N   UNL     1      15.646  39.893  46.937  0.00  0.00    +0.000 NA
ENDROOT
BRANCH   3   6
ATOM      6  C   UNL     1      13.925  42.695  45.331  0.00  0.00    +0.000 A 
ATOM      7  C   UNL     1      14.395  44.017  45.396  0.00  0.00    +0.000 A 
ATOM      8  C   UNL     1      13.860  44.999  44.557  0.00  0.00    +0.000 A 
ATOM      9  C   UNL     1      12.862  44.661  43.644  0.00  0.00    +0.000 A 
ATOM     10 CL   UNL     1      12.203  45.872  42.616  0.00  0.00    +0.000 Cl
ATOM     11  C   UNL     1      12.395  43.351  43.557  0.00  0.00    +0.000 A 
ATOM     12  C   UNL     1      12.930  42.369  44.395  0.00  0.00    +0.000 A 
ATOM     13 CL   UNL     1      12.301  40.763  44.256  0.00  0.00    +0.000 Cl
ENDBRANCH   3   6
BRANCH   4  14
ATOM     14  C   UNL     1      16.055  40.338  44.610  0.00  0.00    +0.000 A 
ATOM     15  C   UNL     1      16.281  41.270  43.588  0.00  0.00    +0.000 A 
ATOM     16  C   UNL     1      16.915  40.879  42.400  0.00  0.00    +0.000 A 
ATOM     17  C   UNL     1      17.328  39.561  42.222  0.00  0.00    +0.000 A 
ATOM     18 CL   UNL     1      18.103  39.097  40.760  0.00  0.00    +0.000 Cl
ATOM     19  C   UNL     1      17.118  38.625  43.228  0.00  0.00    +0.000 A 
ATOM     20  C   UNL     1      16.489  39.011  44.415  0.00  0.00    +0.000 A 
ENDBRANCH   4  14
BRANCH   1  22
ATOM     21  N   UNL     1      15.423  41.002  50.197  0.00  0.00    +0.000 N 
ATOM     22  C   UNL     1      14.938  40.046  49.319  0.00  0.00    +0.000 C 
ATOM     23  O   UNL     1      14.525  38.948  49.681  0.00  0.00    +0.000 OA
ATOM     24  H   UNL     1      15.622  41.911  49.792  0.00  0.00    +0.000 HD
BRANCH  21  29
ATOM     25  C   UNL     1      14.244  44.340  53.670  0.00  0.00    +0.000 C 
ATOM     26  C   UNL     1      15.002  43.014  53.746  0.00  0.00    +0.000 C 
ATOM     27  C   UNL     1      14.050  41.813  53.595  0.00  0.00    +0.000 C 
ATOM     28  C   UNL     1      13.979  41.317  52.155  0.00  0.00    +0.000 C 
ATOM     29  C   UNL     1      15.351  40.846  51.640  0.00  0.00    +0.000 C 
ATOM     30  C   UNL     1      16.522  41.574  52.319  0.00  0.00    +0.000 C 
ATOM     31  C   UNL     1      16.146  42.997  52.715  0.00  0.00    +0.000 C 
ENDBRANCH  21  29
ENDBRANCH   1  22
TORSDOF 4
ENDMDL
MODEL 3
REMARK VINA RESULT:    -6.160      1.588      4.505
REMARK INTER + INTRA:          -8.693
REMARK INTER:                  -7.601
REMARK INTRA:                  -1.092
REMARK UNBOUND:                -1.092
REMARK  Name = 
REMARK  5 active torsions:
REMARK  status: ('A' for Active; 'I' for Inactive)
REMARK    1  A    between atoms: C_1  and  C_2
REMARK    2  A    between atoms: C_5  and  N_6
REMARK    3  A    between atoms: C_7  and  C_9
REMARK    4  A    between atoms: C_11  and  C_12
REMARK    5  A    between atoms: N_20  and  C_21
REMARK                            x       y       z     vdW  Elec       q    Type
REMARK                         _______ _______ _______ _____ _____    ______ ____
ROOT
ATOM      1  C   UNL     1      15.360  41.030  45.973  0.00  0.00    +0.000 A 
ATOM      2  N   UNL     1      14.841  42.112  46.648  0.00  0.00    +0.000 NA
ATOM      3  C   UNL     1      14.398  42.909  45.693  0.00  0.00    +0.000 A 
ATOM      4  N   UNL     1      14.657  42.329  44.450  0.00  0.00    +0.000 N 
ATOM      5  N   UNL     1      15.227  41.110  44.646  0.00  0.00    +0.000 NA
ENDROOT
BRANCH   3   6
ATOM      6  C   UNL     1      13.702  44.160  45.973  0.00  0.00    +0.000 A 
ATOM      7  C   UNL     1      14.288  45.367  45.558  0.00  0.00    +0.000 A 
ATOM      8  C   UNL     1      13.635  46.583  45.779  0.00  0.00    +0.000 A 
ATOM      9  C   UNL     1      12.390  46.596  46.407  0.00  0.00    +0.000 A 
ATOM     10 CL   UNL     1      11.591  48.094  46.682  0.00  0.00    +0.000 Cl
ATOM     11  C   UNL     1      11.788  45.407  46.812  0.00  0.00    +0.000 A 
ATOM     12  C   UNL     1      12.440  44.191  46.590  0.00  0.00    +0.000 A 
ATOM     13 CL   UNL     1      11.654  42.746  47.128  0.00  0.00    +0.000 Cl
ENDBRANCH   3   6
BRANCH   4  14
ATOM     14  C   UNL     1      14.418  42.776  43.112  0.00  0.00    +0.000 A 
ATOM     15  C   UNL     1      15.336  43.545  42.385  0.00  0.00    +0.000 A 
ATOM     16  C   UNL     1      15.042  43.949  41.075  0.00  0.00    +0.000 A 
ATOM     17  C   UNL     1      13.834  43.590  40.481  0.00  0.00    +0.000 A 
ATOM     18 CL   UNL     1      13.487  44.093  38.875  0.00  0.00    +0.000 Cl
ATOM     19  C   UNL     1      12.914  42.822  41.185  0.00  0.00    +0.000 A 
ATOM     20  C   UNL     1      13.205  42.414  42.491  0.00  0.00    +0.000 A 
ENDBRANCH   4  14
BRANCH   1  22
ATOM     21  N   UNL     1      15.521  39.753  47.980  0.00  0.00    +0.000 N 
ATOM     22  C   UNL     1      15.980  39.888  46.680  0.00  0.00    +0.000 C 
ATOM     23  O   UNL     1      16.804  39.130  46.175  0.00  0.00    +0.000 OA
ATOM     24  H   UNL     1      14.755  40.365  48.242  0.00  0.00    +0.000 HD
BRANCH  21  29
ATOM     25  C   UNL     1      15.129  39.228  52.896  0.00  0.00    +0.000 C 
ATOM     26  C   UNL     1      15.968  38.485  51.855  0.00  0.00    +0.000 C 
ATOM     27  C   UNL     1      15.097  37.554  50.992  0.00  0.00    +0.000 C 
ATOM     28  C   UNL     1      14.661  38.220  49.691  0.00  0.00    +0.000 C 
ATOM     29  C   UNL     1      15.865  38.615  48.817  0.00  0.00    +0.000 C 
ATOM     30  C   UNL     1      17.126  38.917  49.643  0.00  0.00    +0.000 C 
ATOM     31  C   UNL     1      16.777  39.488  51.012  0.00  0.00    +0.000 C 
ENDBRANCH  21  29
ENDBRANCH   1  22
TORSDOF 4
ENDMDL
