MODEL 1
REMARK VINA RESULT:    -6.762      0.000      0.000
REMARK INTER + INTRA:         -10.153
REMARK INTER:                  -9.325
REMARK INTRA:                  -0.828
REMARK UNBOUND:                -1.612
REMARK  Name = 
REMARK  6 active torsions:
REMARK  status: ('A' for Active; 'I' for Inactive)
REMARK    1  A    between atoms: C_1  and  C_2
REMARK    2  A    between atoms: C_2  and  C_3
REMARK    3  A    between atoms: C_3  and  O_4
REMARK    4  A    between atoms: C_26  and  C_27
REMARK    5  A    between atoms: C_27  and  N_28
REMARK    6  A    between atoms: N_28  and  C_29
REMARK                            x       y       z     vdW  Elec       q    Type
REMARK                         _______ _______ _______ _____ _____    ______ ____
ROOT
ATOM      1  C   UNL     1      15.010  42.094  42.147  0.00  0.00    +0.000 C 
ATOM      2  C   UNL     1      14.650  43.566  41.842  0.00  0.00    +0.000 C 
ATOM      3  O   UNL     1      15.183  44.163  40.907  0.00  0.00    +0.000 OA
ATOM      4  O   UNL     1      13.692  44.158  42.588  0.00  0.00    +0.000 OA
ATOM      5  C   UNL     1      13.334  43.696  43.907  0.00  0.00    +0.000 C 
ATOM      6  C   UNL     1      14.177  42.585  44.423  0.00  0.00    +0.000 A 
ATOM      7  C   UNL     1      14.973  41.839  43.634  0.00  0.00    +0.000 A 
ATOM      8  C   UNL     1      15.762  40.755  44.206  0.00  0.00    +0.000 A 
ATOM      9  C   UNL     1      15.680  40.516  45.518  0.00  0.00    +0.000 A 
ATOM     10  N   UNL     1      14.866  41.274  46.335  0.00  0.00    +0.000 N 
ATOM     11  C   UNL     1      14.087  42.313  45.895  0.00  0.00    +0.000 A 
ATOM     12  O   UNL     1      13.358  42.983  46.618  0.00  0.00    +0.000 OA
ATOM     13  C   UNL     1      14.940  40.822  47.729  0.00  0.00    +0.000 C 
ATOM     14  C   UNL     1      15.928  39.694  47.653  0.00  0.00    +0.000 A 
ATOM     15  C   UNL     1      16.346  39.515  46.343  0.00  0.00    +0.000 A 
ATOM     16  N   UNL     1      17.202  38.584  45.914  0.00  0.00    +0.000 NA
ATOM     17  C   UNL     1      17.671  37.747  46.854  0.00  0.00    +0.000 A 
ATOM     18  C   UNL     1      18.546  36.755  46.436  0.00  0.00    +0.000 A 
ATOM     19  C   UNL     1      19.081  35.819  47.323  0.00  0.00    +0.000 A 
ATOM     20  C   UNL     1      18.735  35.869  48.664  0.00  0.00    +0.000 A 
ATOM     21  C   UNL     1      17.861  36.858  49.117  0.00  0.00    +0.000 A 
ATOM     22  C   UNL     1      17.316  37.823  48.237  0.00  0.00    +0.000 A 
ATOM     23  C   UNL     1      16.426  38.858  48.645  0.00  0.00    +0.000 A 
ENDROOT
BRANCH   1  25
ATOM     24  C   UNL     1      14.702  39.985  40.688  0.00  0.00    +0.000 C 
ATOM     25  C   UNL     1      14.032  41.150  41.413  0.00  0.00    +0.000 C 
ENDBRANCH   1  25
BRANCH   1  26
ATOM     26  O   UNL     1      16.341  41.847  41.671  0.00  0.00    +0.000 OA
ATOM     27  H   UNL     1      16.585  42.626  41.130  0.00  0.00    +0.000 HD
ENDBRANCH   1  26
BRANCH  23  28
ATOM     28  C   UNL     1      15.966  39.061  50.068  0.00  0.00    +0.000 C 
BRANCH  28  29
ATOM     29  N   UNL     1      16.950  39.878  50.760  0.00  0.00    +0.000 N 
ATOM     30  H   UNL     1      17.483  40.453  50.112  0.00  0.00    +0.000 HD
BRANCH  29  31
ATOM     31  C   UNL     1      16.586  40.633  51.895  0.00  0.00    +0.000 A 
ATOM     32  C   UNL     1      15.978  41.893  51.779  0.00  0.00    +0.000 A 
ATOM     33  C   UNL     1      15.603  42.625  52.904  0.00  0.00    +0.000 A 
ATOM     34  C   UNL     1      15.802  42.099  54.174  0.00  0.00    +0.000 A 
ATOM     35  C   UNL     1      16.354  40.824  54.338  0.00  0.00    +0.000 A 
ATOM     36  C   UNL     1      16.516  40.296  55.631  0.00  0.00    +0.000 A 
ATOM     37  C   UNL     1      17.035  39.018  55.826  0.00  0.00    +0.000 A 
ATOM     38  C   UNL     1      17.392  38.248  54.729  0.00  0.00    +0.000 A 
ATOM     39  C   UNL     1      17.241  38.763  53.439  0.00  0.00    +0.000 A 
ATOM     40  C   UNL     1      16.735  40.064  53.201  0.00  0.00    +0.000 A 
ENDBRANCH  29  31
ENDBRANCH  28  29
ENDBRANCH  23  28
TORSDOF 5
ENDMDL
MODEL 2
REMARK VINA RESULT:    -6.750      3.736      9.157
REMARK INTER + INTRA:         -10.137
REMARK INTER:                  -9.272
REMARK INTRA:                  -0.865
REMARK UNBOUND:                -1.612
REMARK  Name = 
REMARK  6 active torsions:
REMARK  status: ('A' for Active; 'I' for Inactive)
REMARK    1  A    between atoms: C_1  and  C_2
REMARK    2  A    between atoms: C_2  and  C_3
REMARK    3  A    between atoms: C_3  and  O_4
REMARK    4  A    between atoms: C_26  and  C_27
REMARK    5  A    between atoms: C_27  and  N_28
REMARK    6  A    between atoms: N_28  and  C_29
REMARK                            x       y       z     vdW  Elec       q    Type
REMARK                         _______ _______ _______ _____ _____    ______ ____
ROOT
ATOM      1  C   UNL     1      18.956  36.011  51.259  0.00  0.00    +0.000 C 
ATOM      2  C   UNL     1      18.317  35.746  52.641  0.00  0.00    +0.000 C 
ATOM      3  O   UNL     1      18.425  34.645  53.183  0.00  0.00    +0.000 OA
ATOM      4  O   UNL     1      17.694  36.768  53.265  0.00  0.00    +0.000 OA
ATOM      5  C   UNL     1      17.179  37.915  52.557  0.00  0.00    +0.000 C 
ATOM      6  C   UNL     1      17.291  37.831  51.076  0.00  0.00    +0.000 A 
ATOM      7  C   UNL     1      18.094  36.949  50.450  0.00  0.00    +0.000 A 
ATOM      8  C   UNL     1      18.165  36.933  48.995  0.00  0.00    +0.000 A 
ATOM      9  C   UNL     1      17.429  37.802  48.299  0.00  0.00    +0.000 A 
ATOM     10  N   UNL     1      16.605  38.712  48.931  0.00  0.00    +0.000 N 
ATOM     11  C   UNL     1      16.466  38.807  50.292  0.00  0.00    +0.000 A 
ATOM     12  O   UNL     1      15.740  39.617  50.856  0.00  0.00    +0.000 OA
ATOM     13  C   UNL     1      15.902  39.560  47.962  0.00  0.00    +0.000 C 
ATOM     14  C   UNL     1      16.398  39.031  46.648  0.00  0.00    +0.000 A 
ATOM     15  C   UNL     1      17.307  38.004  46.860  0.00  0.00    +0.000 A 
ATOM     16  N   UNL     1      17.959  37.328  45.912  0.00  0.00    +0.000 NA
ATOM     17  C   UNL     1      17.709  37.707  44.648  0.00  0.00    +0.000 A 
ATOM     18  C   UNL     1      18.388  37.037  43.641  0.00  0.00    +0.000 A 
ATOM     19  C   UNL     1      18.219  37.359  42.294  0.00  0.00    +0.000 A 
ATOM     20  C   UNL     1      17.352  38.379  41.936  0.00  0.00    +0.000 A 
ATOM     21  C   UNL     1      16.649  39.070  42.925  0.00  0.00    +0.000 A 
ATOM     22  C   UNL     1      16.798  38.751  44.296  0.00  0.00    +0.000 A 
ATOM     23  C   UNL     1      16.101  39.417  45.346  0.00  0.00    +0.000 A 
ENDROOT
BRANCH   1  25
ATOM     24  C   UNL     1      21.480  35.803  50.752  0.00  0.00    +0.000 C 
ATOM     25  C   UNL     1      20.373  36.600  51.438  0.00  0.00    +0.000 C 
ENDBRANCH   1  25
BRANCH   1  26
ATOM     26  O   UNL     1      19.056  34.762  50.560  0.00  0.00    +0.000 OA
ATOM     27  H   UNL     1      18.728  34.931  49.652  0.00  0.00    +0.000 HD
ENDBRANCH   1  26
BRANCH  23  28
ATOM     28  C   UNL     1      15.110  40.533  45.125  0.00  0.00    +0.000 C 
BRANCH  28  29
ATOM     29  N   UNL     1      15.845  41.754  44.840  0.00  0.00    +0.000 N 
ATOM     30  H   UNL     1      16.836  41.572  44.698  0.00  0.00    +0.000 HD
BRANCH  29  31
ATOM     31  C   UNL     1      15.375  42.668  43.873  0.00  0.00    +0.000 A 
ATOM     32  C   UNL     1      15.574  42.456  42.500  0.00  0.00    +0.000 A 
ATOM     33  C   UNL     1      15.089  43.352  41.549  0.00  0.00    +0.000 A 
ATOM     34  C   UNL     1      14.366  44.468  41.950  0.00  0.00    +0.000 A 
ATOM     35  C   UNL     1      14.094  44.692  43.304  0.00  0.00    +0.000 A 
ATOM     36  C   UNL     1      13.332  45.810  43.686  0.00  0.00    +0.000 A 
ATOM     37  C   UNL     1      13.020  46.044  45.024  0.00  0.00    +0.000 A 
ATOM     38  C   UNL     1      13.460  45.158  45.996  0.00  0.00    +0.000 A 
ATOM     39  C   UNL     1      14.223  44.046  45.630  0.00  0.00    +0.000 A 
ATOM     40  C   UNL     1      14.577  43.784  44.283  0.00  0.00    +0.000 A 
ENDBRANCH  29  31
ENDBRANCH  28  29
ENDBRANCH  23  28
TORSDOF 5
ENDMDL
MODEL 3
REMARK VINA RESULT:    -6.673      3.250      5.624
REMARK INTER + INTRA:         -10.041
REMARK INTER:                  -8.429
REMARK INTRA:                  -1.612
REMARK UNBOUND:                -1.612
REMARK  Name = 
REMARK  6 active torsions:
REMARK  status: ('A' for Active; 'I' for Inactive)
REMARK    1  A    between atoms: C_1  and  C_2
REMARK    2  A    between atoms: C_2  and  C_3
REMARK    3  A    between atoms: C_3  and  O_4
REMARK    4  A    between atoms: C_26  and  C_27
REMARK    5  A    between atoms: C_27  and  N_28
REMARK    6  A    between atoms: N_28  and  C_29
REMARK                            x       y       z     vdW  Elec       q    Type
REMARK                         _______ _______ _______ _____ _____    ______ ____
ROOT
ATOM      1  C   UNL     1      13.736  44.553  44.442  0.00  0.00    +0.000 C 
ATOM      2  C   UNL     1      14.482  44.209  43.132  0.00  0.00    +0.000 C 
ATOM      3  O   UNL     1      14.071  44.622  42.047  0.00  0.00    +0.000 OA
ATOM      4  O   UNL     1      15.627  43.499  43.215  0.00  0.00    +0.000 OA
ATOM      5  C   UNL     1      15.941  42.656  44.343  0.00  0.00    +0.000 C 
ATOM      6  C   UNL     1      14.856  42.547  45.355  0.00  0.00    +0.000 A 
ATOM      7  C   UNL     1      13.817  43.401  45.413  0.00  0.00    +0.000 A 
ATOM      8  C   UNL     1      12.798  43.243  46.442  0.00  0.00    +0.000 A 
ATOM      9  C   UNL     1      12.912  42.244  47.321  0.00  0.00    +0.000 A 
ATOM     10  N   UNL     1      13.975  41.364  47.272  0.00  0.00    +0.000 N 
ATOM     11  C   UNL     1      14.983  41.427  46.344  0.00  0.00    +0.000 A 
ATOM     12  O   UNL     1      15.930  40.651  46.302  0.00  0.00    +0.000 OA
ATOM     13  C   UNL     1      13.886  40.360  48.337  0.00  0.00    +0.000 C 
ATOM     14  C   UNL     1      12.611  40.737  49.035  0.00  0.00    +0.000 A 
ATOM     15  C   UNL     1      12.054  41.857  48.434  0.00  0.00    +0.000 A 
ATOM     16  N   UNL     1      10.933  42.474  48.817  0.00  0.00    +0.000 NA
ATOM     17  C   UNL     1      10.319  41.955  49.892  0.00  0.00    +0.000 A 
ATOM     18  C   UNL     1       9.164  42.587  50.327  0.00  0.00    +0.000 A 
ATOM     19  C   UNL     1       8.454  42.144  51.444  0.00  0.00    +0.000 A 
ATOM     20  C   UNL     1       8.906  41.043  52.152  0.00  0.00    +0.000 A 
ATOM     21  C   UNL     1      10.064  40.381  51.738  0.00  0.00    +0.000 A 
ATOM     22  C   UNL     1      10.792  40.807  50.601  0.00  0.00    +0.000 A 
ATOM     23  C   UNL     1      11.973  40.166  50.129  0.00  0.00    +0.000 A 
ENDROOT
BRANCH   1  25
ATOM     24  C   UNL     1      13.332  46.689  45.836  0.00  0.00    +0.000 C 
ATOM     25  C   UNL     1      14.336  45.831  45.068  0.00  0.00    +0.000 C 
ENDBRANCH   1  25
BRANCH   1  26
ATOM     26  O   UNL     1      12.357  44.792  44.127  0.00  0.00    +0.000 OA
ATOM     27  H   UNL     1      12.174  45.718  44.390  0.00  0.00    +0.000 HD
ENDBRANCH   1  26
BRANCH  23  28
ATOM     28  C   UNL     1      12.586  38.947  50.774  0.00  0.00    +0.000 C 
BRANCH  28  29
ATOM     29  N   UNL     1      13.203  39.347  52.028  0.00  0.00    +0.000 N 
ATOM     30  H   UNL     1      13.147  38.610  52.727  0.00  0.00    +0.000 HD
BRANCH  29  31
ATOM     31  C   UNL     1      14.486  39.934  52.042  0.00  0.00    +0.000 A 
ATOM     32  C   UNL     1      15.602  39.281  51.498  0.00  0.00    +0.000 A 
ATOM     33  C   UNL     1      16.863  39.875  51.497  0.00  0.00    +0.000 A 
ATOM     34  C   UNL     1      17.030  41.152  52.017  0.00  0.00    +0.000 A 
ATOM     35  C   UNL     1      15.937  41.865  52.520  0.00  0.00    +0.000 A 
ATOM     36  C   UNL     1      16.122  43.170  53.010  0.00  0.00    +0.000 A 
ATOM     37  C   UNL     1      15.047  43.916  53.491  0.00  0.00    +0.000 A 
ATOM     38  C   UNL     1      13.773  43.369  53.480  0.00  0.00    +0.000 A 
ATOM     39  C   UNL     1      13.576  42.072  53.000  0.00  0.00    +0.000 A 
ATOM     40  C   UNL     1      14.645  41.275  52.521  0.00  0.00    +0.000 A 
ENDBRANCH  29  31
ENDBRANCH  28  29
ENDBRANCH  23  28
TORSDOF 5
ENDMDL
