MODEL 1
REMARK VINA RESULT:    -6.723      0.000      0.000
REMARK INTER + INTRA:         -11.316
REMARK INTER:                  -9.741
REMARK INTRA:                  -1.575
REMARK UNBOUND:                -1.253
REMARK  Name = 
REMARK  9 active torsions:
REMARK  status: ('A' for Active; 'I' for Inactive)
REMARK    1  A    between atoms: C_2  and  O_3
REMARK    2  A    between atoms: C_2  and  C_4
REMARK    3  A    between atoms: C_4  and  C_5
REMARK    4  A    between atoms: C_5  and  C_6
REMARK    5  A    between atoms: C_7  and  C_8
REMARK    6  A    between atoms: C_8  and  C_9
REMARK    7  A    between atoms: C_21  and  N_22
REMARK    8  A    between atoms: N_22  and  S_23
REMARK    9  A    between atoms: S_23  and  C_26
REMARK                            x       y       z     vdW  Elec       q    Type
REMARK                         _______ _______ _______ _____ _____    ______ ____
ROOT
ATOM      1  C   UNL     1      13.392  48.691  45.487  0.00  0.00    +0.000 A 
ATOM      2  C   UNL     1      12.405  49.494  46.121  0.00  0.00    +0.000 A 
ATOM      3  C   UNL     1      11.386  48.872  46.862  0.00  0.00    +0.000 A 
ATOM      4  C   UNL     1      11.329  47.492  46.992  0.00  0.00    +0.000 A 
ATOM      5  C   UNL     1      12.298  46.683  46.391  0.00  0.00    +0.000 A 
ATOM      6  C   UNL     1      13.353  47.273  45.658  0.00  0.00    +0.000 A 
ATOM      7  C   UNL     1      14.408  46.378  45.029  0.00  0.00    +0.000 C 
ATOM      8  C   UNL     1      14.448  44.955  45.583  0.00  0.00    +0.000 C 
ATOM      9  C   UNL     1      13.040  44.378  45.623  0.00  0.00    +0.000 C 
ATOM     10  C   UNL     1      12.194  45.190  46.605  0.00  0.00    +0.000 C 
ENDROOT
BRANCH   9  11
ATOM     11  N   UNL     1      13.091  42.979  46.070  0.00  0.00    +0.000 NA
ATOM     12  H   UNL     1      13.809  42.684  46.731  0.00  0.00    +0.000 HD
BRANCH  11  13
ATOM     13  S   UNL     1      12.516  41.759  45.081  0.00  0.00    +0.000 S 
ATOM     14  O   UNL     1      12.139  40.637  45.909  0.00  0.00    +0.000 OA
ATOM     15  O   UNL     1      11.586  42.383  44.166  0.00  0.00    +0.000 OA
BRANCH  13  16
ATOM     16  C   UNL     1      13.971  41.329  44.158  0.00  0.00    +0.000 A 
ATOM     17  C   UNL     1      14.211  41.923  42.915  0.00  0.00    +0.000 A 
ATOM     18  C   UNL     1      15.364  41.585  42.203  0.00  0.00    +0.000 A 
ATOM     19  C   UNL     1      16.268  40.666  42.739  0.00  0.00    +0.000 A 
ATOM     20 CL   UNL     1      17.686  40.251  41.858  0.00  0.00    +0.000 Cl
ATOM     21  C   UNL     1      16.033  40.083  43.985  0.00  0.00    +0.000 A 
ATOM     22  C   UNL     1      14.882  40.417  44.703  0.00  0.00    +0.000 A 
ENDBRANCH  13  16
ENDBRANCH  11  13
ENDBRANCH   9  11
BRANCH   1  23
ATOM     23  C   UNL     1      14.468  49.332  44.617  0.00  0.00    +0.000 C 
BRANCH  23  24
ATOM     24  C   UNL     1      15.720  49.748  45.385  0.00  0.00    +0.000 C 
BRANCH  24  26
ATOM     25  O   UNL     1      16.620  50.906  43.443  0.00  0.00    +0.000 OA
ATOM     26  C   UNL     1      16.789  50.300  44.488  0.00  0.00    +0.000 C 
BRANCH  26  27
ATOM     27  O   UNL     1      18.034  50.046  44.937  0.00  0.00    +0.000 OA
ATOM     28  H   UNL     1      18.569  49.993  44.118  0.00  0.00    +0.000 HD
ENDBRANCH  26  27
ENDBRANCH  24  26
ENDBRANCH  23  24
ENDBRANCH   1  23
BRANCH   2  29
ATOM     29  C   UNL     1      12.386  51.014  46.073  0.00  0.00    +0.000 C 
BRANCH  29  30
ATOM     30  C   UNL     1      12.819  51.712  47.347  0.00  0.00    +0.000 A 
ATOM     31  C   UNL     1      11.903  51.877  48.398  0.00  0.00    +0.000 A 
ATOM     32  C   UNL     1      12.290  52.490  49.592  0.00  0.00    +0.000 A 
ATOM     33  C   UNL     1      13.599  52.936  49.755  0.00  0.00    +0.000 A 
ATOM     34  C   UNL     1      14.523  52.766  48.726  0.00  0.00    +0.000 A 
ATOM     35  C   UNL     1      14.139  52.152  47.533  0.00  0.00    +0.000 A 
ENDBRANCH  29  30
ENDBRANCH   2  29
TORSDOF 9
ENDMDL
MODEL 2
REMARK VINA RESULT:    -6.699      9.242     14.444
REMARK INTER + INTRA:         -11.280
REMARK INTER:                 -10.027
REMARK INTRA:                  -1.253
REMARK UNBOUND:                -1.253
REMARK  Name = 
REMARK  9 active torsions:
REMARK  status: ('A' for Active; 'I' for Inactive)
REMARK    1  A    between atoms: C_2  and  O_3
REMARK    2  A    between atoms: C_2  and  C_4
REMARK    3  A    between atoms: C_4  and  C_5
REMARK    4  A    between atoms: C_5  and  C_6
REMARK    5  A    between atoms: C_7  and  C_8
REMARK    6  A    between atoms: C_8  and  C_9
REMARK    7  A    between atoms: C_21  and  N_22
REMARK    8  A    between atoms: N_22  and  S_23
REMARK    9  A    between atoms: S_23  and  C_26
REMARK                            x       y       z     vdW  Elec       q    Type
REMARK                         _______ _______ _______ _____ _____    ______ ____
ROOT
ATOM      1  C   UNL     1      19.795  35.543  48.884  0.00  0.00    +0.000 A 
ATOM      2  C   UNL     1      21.118  35.155  49.230  0.00  0.00    +0.000 A 
ATOM      3  C   UNL     1      21.657  35.568  50.460  0.00  0.00    +0.000 A 
ATOM      4  C   UNL     1      20.920  36.342  51.345  0.00  0.00    +0.000 A 
ATOM      5  C   UNL     1      19.611  36.723  51.034  0.00  0.00    +0.000 A 
ATOM      6  C   UNL     1      19.026  36.305  49.817  0.00  0.00    +0.000 A 
ATOM      7  C   UNL     1      17.595  36.712  49.506  0.00  0.00    +0.000 C 
ATOM      8  C   UNL     1      16.795  37.197  50.713  0.00  0.00    +0.000 C 
ATOM      9  C   UNL     1      17.609  38.217  51.496  0.00  0.00    +0.000 C 
ATOM     10  C   UNL     1      18.856  37.534  52.061  0.00  0.00    +0.000 C 
ENDROOT
BRANCH   9  11
ATOM     11  N   UNL     1      16.804  38.750  52.604  0.00  0.00    +0.000 NA
ATOM     12  H   UNL     1      15.790  38.806  52.512  0.00  0.00    +0.000 HD
BRANCH  11  13
ATOM     13  S   UNL     1      17.467  39.858  53.667  0.00  0.00    +0.000 S 
ATOM     14  O   UNL     1      17.547  39.248  54.974  0.00  0.00    +0.000 OA
ATOM     15  O   UNL     1      18.629  40.409  53.007  0.00  0.00    +0.000 OA
BRANCH  13  16
ATOM     16  C   UNL     1      16.217  41.120  53.697  0.00  0.00    +0.000 A 
ATOM     17  C   UNL     1      15.034  40.914  54.413  0.00  0.00    +0.000 A 
ATOM     18  C   UNL     1      14.062  41.917  54.437  0.00  0.00    +0.000 A 
ATOM     19  C   UNL     1      14.283  43.116  53.757  0.00  0.00    +0.000 A 
ATOM     20 CL   UNL     1      13.084  44.349  53.789  0.00  0.00    +0.000 Cl
ATOM     21  C   UNL     1      15.470  43.325  53.053  0.00  0.00    +0.000 A 
ATOM     22  C   UNL     1      16.446  42.326  53.024  0.00  0.00    +0.000 A 
ENDBRANCH  13  16
ENDBRANCH  11  13
ENDBRANCH   9  11
BRANCH   1  23
ATOM     23  C   UNL     1      19.209  35.171  47.527  0.00  0.00    +0.000 C 
BRANCH  23  24
ATOM     24  C   UNL     1      19.383  36.247  46.459  0.00  0.00    +0.000 C 
BRANCH  24  26
ATOM     25  O   UNL     1      17.186  36.154  45.418  0.00  0.00    +0.000 OA
ATOM     26  C   UNL     1      18.074  36.787  45.965  0.00  0.00    +0.000 C 
BRANCH  26  27
ATOM     27  O   UNL     1      17.945  38.114  46.161  0.00  0.00    +0.000 OA
ATOM     28  H   UNL     1      18.289  38.505  45.331  0.00  0.00    +0.000 HD
ENDBRANCH  26  27
ENDBRANCH  24  26
ENDBRANCH  23  24
ENDBRANCH   1  23
BRANCH   2  29
ATOM     29  C   UNL     1      22.003  34.283  48.353  0.00  0.00    +0.000 C 
BRANCH  29  30
ATOM     30  C   UNL     1      23.141  35.001  47.654  0.00  0.00    +0.000 A 
ATOM     31  C   UNL     1      22.946  35.532  46.370  0.00  0.00    +0.000 A 
ATOM     32  C   UNL     1      23.971  36.224  45.720  0.00  0.00    +0.000 A 
ATOM     33  C   UNL     1      25.199  36.404  46.351  0.00  0.00    +0.000 A 
ATOM     34  C   UNL     1      25.402  35.897  47.632  0.00  0.00    +0.000 A 
ATOM     35  C   UNL     1      24.378  35.206  48.283  0.00  0.00    +0.000 A 
ENDBRANCH  29  30
ENDBRANCH   2  29
TORSDOF 9
ENDMDL
MODEL 3
REMARK VINA RESULT:    -6.642      5.633      8.428
REMARK INTER + INTRA:         -11.195
REMARK INTER:                  -9.620
REMARK INTRA:                  -1.575
REMARK UNBOUND:                -1.253
REMARK  Name = 
REMARK  9 active torsions:
REMARK  status: ('A' for Active; 'I' for Inactive)
REMARK    1  A    between atoms: C_2  and  O_3
REMARK    2  A    between atoms: C_2  and  C_4
REMARK    3  A    between atoms: C_4  and  C_5
REMARK    4  A    between atoms: C_5  and  C_6
REMARK    5  A    between atoms: C_7  and  C_8
REMARK    6  A    between atoms: C_8  and  C_9
REMARK    7  A    between atoms: C_21  and  N_22
REMARK    8  A    between atoms: N_22  and  S_23
REMARK    9  A    between atoms: S_23  and  C_26
REMARK                            x       y       z     vdW  Elec       q    Type
REMARK                         _______ _______ _______ _____ _____    ______ ____
ROOT
ATOM      1  C   UNL     1      14.638  40.906  45.837  0.00  0.00    +0.000 A 
ATOM      2  C   UNL     1      13.572  41.756  46.235  0.00  0.00    +0.000 A 
ATOM      3  C   UNL     1      13.161  41.760  47.579  0.00  0.00    +0.000 A 
ATOM      4  C   UNL     1      13.781  40.956  48.524  0.00  0.00    +0.000 A 
ATOM      5  C   UNL     1      14.843  40.124  48.159  0.00  0.00    +0.000 A 
ATOM      6  C   UNL     1      15.301  40.111  46.822  0.00  0.00    +0.000 A 
ATOM      7  C   UNL     1      16.471  39.214  46.449  0.00  0.00    +0.000 C 
ATOM      8  C   UNL     1      17.292  38.714  47.636  0.00  0.00    +0.000 C 
ATOM      9  C   UNL     1      16.365  38.166  48.711  0.00  0.00    +0.000 C 
ATOM     10  C   UNL     1      15.495  39.304  49.249  0.00  0.00    +0.000 C 
ENDROOT
BRANCH   9  11
ATOM     11  N   UNL     1      17.160  37.603  49.811  0.00  0.00    +0.000 NA
ATOM     12  H   UNL     1      17.921  38.147  50.217  0.00  0.00    +0.000 HD
BRANCH  11  13
ATOM     13  S   UNL     1      17.339  35.946  49.956  0.00  0.00    +0.000 S 
ATOM     14  O   UNL     1      16.800  35.537  51.234  0.00  0.00    +0.000 OA
ATOM     15  O   UNL     1      16.873  35.376  48.711  0.00  0.00    +0.000 OA
BRANCH  13  16
ATOM     16  C   UNL     1      19.106  35.777  49.997  0.00  0.00    +0.000 A 
ATOM     17  C   UNL     1      19.832  36.283  51.079  0.00  0.00    +0.000 A 
ATOM     18  C   UNL     1      21.221  36.135  51.105  0.00  0.00    +0.000 A 
ATOM     19  C   UNL     1      21.870  35.478  50.058  0.00  0.00    +0.000 A 
ATOM     20 CL   UNL     1      23.580  35.299  50.093  0.00  0.00    +0.000 Cl
ATOM     21  C   UNL     1      21.142  34.962  48.984  0.00  0.00    +0.000 A 
ATOM     22  C   UNL     1      19.753  35.106  48.952  0.00  0.00    +0.000 A 
ENDBRANCH  13  16
ENDBRANCH  11  13
ENDBRANCH   9  11
BRANCH   1  23
ATOM     23  C   UNL     1      15.059  40.825  44.374  0.00  0.00    +0.000 C 
BRANCH  23  24
ATOM     24  C   UNL     1      16.302  41.647  44.039  0.00  0.00    +0.000 C 
BRANCH  24  26
ATOM     25  O   UNL     1      15.070  42.963  42.406  0.00  0.00    +0.000 OA
ATOM     26  C   UNL     1      15.989  42.849  43.199  0.00  0.00    +0.000 C 
BRANCH  26  27
ATOM     27  O   UNL     1      16.867  43.857  43.377  0.00  0.00    +0.000 OA
ATOM     28  H   UNL     1      16.299  44.618  43.620  0.00  0.00    +0.000 HD
ENDBRANCH  26  27
ENDBRANCH  24  26
ENDBRANCH  23  24
ENDBRANCH   1  23
BRANCH   2  29
ATOM     29  C   UNL     1      12.842  42.701  45.293  0.00  0.00    +0.000 C 
BRANCH  29  30
ATOM     30  C   UNL     1      12.897  44.169  45.669  0.00  0.00    +0.000 A 
ATOM     31  C   UNL     1      14.023  44.934  45.325  0.00  0.00    +0.000 A 
ATOM     32  C   UNL     1      14.082  46.295  45.634  0.00  0.00    +0.000 A 
ATOM     33  C   UNL     1      13.013  46.910  46.280  0.00  0.00    +0.000 A 
ATOM     34  C   UNL     1      11.883  46.167  46.613  0.00  0.00    +0.000 A 
ATOM     35  C   UNL     1      11.822  44.807  46.304  0.00  0.00    +0.000 A 
ENDBRANCH  29  30
ENDBRANCH   2  29
TORSDOF 9
ENDMDL
