MODEL 1
REMARK VINA RESULT:    -5.049      0.000      0.000
REMARK INTER + INTRA:          -8.687
REMARK INTER:                  -6.192
REMARK INTRA:                  -2.495
REMARK UNBOUND:                -2.162
REMARK  Name = 
REMARK  6 active torsions:
REMARK  status: ('A' for Active; 'I' for Inactive)
REMARK    1  A    between atoms: C_1  and  C_2
REMARK    2  A    between atoms: C_2  and  N_3
REMARK    3  A    between atoms: C_2  and  C_19
REMARK    4  A    between atoms: C_10  and  S_11
REMARK    5  A    between atoms: S_11  and  C_12
REMARK    6  A    between atoms: C_12  and  C_13
REMARK                            x       y       z     vdW  Elec       q    Type
REMARK                         _______ _______ _______ _____ _____    ______ ____
ROOT
ATOM      1  N   UNL     1      14.121  43.020  45.168  0.00  0.00    +0.000 N 
ATOM      2  C   UNL     1      14.680  41.761  45.177  0.00  0.00    +0.000 C 
ATOM      3  O   UNL     1      14.593  41.018  46.147  0.00  0.00    +0.000 OA
ATOM      4  N   UNL     1      15.259  41.405  43.980  0.00  0.00    +0.000 N 
ATOM      5  C   UNL     1      16.294  40.523  43.820  0.00  0.00    +0.000 C 
ATOM      6  O   UNL     1      16.690  39.571  44.452  0.00  0.00    +0.000 OA
ATOM      7  C   UNL     1      16.691  41.173  42.486  0.00  0.00    +0.000 C 
ATOM      8  C   UNL     1      15.658  42.244  42.860  0.00  0.00    +0.000 C 
ATOM      9  H   UNL     1      13.920  43.443  44.274  0.00  0.00    +0.000 HD
ENDROOT
BRANCH   1  11
ATOM     10  C   UNL     1      12.035  42.812  46.470  0.00  0.00    +0.000 C 
ATOM     11  C   UNL     1      13.377  43.534  46.308  0.00  0.00    +0.000 C 
BRANCH  11  12
ATOM     12  C   UNL     1      13.227  45.037  46.159  0.00  0.00    +0.000 A 
ATOM     13  C   UNL     1      12.090  45.672  46.683  0.00  0.00    +0.000 A 
ATOM     14  C   UNL     1      11.935  47.057  46.586  0.00  0.00    +0.000 A 
ATOM     15  C   UNL     1      12.919  47.827  45.973  0.00  0.00    +0.000 A 
ATOM     16  C   UNL     1      14.060  47.215  45.460  0.00  0.00    +0.000 A 
ATOM     17  C   UNL     1      14.217  45.830  45.556  0.00  0.00    +0.000 A 
ENDBRANCH  11  12
ENDBRANCH   1  11
BRANCH   8  18
ATOM     18  S   UNL     1      14.358  42.531  41.622  0.00  0.00    +0.000 S 
BRANCH  18  19
ATOM     19  C   UNL     1      14.011  44.309  41.769  0.00  0.00    +0.000 C 
BRANCH  19  20
ATOM     20  C   UNL     1      12.669  44.636  42.370  0.00  0.00    +0.000 A 
ATOM     21  C   UNL     1      12.258  45.970  42.505  0.00  0.00    +0.000 A 
ATOM     22  C   UNL     1      11.017  46.278  43.066  0.00  0.00    +0.000 A 
ATOM     23  C   UNL     1      10.166  45.258  43.483  0.00  0.00    +0.000 A 
ATOM     24  C   UNL     1      10.554  43.927  43.337  0.00  0.00    +0.000 A 
ATOM     25  C   UNL     1      11.796  43.618  42.782  0.00  0.00    +0.000 A 
ENDBRANCH  19  20
ENDBRANCH  18  19
ENDBRANCH   8  18
TORSDOF 5
ENDMDL
MODEL 2
REMARK VINA RESULT:    -4.980      6.885     10.012
REMARK INTER + INTRA:          -8.598
REMARK INTER:                  -7.794
REMARK INTRA:                  -0.804
REMARK UNBOUND:                -2.162
REMARK  Name = 
REMARK  6 active torsions:
REMARK  status: ('A' for Active; 'I' for Inactive)
REMARK    1  A    between atoms: C_1  and  C_2
REMARK    2  A    between atoms: C_2  and  N_3
REMARK    3  A    between atoms: C_2  and  C_19
REMARK    4  A    between atoms: C_10  and  S_11
REMARK    5  A    between atoms: S_11  and  C_12
REMARK    6  A    between atoms: C_12  and  C_13
REMARK                            x       y       z     vdW  Elec       q    Type
REMARK                         _______ _______ _______ _____ _____    ______ ____
ROOT
ATOM      1  N   UNL     1      15.299  40.223  49.781  0.00  0.00    +0.000 N 
ATOM      2  C   UNL     1      15.469  40.755  51.040  0.00  0.00    +0.000 C 
ATOM      3  O   UNL     1      14.759  41.658  51.466  0.00  0.00    +0.000 OA
ATOM      4  N   UNL     1      16.441  40.122  51.781  0.00  0.00    +0.000 N 
ATOM      5  C   UNL     1      17.184  40.690  52.782  0.00  0.00    +0.000 C 
ATOM      6  O   UNL     1      16.994  41.599  53.555  0.00  0.00    +0.000 OA
ATOM      7  C   UNL     1      18.306  39.660  52.582  0.00  0.00    +0.000 C 
ATOM      8  C   UNL     1      17.510  39.237  51.342  0.00  0.00    +0.000 C 
ATOM      9  H   UNL     1      15.652  39.294  49.607  0.00  0.00    +0.000 HD
ENDROOT
BRANCH   1  11
ATOM     10  C   UNL     1      13.032  39.768  48.921  0.00  0.00    +0.000 C 
ATOM     11  C   UNL     1      14.252  40.694  48.888  0.00  0.00    +0.000 C 
BRANCH  11  12
ATOM     12  C   UNL     1      14.832  40.859  47.495  0.00  0.00    +0.000 A 
ATOM     13  C   UNL     1      15.608  39.826  46.944  0.00  0.00    +0.000 A 
ATOM     14  C   UNL     1      16.135  39.937  45.655  0.00  0.00    +0.000 A 
ATOM     15  C   UNL     1      15.885  41.076  44.896  0.00  0.00    +0.000 A 
ATOM     16  C   UNL     1      15.106  42.104  45.421  0.00  0.00    +0.000 A 
ATOM     17  C   UNL     1      14.579  41.996  46.710  0.00  0.00    +0.000 A 
ENDBRANCH  11  12
ENDBRANCH   1  11
BRANCH   8  18
ATOM     18  S   UNL     1      17.061  37.477  51.272  0.00  0.00    +0.000 S 
BRANCH  18  19
ATOM     19  C   UNL     1      17.924  36.872  49.793  0.00  0.00    +0.000 C 
BRANCH  19  20
ATOM     20  C   UNL     1      19.319  36.360  50.049  0.00  0.00    +0.000 A 
ATOM     21  C   UNL     1      19.988  36.688  51.238  0.00  0.00    +0.000 A 
ATOM     22  C   UNL     1      21.281  36.221  51.476  0.00  0.00    +0.000 A 
ATOM     23  C   UNL     1      21.915  35.408  50.539  0.00  0.00    +0.000 A 
ATOM     24  C   UNL     1      21.255  35.059  49.362  0.00  0.00    +0.000 A 
ATOM     25  C   UNL     1      19.964  35.530  49.120  0.00  0.00    +0.000 A 
ENDBRANCH  19  20
ENDBRANCH  18  19
ENDBRANCH   8  18
TORSDOF 5
ENDMDL
MODEL 3
REMARK VINA RESULT:    -4.743      1.570      3.886
REMARK INTER + INTRA:          -8.291
REMARK INTER:                  -6.130
REMARK INTRA:                  -2.162
REMARK UNBOUND:                -2.162
REMARK  Name = 
REMARK  6 active torsions:
REMARK  status: ('A' for Active; 'I' for Inactive)
REMARK    1  A    between atoms: C_1  and  C_2
REMARK    2  A    between atoms: C_2  and  N_3
REMARK    3  A    between atoms: C_2  and  C_19
REMARK    4  A    between atoms: C_10  and  S_11
REMARK    5  A    between atoms: S_11  and  C_12
REMARK    6  A    between atoms: C_12  and  C_13
REMARK                            x       y       z     vdW  Elec       q    Type
REMARK                         _______ _______ _______ _____ _____    ______ ____
ROOT
ATOM      1  N   UNL     1      13.824  42.687  42.887  0.00  0.00    +0.000 N 
ATOM      2  C   UNL     1      14.992  42.006  42.628  0.00  0.00    +0.000 C 
ATOM      3  O   UNL     1      15.547  42.059  41.536  0.00  0.00    +0.000 OA
ATOM      4  N   UNL     1      15.502  41.345  43.722  0.00  0.00    +0.000 N 
ATOM      5  C   UNL     1      16.284  40.221  43.688  0.00  0.00    +0.000 C 
ATOM      6  O   UNL     1      17.054  39.759  42.879  0.00  0.00    +0.000 OA
ATOM      7  C   UNL     1      15.855  39.836  45.112  0.00  0.00    +0.000 C 
ATOM      8  C   UNL     1      14.848  40.985  44.971  0.00  0.00    +0.000 C 
ATOM      9  H   UNL     1      13.598  42.892  43.849  0.00  0.00    +0.000 HD
ENDROOT
BRANCH   1  11
ATOM     10  C   UNL     1      14.196  44.479  41.233  0.00  0.00    +0.000 C 
ATOM     11  C   UNL     1      13.188  43.525  41.882  0.00  0.00    +0.000 C 
BRANCH  11  12
ATOM     12  C   UNL     1      12.013  44.247  42.516  0.00  0.00    +0.000 A 
ATOM     13  C   UNL     1      11.066  43.512  43.248  0.00  0.00    +0.000 A 
ATOM     14  C   UNL     1       9.987  44.150  43.865  0.00  0.00    +0.000 A 
ATOM     15  C   UNL     1       9.846  45.531  43.768  0.00  0.00    +0.000 A 
ATOM     16  C   UNL     1      10.783  46.276  43.057  0.00  0.00    +0.000 A 
ATOM     17  C   UNL     1      11.862  45.641  42.439  0.00  0.00    +0.000 A 
ENDBRANCH  11  12
ENDBRANCH   1  11
BRANCH   8  18
ATOM     18  S   UNL     1      14.936  42.254  46.270  0.00  0.00    +0.000 S 
BRANCH  18  19
ATOM     19  C   UNL     1      13.244  42.911  46.342  0.00  0.00    +0.000 C 
BRANCH  19  20
ATOM     20  C   UNL     1      13.148  44.408  46.197  0.00  0.00    +0.000 A 
ATOM     21  C   UNL     1      12.080  45.111  46.775  0.00  0.00    +0.000 A 
ATOM     22  C   UNL     1      11.985  46.496  46.638  0.00  0.00    +0.000 A 
ATOM     23  C   UNL     1      12.963  47.199  45.938  0.00  0.00    +0.000 A 
ATOM     24  C   UNL     1      14.039  46.516  45.375  0.00  0.00    +0.000 A 
ATOM     25  C   UNL     1      14.133  45.130  45.506  0.00  0.00    +0.000 A 
ENDBRANCH  19  20
ENDBRANCH  18  19
ENDBRANCH   8  18
TORSDOF 5
ENDMDL
