MODEL 1
REMARK VINA RESULT:    -7.257      0.000      0.000
REMARK INTER + INTRA:         -11.693
REMARK INTER:                 -10.839
REMARK INTRA:                  -0.854
REMARK UNBOUND:                -1.043
REMARK  Name = 
REMARK  10 active torsions:
REMARK  status: ('A' for Active; 'I' for Inactive)
REMARK    1  A    between atoms: C_1  and  N_2
REMARK    2  A    between atoms: C_3  and  C_5
REMARK    3  A    between atoms: C_8  and  N_9
REMARK    4  A    between atoms: C_13  and  N_14
REMARK    5  A    between atoms: N_14  and  C_15
REMARK    6  A    between atoms: C_17  and  C_18
REMARK    7  A    between atoms: C_26  and  C_27
REMARK    8  A    between atoms: C_28  and  C_29
REMARK    9  A    between atoms: C_37  and  O_38
REMARK   10  A    between atoms: C_39  and  O_40
REMARK                            x       y       z     vdW  Elec       q    Type
REMARK                         _______ _______ _______ _____ _____    ______ ____
ROOT
ATOM      1  N   UNL     1      15.167  40.150  50.636  0.00  0.00    +0.000 N 
ATOM      2  C   UNL     1      14.215  40.612  49.773  0.00  0.00    +0.000 A 
ATOM      3  N   UNL     1      14.311  40.049  48.587  0.00  0.00    +0.000 NA
ATOM      4  C   UNL     1      15.370  39.172  48.679  0.00  0.00    +0.000 A 
ATOM      5  C   UNL     1      15.974  38.281  47.767  0.00  0.00    +0.000 A 
ATOM      6  N   UNL     1      17.022  37.534  48.208  0.00  0.00    +0.000 NA
ATOM      7  C   UNL     1      17.430  37.684  49.484  0.00  0.00    +0.000 A 
ATOM      8  N   UNL     1      16.934  38.493  50.436  0.00  0.00    +0.000 NA
ATOM      9  C   UNL     1      15.907  39.214  49.957  0.00  0.00    +0.000 A 
ENDROOT
BRANCH   1  13
ATOM     10  C   UNL     1      14.668  42.209  53.655  0.00  0.00    +0.000 C 
ATOM     11  C   UNL     1      13.779  41.038  54.056  0.00  0.00    +0.000 C 
ATOM     12  C   UNL     1      14.174  41.215  52.620  0.00  0.00    +0.000 C 
ATOM     13  C   UNL     1      15.374  40.503  52.028  0.00  0.00    +0.000 C 
ATOM     14  C   UNL     1      16.556  41.457  52.328  0.00  0.00    +0.000 C 
ATOM     15  C   UNL     1      16.180  42.081  53.694  0.00  0.00    +0.000 C 
BRANCH  10  18
ATOM     16  C   UNL     1      14.698  45.967  53.380  0.00  0.00    +0.000 C 
ATOM     17  N   UNL     1      15.066  44.584  53.541  0.00  0.00    +0.000 N 
ATOM     18  C   UNL     1      14.122  43.593  53.573  0.00  0.00    +0.000 C 
ATOM     19  O   UNL     1      12.914  43.760  53.509  0.00  0.00    +0.000 OA
ATOM     20  H   UNL     1      16.046  44.336  53.518  0.00  0.00    +0.000 HD
ENDBRANCH  10  18
BRANCH  14  21
ATOM     21  O   UNL     1      17.796  40.760  52.415  0.00  0.00    +0.000 OA
ATOM     22  H   UNL     1      17.760  40.265  53.261  0.00  0.00    +0.000 HD
ENDBRANCH  14  21
BRANCH  15  23
ATOM     23  O   UNL     1      16.583  41.184  54.738  0.00  0.00    +0.000 OA
ATOM     24  H   UNL     1      17.483  41.448  55.001  0.00  0.00    +0.000 HD
ENDBRANCH  15  23
ENDBRANCH   1  13
BRANCH   5  25
ATOM     25  N   UNL     1      15.617  38.086  46.424  0.00  0.00    +0.000 N 
ATOM     26  H   UNL     1      15.086  37.222  46.366  0.00  0.00    +0.000 HD
BRANCH  25  27
ATOM     27  C   UNL     1      15.250  39.191  45.540  0.00  0.00    +0.000 C 
ATOM     28  C   UNL     1      15.925  39.250  44.198  0.00  0.00    +0.000 C 
ATOM     29  C   UNL     1      16.196  40.329  45.221  0.00  0.00    +0.000 C 
BRANCH  29  30
ATOM     30  C   UNL     1      15.721  41.727  44.884  0.00  0.00    +0.000 A 
ATOM     31  C   UNL     1      16.086  42.323  43.660  0.00  0.00    +0.000 A 
ATOM     32  C   UNL     1      15.664  43.610  43.312  0.00  0.00    +0.000 A 
ATOM     33  C   UNL     1      14.864  44.335  44.190  0.00  0.00    +0.000 A 
ATOM     34  C   UNL     1      14.507  43.768  45.408  0.00  0.00    +0.000 A 
ATOM     35  F   UNL     1      13.740  44.467  46.258  0.00  0.00    +0.000 F 
ATOM     36  C   UNL     1      14.927  42.487  45.756  0.00  0.00    +0.000 A 
ENDBRANCH  29  30
ENDBRANCH  25  27
ENDBRANCH   5  25
BRANCH   7  37
ATOM     37  C   UNL     1      18.546  36.887  49.872  0.00  0.00    +0.000 C 
ATOM     38  C   UNL     1      19.496  36.227  50.199  0.00  0.00    +0.000 C 
BRANCH  38  39
ATOM     39  C   UNL     1      20.640  35.462  50.588  0.00  0.00    +0.000 A 
ATOM     40  C   UNL     1      21.646  35.192  49.658  0.00  0.00    +0.000 A 
ATOM     41  C   UNL     1      22.769  34.453  50.036  0.00  0.00    +0.000 A 
ATOM     42  C   UNL     1      22.884  33.982  51.345  0.00  0.00    +0.000 A 
ATOM     43  C   UNL     1      21.879  34.249  52.275  0.00  0.00    +0.000 A 
ATOM     44  C   UNL     1      20.757  34.989  51.898  0.00  0.00    +0.000 A 
ENDBRANCH  38  39
ENDBRANCH   7  37
TORSDOF 9
ENDMDL
MODEL 2
REMARK VINA RESULT:    -6.992      3.344      8.680
REMARK INTER + INTRA:         -11.305
REMARK INTER:                 -10.056
REMARK INTRA:                  -1.249
REMARK UNBOUND:                -1.043
REMARK  Name = 
REMARK  10 active torsions:
REMARK  status: ('A' for Active; 'I' for Inactive)
REMARK    1  A    between atoms: C_1  and  N_2
REMARK    2  A    between atoms: C_3  and  C_5
REMARK    3  A    between atoms: C_8  and  N_9
REMARK    4  A    between atoms: C_13  and  N_14
REMARK    5  A    between atoms: N_14  and  C_15
REMARK    6  A    between atoms: C_17  and  C_18
REMARK    7  A    between atoms: C_26  and  C_27
REMARK    8  A    between atoms: C_28  and  C_29
REMARK    9  A    between atoms: C_37  and  O_38
REMARK   10  A    between atoms: C_39  and  O_40
REMARK                            x       y       z     vdW  Elec       q    Type
REMARK                         _______ _______ _______ _____ _____    ______ ____
ROOT
ATOM      1  N   UNL     1      16.744  38.618  53.029  0.00  0.00    +0.000 N 
ATOM      2  C   UNL     1      17.329  37.809  53.962  0.00  0.00    +0.000 A 
ATOM      3  N   UNL     1      18.066  36.870  53.406  0.00  0.00    +0.000 NA
ATOM      4  C   UNL     1      17.966  37.078  52.048  0.00  0.00    +0.000 A 
ATOM      5  C   UNL     1      18.512  36.423  50.923  0.00  0.00    +0.000 A 
ATOM      6  N   UNL     1      18.207  36.915  49.692  0.00  0.00    +0.000 NA
ATOM      7  C   UNL     1      17.404  37.994  49.609  0.00  0.00    +0.000 A 
ATOM      8  N   UNL     1      16.832  38.696  50.603  0.00  0.00    +0.000 NA
ATOM      9  C   UNL     1      17.153  38.174  51.797  0.00  0.00    +0.000 A 
ENDROOT
BRANCH   1  13
ATOM     10  C   UNL     1      13.939  40.871  52.220  0.00  0.00    +0.000 C 
ATOM     11  C   UNL     1      13.283  40.136  53.383  0.00  0.00    +0.000 C 
ATOM     12  C   UNL     1      14.486  39.544  52.712  0.00  0.00    +0.000 C 
ATOM     13  C   UNL     1      15.888  39.770  53.241  0.00  0.00    +0.000 C 
ATOM     14  C   UNL     1      16.331  41.089  52.564  0.00  0.00    +0.000 C 
ATOM     15  C   UNL     1      15.020  41.907  52.470  0.00  0.00    +0.000 C 
BRANCH  10  18
ATOM     16  C   UNL     1      13.525  40.103  48.554  0.00  0.00    +0.000 C 
ATOM     17  N   UNL     1      14.036  40.250  49.893  0.00  0.00    +0.000 N 
ATOM     18  C   UNL     1      13.312  40.881  50.868  0.00  0.00    +0.000 C 
ATOM     19  O   UNL     1      12.218  41.402  50.717  0.00  0.00    +0.000 OA
ATOM     20  H   UNL     1      14.895  39.778  50.139  0.00  0.00    +0.000 HD
ENDBRANCH  10  18
BRANCH  14  21
ATOM     21  O   UNL     1      17.306  41.786  53.338  0.00  0.00    +0.000 OA
ATOM     22  H   UNL     1      16.882  41.953  54.206  0.00  0.00    +0.000 HD
ENDBRANCH  14  21
BRANCH  15  23
ATOM     23  O   UNL     1      14.800  42.572  53.722  0.00  0.00    +0.000 OA
ATOM     24  H   UNL     1      14.001  42.174  54.112  0.00  0.00    +0.000 HD
ENDBRANCH  15  23
ENDBRANCH   1  13
BRANCH   5  25
ATOM     25  N   UNL     1      19.338  35.288  50.933  0.00  0.00    +0.000 N 
ATOM     26  H   UNL     1      19.315  34.880  50.004  0.00  0.00    +0.000 HD
BRANCH  25  27
ATOM     27  C   UNL     1      20.588  35.233  51.689  0.00  0.00    +0.000 C 
ATOM     28  C   UNL     1      21.724  34.459  51.080  0.00  0.00    +0.000 C 
ATOM     29  C   UNL     1      21.081  33.966  52.357  0.00  0.00    +0.000 C 
BRANCH  29  30
ATOM     30  C   UNL     1      21.941  33.973  53.604  0.00  0.00    +0.000 A 
ATOM     31  C   UNL     1      23.287  33.560  53.537  0.00  0.00    +0.000 A 
ATOM     32  C   UNL     1      24.114  33.556  54.665  0.00  0.00    +0.000 A 
ATOM     33  C   UNL     1      23.605  33.964  55.894  0.00  0.00    +0.000 A 
ATOM     34  C   UNL     1      22.277  34.361  55.981  0.00  0.00    +0.000 A 
ATOM     35  F   UNL     1      21.783  34.751  57.165  0.00  0.00    +0.000 F 
ATOM     36  C   UNL     1      21.452  34.365  54.858  0.00  0.00    +0.000 A 
ENDBRANCH  29  30
ENDBRANCH  25  27
ENDBRANCH   5  25
BRANCH   7  37
ATOM     37  C   UNL     1      17.110  38.443  48.289  0.00  0.00    +0.000 C 
ATOM     38  C   UNL     1      16.877  38.825  47.173  0.00  0.00    +0.000 C 
BRANCH  38  39
ATOM     39  C   UNL     1      16.622  39.288  45.843  0.00  0.00    +0.000 A 
ATOM     40  C   UNL     1      17.004  38.507  44.750  0.00  0.00    +0.000 A 
ATOM     41  C   UNL     1      16.748  38.950  43.451  0.00  0.00    +0.000 A 
ATOM     42  C   UNL     1      16.112  40.175  43.245  0.00  0.00    +0.000 A 
ATOM     43  C   UNL     1      15.732  40.957  44.336  0.00  0.00    +0.000 A 
ATOM     44  C   UNL     1      15.986  40.514  45.636  0.00  0.00    +0.000 A 
ENDBRANCH  38  39
ENDBRANCH   7  37
TORSDOF 9
ENDMDL
MODEL 3
REMARK VINA RESULT:    -6.986      4.420      9.636
REMARK INTER + INTRA:         -11.296
REMARK INTER:                 -10.253
REMARK INTRA:                  -1.043
REMARK UNBOUND:                -1.043
REMARK  Name = 
REMARK  10 active torsions:
REMARK  status: ('A' for Active; 'I' for Inactive)
REMARK    1  A    between atoms: C_1  and  N_2
REMARK    2  A    between atoms: C_3  and  C_5
REMARK    3  A    between atoms: C_8  and  N_9
REMARK    4  A    between atoms: C_13  and  N_14
REMARK    5  A    between atoms: N_14  and  C_15
REMARK    6  A    between atoms: C_17  and  C_18
REMARK    7  A    between atoms: C_26  and  C_27
REMARK    8  A    between atoms: C_28  and  C_29
REMARK    9  A    between atoms: C_37  and  O_38
REMARK   10  A    between atoms: C_39  and  O_40
REMARK                            x       y       z     vdW  Elec       q    Type
REMARK                         _______ _______ _______ _____ _____    ______ ____
ROOT
ATOM      1  N   UNL     1      15.949  40.612  43.235  0.00  0.00    +0.000 N 
ATOM      2  C   UNL     1      16.639  39.824  42.357  0.00  0.00    +0.000 A 
ATOM      3  N   UNL     1      17.148  38.762  42.945  0.00  0.00    +0.000 NA
ATOM      4  C   UNL     1      16.769  38.854  44.267  0.00  0.00    +0.000 A 
ATOM      5  C   UNL     1      16.992  38.042  45.399  0.00  0.00    +0.000 A 
ATOM      6  N   UNL     1      16.445  38.436  46.581  0.00  0.00    +0.000 NA
ATOM      7  C   UNL     1      15.725  39.575  46.611  0.00  0.00    +0.000 A 
ATOM      8  N   UNL     1      15.446  40.421  45.604  0.00  0.00    +0.000 NA
ATOM      9  C   UNL     1      16.009  39.999  44.460  0.00  0.00    +0.000 A 
ENDROOT
BRANCH   1  13
ATOM     10  C   UNL     1      14.134  43.012  41.102  0.00  0.00    +0.000 C 
ATOM     11  C   UNL     1      12.927  42.431  41.830  0.00  0.00    +0.000 C 
ATOM     12  C   UNL     1      14.231  41.689  41.840  0.00  0.00    +0.000 C 
ATOM     13  C   UNL     1      15.229  41.844  42.970  0.00  0.00    +0.000 C 
ATOM     14  C   UNL     1      16.084  43.063  42.546  0.00  0.00    +0.000 C 
ATOM     15  C   UNL     1      15.074  43.974  41.806  0.00  0.00    +0.000 C 
BRANCH  10  18
ATOM     16  C   UNL     1      14.034  41.522  37.642  0.00  0.00    +0.000 C 
ATOM     17  N   UNL     1      14.052  41.720  39.069  0.00  0.00    +0.000 N 
ATOM     18  C   UNL     1      14.230  42.962  39.616  0.00  0.00    +0.000 C 
ATOM     19  O   UNL     1      14.421  43.993  38.991  0.00  0.00    +0.000 OA
ATOM     20  H   UNL     1      13.819  40.941  39.670  0.00  0.00    +0.000 HD
ENDBRANCH  10  18
BRANCH  14  21
ATOM     21  O   UNL     1      16.644  43.739  43.669  0.00  0.00    +0.000 OA
ATOM     22  H   UNL     1      15.891  43.920  44.270  0.00  0.00    +0.000 HD
ENDBRANCH  14  21
BRANCH  15  23
ATOM     23  O   UNL     1      14.361  44.755  42.775  0.00  0.00    +0.000 OA
ATOM     24  H   UNL     1      14.218  44.179  43.548  0.00  0.00    +0.000 HD
ENDBRANCH  15  23
ENDBRANCH   1  13
BRANCH   5  25
ATOM     25  N   UNL     1      17.744  36.858  45.446  0.00  0.00    +0.000 N 
ATOM     26  H   UNL     1      17.906  36.555  44.491  0.00  0.00    +0.000 HD
BRANCH  25  27
ATOM     27  C   UNL     1      18.794  36.633  46.438  0.00  0.00    +0.000 C 
ATOM     28  C   UNL     1      19.448  35.279  46.450  0.00  0.00    +0.000 C 
ATOM     29  C   UNL     1      18.608  35.716  47.629  0.00  0.00    +0.000 C 
BRANCH  29  30
ATOM     30  C   UNL     1      19.329  35.919  48.946  0.00  0.00    +0.000 A 
ATOM     31  C   UNL     1      20.619  35.384  49.135  0.00  0.00    +0.000 A 
ATOM     32  C   UNL     1      21.318  35.552  50.335  0.00  0.00    +0.000 A 
ATOM     33  C   UNL     1      20.734  36.263  51.380  0.00  0.00    +0.000 A 
ATOM     34  C   UNL     1      19.457  36.785  51.214  0.00  0.00    +0.000 A 
ATOM     35  F   UNL     1      18.891  37.466  52.221  0.00  0.00    +0.000 F 
ATOM     36  C   UNL     1      18.760  36.617  50.020  0.00  0.00    +0.000 A 
ENDBRANCH  29  30
ENDBRANCH  25  27
ENDBRANCH   5  25
BRANCH   7  37
ATOM     37  C   UNL     1      15.199  39.938  47.885  0.00  0.00    +0.000 C 
ATOM     38  C   UNL     1      14.767  40.255  48.961  0.00  0.00    +0.000 C 
BRANCH  38  39
ATOM     39  C   UNL     1      14.271  40.647  50.244  0.00  0.00    +0.000 A 
ATOM     40  C   UNL     1      12.894  40.685  50.475  0.00  0.00    +0.000 A 
ATOM     41  C   UNL     1      12.405  41.058  51.729  0.00  0.00    +0.000 A 
ATOM     42  C   UNL     1      13.293  41.395  52.751  0.00  0.00    +0.000 A 
ATOM     43  C   UNL     1      14.669  41.359  52.521  0.00  0.00    +0.000 A 
ATOM     44  C   UNL     1      15.158  40.985  51.268  0.00  0.00    +0.000 A 
ENDBRANCH  38  39
ENDBRANCH   7  37
TORSDOF 9
ENDMDL
