MODEL 1
REMARK VINA RESULT:    -7.236      0.000      0.000
REMARK INTER + INTRA:         -11.518
REMARK INTER:                 -10.451
REMARK INTRA:                  -1.066
REMARK UNBOUND:                -0.897
REMARK  Name = 
REMARK  11 active torsions:
REMARK  status: ('A' for Active; 'I' for Inactive)
REMARK    1  A    between atoms: C_1  and  C_2
REMARK    2  A    between atoms: C_2  and  C_3
REMARK    3  A    between atoms: C_3  and  N_4
REMARK    4  A    between atoms: C_11  and  C_12
REMARK    5  A    between atoms: C_11  and  C_13
REMARK    6  A    between atoms: C_17  and  O_18
REMARK    7  A    between atoms: O_18  and  C_19
REMARK    8  A    between atoms: C_19  and  C_20
REMARK    9  A    between atoms: C_22  and  C_23
REMARK   10  A    between atoms: C_26  and  C_27
REMARK   11  A    between atoms: C_34  and  C_35
REMARK                            x       y       z     vdW  Elec       q    Type
REMARK                         _______ _______ _______ _____ _____    ______ ____
ROOT
ATOM      1  C   UNL     1      15.182  39.941  50.362  0.00  0.00    +0.000 A 
ATOM      2  C   UNL     1      15.583  38.602  50.344  0.00  0.00    +0.000 A 
ATOM      3  C   UNL     1      15.580  37.889  49.147  0.00  0.00    +0.000 A 
ATOM      4  C   UNL     1      15.175  38.505  47.959  0.00  0.00    +0.000 A 
ATOM      5  C   UNL     1      14.772  39.842  47.965  0.00  0.00    +0.000 A 
ATOM      6  C   UNL     1      14.777  40.553  49.169  0.00  0.00    +0.000 A 
ENDROOT
BRANCH   1   9
ATOM      7  C   UNL     1      17.674  40.410  51.921  0.00  0.00    +0.000 C 
ATOM      8  C   UNL     1      16.310  40.921  52.334  0.00  0.00    +0.000 C 
ATOM      9  C   UNL     1      15.172  40.698  51.629  0.00  0.00    +0.000 C 
ATOM     10  C   UNL     1      13.796  41.194  51.998  0.00  0.00    +0.000 C 
BRANCH   8  11
ATOM     11  C   UNL     1      16.341  41.669  53.651  0.00  0.00    +0.000 C 
BRANCH  11  12
ATOM     12  N   UNL     1      15.970  40.781  54.737  0.00  0.00    +0.000 N 
ATOM     13  O   UNL     1      17.103  40.383  55.531  0.00  0.00    +0.000 OA
ATOM     14  C   UNL     1      16.726  40.452  56.845  0.00  0.00    +0.000 A 
ATOM     15  O   UNL     1      17.472  40.288  57.796  0.00  0.00    +0.000 OA
ATOM     16  N   UNL     1      15.434  40.805  56.910  0.00  0.00    +0.000 N 
ATOM     17  C   UNL     1      15.057  41.248  55.691  0.00  0.00    +0.000 A 
ATOM     18  O   UNL     1      14.118  42.003  55.489  0.00  0.00    +0.000 OA
ATOM     19  H   UNL     1      15.017  41.143  57.761  0.00  0.00    +0.000 HD
ENDBRANCH  11  12
ENDBRANCH   8  11
ENDBRANCH   1   9
BRANCH   5  20
ATOM     20  O   UNL     1      14.354  40.562  46.881  0.00  0.00    +0.000 OA
BRANCH  20  21
ATOM     21  C   UNL     1      15.340  40.901  45.901  0.00  0.00    +0.000 C 
BRANCH  21  22
ATOM     22  C   UNL     1      15.158  42.298  45.412  0.00  0.00    +0.000 A 
ATOM     23  N   UNL     1      14.375  43.202  46.102  0.00  0.00    +0.000 NA
ATOM     24  C   UNL     1      14.446  44.310  45.386  0.00  0.00    +0.000 A 
ATOM     25  O   UNL     1      15.214  44.193  44.257  0.00  0.00    +0.000 OA
ATOM     26  C   UNL     1      15.664  42.903  44.281  0.00  0.00    +0.000 A 
ATOM     27  C   UNL     1      16.539  42.473  43.175  0.00  0.00    +0.000 C 
BRANCH  24  28
ATOM     28  C   UNL     1      13.829  45.610  45.635  0.00  0.00    +0.000 A 
ATOM     29  C   UNL     1      12.613  45.678  46.332  0.00  0.00    +0.000 A 
ATOM     30  C   UNL     1      11.999  46.909  46.588  0.00  0.00    +0.000 A 
ATOM     31  C   UNL     1      12.591  48.103  46.156  0.00  0.00    +0.000 A 
ATOM     32  C   UNL     1      13.802  48.039  45.450  0.00  0.00    +0.000 A 
ATOM     33  C   UNL     1      14.414  46.807  45.196  0.00  0.00    +0.000 A 
BRANCH  31  34
ATOM     34  C   UNL     1      11.914  49.427  46.419  0.00  0.00    +0.000 C 
ATOM     35  F   UNL     1      11.198  49.877  45.351  0.00  0.00    +0.000 F 
ATOM     36  F   UNL     1      12.806  50.412  46.714  0.00  0.00    +0.000 F 
ATOM     37  F   UNL     1      11.041  49.389  47.463  0.00  0.00    +0.000 F 
ENDBRANCH  31  34
ENDBRANCH  24  28
ENDBRANCH  21  22
ENDBRANCH  20  21
ENDBRANCH   5  20
TORSDOF 8
ENDMDL
MODEL 2
REMARK VINA RESULT:    -7.218      7.629     11.633
REMARK INTER + INTRA:         -11.491
REMARK INTER:                 -10.310
REMARK INTRA:                  -1.182
REMARK UNBOUND:                -0.897
REMARK  Name = 
REMARK  11 active torsions:
REMARK  status: ('A' for Active; 'I' for Inactive)
REMARK    1  A    between atoms: C_1  and  C_2
REMARK    2  A    between atoms: C_2  and  C_3
REMARK    3  A    between atoms: C_3  and  N_4
REMARK    4  A    between atoms: C_11  and  C_12
REMARK    5  A    between atoms: C_11  and  C_13
REMARK    6  A    between atoms: C_17  and  O_18
REMARK    7  A    between atoms: O_18  and  C_19
REMARK    8  A    between atoms: C_19  and  C_20
REMARK    9  A    between atoms: C_22  and  C_23
REMARK   10  A    between atoms: C_26  and  C_27
REMARK   11  A    between atoms: C_34  and  C_35
REMARK                            x       y       z     vdW  Elec       q    Type
REMARK                         _______ _______ _______ _____ _____    ______ ____
ROOT
ATOM      1  C   UNL     1      13.451  48.075  45.002  0.00  0.00    +0.000 A 
ATOM      2  C   UNL     1      12.610  48.141  46.116  0.00  0.00    +0.000 A 
ATOM      3  C   UNL     1      12.046  46.977  46.635  0.00  0.00    +0.000 A 
ATOM      4  C   UNL     1      12.315  45.738  46.046  0.00  0.00    +0.000 A 
ATOM      5  C   UNL     1      13.154  45.660  44.932  0.00  0.00    +0.000 A 
ATOM      6  C   UNL     1      13.718  46.831  44.416  0.00  0.00    +0.000 A 
ENDROOT
BRANCH   1   9
ATOM      7  C   UNL     1      16.300  48.796  45.475  0.00  0.00    +0.000 C 
ATOM      8  C   UNL     1      15.343  49.628  44.647  0.00  0.00    +0.000 C 
ATOM      9  C   UNL     1      14.042  49.305  44.441  0.00  0.00    +0.000 C 
ATOM     10  C   UNL     1      13.057  50.099  43.618  0.00  0.00    +0.000 C 
BRANCH   8  11
ATOM     11  C   UNL     1      15.983  50.893  44.113  0.00  0.00    +0.000 C 
BRANCH  11  12
ATOM     12  N   UNL     1      17.371  50.965  44.530  0.00  0.00    +0.000 N 
ATOM     13  O   UNL     1      18.283  50.760  43.435  0.00  0.00    +0.000 OA
ATOM     14  C   UNL     1      19.283  51.686  43.558  0.00  0.00    +0.000 A 
ATOM     15  O   UNL     1      20.168  51.872  42.739  0.00  0.00    +0.000 OA
ATOM     16  N   UNL     1      19.082  52.401  44.675  0.00  0.00    +0.000 N 
ATOM     17  C   UNL     1      17.827  52.155  45.110  0.00  0.00    +0.000 A 
ATOM     18  O   UNL     1      17.183  52.907  45.826  0.00  0.00    +0.000 OA
ATOM     19  H   UNL     1      19.548  53.277  44.837  0.00  0.00    +0.000 HD
ENDBRANCH  11  12
ENDBRANCH   8  11
ENDBRANCH   1   9
BRANCH   5  20
ATOM     20  O   UNL     1      13.499  44.519  44.262  0.00  0.00    +0.000 OA
BRANCH  20  21
ATOM     21  C   UNL     1      14.872  44.369  43.890  0.00  0.00    +0.000 C 
BRANCH  21  22
ATOM     22  C   UNL     1      15.337  42.967  44.095  0.00  0.00    +0.000 A 
ATOM     23  N   UNL     1      15.957  42.262  43.082  0.00  0.00    +0.000 NA
ATOM     24  C   UNL     1      16.221  41.084  43.617  0.00  0.00    +0.000 A 
ATOM     25  O   UNL     1      15.803  40.957  44.915  0.00  0.00    +0.000 OA
ATOM     26  C   UNL     1      15.237  42.165  45.213  0.00  0.00    +0.000 A 
ATOM     27  C   UNL     1      14.690  42.339  46.570  0.00  0.00    +0.000 C 
BRANCH  24  28
ATOM     28  C   UNL     1      16.886  39.929  43.020  0.00  0.00    +0.000 A 
ATOM     29  C   UNL     1      16.996  38.737  43.753  0.00  0.00    +0.000 A 
ATOM     30  C   UNL     1      17.625  37.612  43.208  0.00  0.00    +0.000 A 
ATOM     31  C   UNL     1      18.157  37.653  41.911  0.00  0.00    +0.000 A 
ATOM     32  C   UNL     1      18.058  38.846  41.178  0.00  0.00    +0.000 A 
ATOM     33  C   UNL     1      17.427  39.969  41.727  0.00  0.00    +0.000 A 
BRANCH  31  34
ATOM     34  C   UNL     1      18.850  36.442  41.335  0.00  0.00    +0.000 C 
ATOM     35  F   UNL     1      19.221  36.614  40.035  0.00  0.00    +0.000 F 
ATOM     36  F   UNL     1      18.058  35.336  41.355  0.00  0.00    +0.000 F 
ATOM     37  F   UNL     1      19.986  36.101  42.003  0.00  0.00    +0.000 F 
ENDBRANCH  31  34
ENDBRANCH  24  28
ENDBRANCH  21  22
ENDBRANCH  20  21
ENDBRANCH   5  20
TORSDOF 8
ENDMDL
MODEL 3
REMARK VINA RESULT:    -7.168      7.133     11.355
REMARK INTER + INTRA:         -11.418
REMARK INTER:                 -10.521
REMARK INTRA:                  -0.897
REMARK UNBOUND:                -0.897
REMARK  Name = 
REMARK  11 active torsions:
REMARK  status: ('A' for Active; 'I' for Inactive)
REMARK    1  A    between atoms: C_1  and  C_2
REMARK    2  A    between atoms: C_2  and  C_3
REMARK    3  A    between atoms: C_3  and  N_4
REMARK    4  A    between atoms: C_11  and  C_12
REMARK    5  A    between atoms: C_11  and  C_13
REMARK    6  A    between atoms: C_17  and  O_18
REMARK    7  A    between atoms: O_18  and  C_19
REMARK    8  A    between atoms: C_19  and  C_20
REMARK    9  A    between atoms: C_22  and  C_23
REMARK   10  A    between atoms: C_26  and  C_27
REMARK   11  A    between atoms: C_34  and  C_35
REMARK                            x       y       z     vdW  Elec       q    Type
REMARK                         _______ _______ _______ _____ _____    ______ ____
ROOT
ATOM      1  C   UNL     1      13.528  48.266  45.200  0.00  0.00    +0.000 A 
ATOM      2  C   UNL     1      12.463  48.482  46.079  0.00  0.00    +0.000 A 
ATOM      3  C   UNL     1      11.863  47.402  46.725  0.00  0.00    +0.000 A 
ATOM      4  C   UNL     1      12.318  46.100  46.497  0.00  0.00    +0.000 A 
ATOM      5  C   UNL     1      13.381  45.874  45.619  0.00  0.00    +0.000 A 
ATOM      6  C   UNL     1      13.980  46.960  44.975  0.00  0.00    +0.000 A 
ENDROOT
BRANCH   1   9
ATOM      7  C   UNL     1      16.423  48.881  45.521  0.00  0.00    +0.000 C 
ATOM      8  C   UNL     1      15.482  49.677  44.642  0.00  0.00    +0.000 C 
ATOM      9  C   UNL     1      14.160  49.404  44.503  0.00  0.00    +0.000 C 
ATOM     10  C   UNL     1      13.190  50.164  43.634  0.00  0.00    +0.000 C 
BRANCH   8  11
ATOM     11  C   UNL     1      16.165  50.849  43.968  0.00  0.00    +0.000 C 
BRANCH  11  12
ATOM     12  N   UNL     1      17.545  50.943  44.410  0.00  0.00    +0.000 N 
ATOM     13  O   UNL     1      18.479  50.781  43.327  0.00  0.00    +0.000 OA
ATOM     14  C   UNL     1      19.456  51.726  43.485  0.00  0.00    +0.000 A 
ATOM     15  O   UNL     1      20.350  51.948  42.686  0.00  0.00    +0.000 OA
ATOM     16  N   UNL     1      19.219  52.414  44.612  0.00  0.00    +0.000 N 
ATOM     17  C   UNL     1      17.963  52.131  45.021  0.00  0.00    +0.000 A 
ATOM     18  O   UNL     1      17.291  52.855  45.740  0.00  0.00    +0.000 OA
ATOM     19  H   UNL     1      19.663  53.297  44.799  0.00  0.00    +0.000 HD
ENDBRANCH  11  12
ENDBRANCH   8  11
ENDBRANCH   1   9
BRANCH   5  20
ATOM     20  O   UNL     1      13.923  44.658  45.308  0.00  0.00    +0.000 OA
BRANCH  20  21
ATOM     21  C   UNL     1      14.442  44.492  43.985  0.00  0.00    +0.000 C 
BRANCH  21  22
ATOM     22  C   UNL     1      14.954  43.107  43.775  0.00  0.00    +0.000 A 
ATOM     23  N   UNL     1      15.410  42.344  44.832  0.00  0.00    +0.000 NA
ATOM     24  C   UNL     1      15.776  41.203  44.277  0.00  0.00    +0.000 A 
ATOM     25  O   UNL     1      15.607  41.166  42.918  0.00  0.00    +0.000 OA
ATOM     26  C   UNL     1      15.083  42.389  42.605  0.00  0.00    +0.000 A 
ATOM     27  C   UNL     1      14.780  42.650  41.186  0.00  0.00    +0.000 C 
BRANCH  24  28
ATOM     28  C   UNL     1      16.324  40.005  44.908  0.00  0.00    +0.000 A 
ATOM     29  C   UNL     1      16.798  38.954  44.107  0.00  0.00    +0.000 A 
ATOM     30  C   UNL     1      17.330  37.795  44.682  0.00  0.00    +0.000 A 
ATOM     31  C   UNL     1      17.404  37.661  46.076  0.00  0.00    +0.000 A 
ATOM     32  C   UNL     1      16.922  38.705  46.881  0.00  0.00    +0.000 A 
ATOM     33  C   UNL     1      16.391  39.864  46.302  0.00  0.00    +0.000 A 
BRANCH  31  34
ATOM     34  C   UNL     1      17.962  36.401  46.690  0.00  0.00    +0.000 C 
ATOM     35  F   UNL     1      17.654  35.282  45.976  0.00  0.00    +0.000 F 
ATOM     36  F   UNL     1      17.487  36.185  47.947  0.00  0.00    +0.000 F 
ATOM     37  F   UNL     1      19.320  36.408  46.801  0.00  0.00    +0.000 F 
ENDBRANCH  31  34
ENDBRANCH  24  28
ENDBRANCH  21  22
ENDBRANCH  20  21
ENDBRANCH   5  20
TORSDOF 8
ENDMDL
