MODEL 1
REMARK VINA RESULT:    -6.770      0.000      0.000
REMARK INTER + INTRA:          -9.109
REMARK INTER:                  -7.946
REMARK INTRA:                  -1.163
REMARK UNBOUND:                -0.757
REMARK  Name = 
REMARK  6 active torsions:
REMARK  status: ('A' for Active; 'I' for Inactive)
REMARK    1  A    between atoms: C_1  and  C_2
REMARK    2  A    between atoms: C_4  and  C_5
REMARK    3  A    between atoms: C_12  and  C_13
REMARK    4  A    between atoms: C_13  and  C_14
REMARK    5  A    between atoms: N_21  and  C_22
REMARK    6  A    between atoms: C_29  and  C_30
REMARK                            x       y       z     vdW  Elec       q    Type
REMARK                         _______ _______ _______ _____ _____    ______ ____
ROOT
ATOM      1  C   UNL     1      13.413  46.124  45.286  0.00  0.00    +0.000 A 
ATOM      2  C   UNL     1      12.603  45.828  46.390  0.00  0.00    +0.000 A 
ATOM      3  F   UNL     1      11.978  46.813  47.055  0.00  0.00    +0.000 F 
ATOM      4  C   UNL     1      12.433  44.528  46.850  0.00  0.00    +0.000 A 
ATOM      5  C   UNL     1      13.076  43.477  46.194  0.00  0.00    +0.000 A 
ATOM      6  C   UNL     1      12.906  42.099  46.719  0.00  0.00    +0.000 A 
ATOM      7  O   UNL     1      12.142  41.875  47.651  0.00  0.00    +0.000 OA
ATOM      8  C   UNL     1      13.699  41.014  46.090  0.00  0.00    +0.000 A 
ATOM      9  C   UNL     1      14.414  41.336  45.002  0.00  0.00    +0.000 A 
ATOM     10  N   UNL     1      14.489  42.584  44.415  0.00  0.00    +0.000 N 
ATOM     11  C   UNL     1      13.884  43.701  45.063  0.00  0.00    +0.000 A 
ATOM     12  C   UNL     1      14.043  45.039  44.643  0.00  0.00    +0.000 A 
ATOM     13  F   UNL     1      14.835  45.311  43.593  0.00  0.00    +0.000 F 
ENDROOT
BRANCH   1  17
ATOM     14  C   UNL     1      11.780  50.172  42.818  0.00  0.00    +0.000 C 
ATOM     15  C   UNL     1      12.824  49.472  43.634  0.00  0.00    +0.000 A 
ATOM     16  C   UNL     1      12.617  48.161  44.055  0.00  0.00    +0.000 A 
ATOM     17  C   UNL     1      13.597  47.513  44.819  0.00  0.00    +0.000 A 
ATOM     18  C   UNL     1      14.757  48.237  45.123  0.00  0.00    +0.000 A 
ATOM     19  C   UNL     1      14.897  49.544  44.664  0.00  0.00    +0.000 A 
ATOM     20  C   UNL     1      16.136  50.324  44.982  0.00  0.00    +0.000 C 
ATOM     21  N   UNL     1      13.948  50.163  43.927  0.00  0.00    +0.000 NA
ENDBRANCH   1  17
BRANCH  10  22
ATOM     22  C   UNL     1      15.332  42.735  43.213  0.00  0.00    +0.000 C 
ATOM     23  C   UNL     1      16.247  41.626  42.754  0.00  0.00    +0.000 C 
ATOM     24  C   UNL     1      16.834  42.893  43.285  0.00  0.00    +0.000 C 
ENDBRANCH  10  22
BRANCH   8  25
ATOM     25  C   UNL     1      13.622  39.638  46.677  0.00  0.00    +0.000 C 
BRANCH  25  26
ATOM     26  C   UNL     1      14.793  39.323  47.579  0.00  0.00    +0.000 A 
ATOM     27  C   UNL     1      15.981  38.821  47.054  0.00  0.00    +0.000 A 
ATOM     28  C   UNL     1      17.029  38.524  47.921  0.00  0.00    +0.000 A 
ATOM     29  C   UNL     1      16.864  38.733  49.284  0.00  0.00    +0.000 A 
ATOM     30  C   UNL     1      15.651  39.230  49.726  0.00  0.00    +0.000 A 
ATOM     31  N   UNL     1      14.615  39.526  48.910  0.00  0.00    +0.000 NA
ENDBRANCH  25  26
ENDBRANCH   8  25
TORSDOF 4
ENDMDL
MODEL 2
REMARK VINA RESULT:    -6.473      3.486      8.347
REMARK INTER + INTRA:          -8.744
REMARK INTER:                  -8.021
REMARK INTRA:                  -0.722
REMARK UNBOUND:                -0.757
REMARK  Name = 
REMARK  6 active torsions:
REMARK  status: ('A' for Active; 'I' for Inactive)
REMARK    1  A    between atoms: C_1  and  C_2
REMARK    2  A    between atoms: C_4  and  C_5
REMARK    3  A    between atoms: C_12  and  C_13
REMARK    4  A    between atoms: C_13  and  C_14
REMARK    5  A    between atoms: N_21  and  C_22
REMARK    6  A    between atoms: C_29  and  C_30
REMARK                            x       y       z     vdW  Elec       q    Type
REMARK                         _______ _______ _______ _____ _____    ______ ____
ROOT
ATOM      1  C   UNL     1      16.439  39.996  42.841  0.00  0.00    +0.000 A 
ATOM      2  C   UNL     1      16.547  39.720  44.210  0.00  0.00    +0.000 A 
ATOM      3  F   UNL     1      17.233  38.645  44.632  0.00  0.00    +0.000 F 
ATOM      4  C   UNL     1      15.943  40.519  45.171  0.00  0.00    +0.000 A 
ATOM      5  C   UNL     1      15.210  41.640  44.773  0.00  0.00    +0.000 A 
ATOM      6  C   UNL     1      14.546  42.464  45.813  0.00  0.00    +0.000 A 
ATOM      7  O   UNL     1      14.714  42.223  47.004  0.00  0.00    +0.000 OA
ATOM      8  C   UNL     1      13.667  43.572  45.364  0.00  0.00    +0.000 A 
ATOM      9  C   UNL     1      13.641  43.832  44.050  0.00  0.00    +0.000 A 
ATOM     10  N   UNL     1      14.349  43.163  43.071  0.00  0.00    +0.000 N 
ATOM     11  C   UNL     1      15.082  41.989  43.415  0.00  0.00    +0.000 A 
ATOM     12  C   UNL     1      15.697  41.137  42.473  0.00  0.00    +0.000 A 
ATOM     13  F   UNL     1      15.572  41.404  41.162  0.00  0.00    +0.000 F 
ENDROOT
BRANCH   1  17
ATOM     14  C   UNL     1      16.589  35.745  40.185  0.00  0.00    +0.000 C 
ATOM     15  C   UNL     1      17.160  37.084  40.542  0.00  0.00    +0.000 A 
ATOM     16  C   UNL     1      16.535  37.876  41.502  0.00  0.00    +0.000 A 
ATOM     17  C   UNL     1      17.074  39.127  41.829  0.00  0.00    +0.000 A 
ATOM     18  C   UNL     1      18.238  39.520  41.156  0.00  0.00    +0.000 A 
ATOM     19  C   UNL     1      18.810  38.675  40.211  0.00  0.00    +0.000 A 
ATOM     20  C   UNL     1      20.057  39.088  39.489  0.00  0.00    +0.000 C 
ATOM     21  N   UNL     1      18.285  37.469  39.900  0.00  0.00    +0.000 NA
ENDBRANCH   1  17
BRANCH  10  22
ATOM     22  C   UNL     1      14.188  43.606  41.673  0.00  0.00    +0.000 C 
ATOM     23  C   UNL     1      13.172  44.658  41.297  0.00  0.00    +0.000 C 
ATOM     24  C   UNL     1      12.979  43.249  40.838  0.00  0.00    +0.000 C 
ENDBRANCH  10  22
BRANCH   8  25
ATOM     25  C   UNL     1      12.904  44.344  46.397  0.00  0.00    +0.000 C 
BRANCH  25  26
ATOM     26  C   UNL     1      12.985  45.838  46.186  0.00  0.00    +0.000 A 
ATOM     27  C   UNL     1      14.133  46.420  45.652  0.00  0.00    +0.000 A 
ATOM     28  C   UNL     1      14.175  47.802  45.492  0.00  0.00    +0.000 A 
ATOM     29  C   UNL     1      13.078  48.565  45.871  0.00  0.00    +0.000 A 
ATOM     30  C   UNL     1      11.979  47.910  46.398  0.00  0.00    +0.000 A 
ATOM     31  N   UNL     1      11.907  46.571  46.567  0.00  0.00    +0.000 NA
ENDBRANCH  25  26
ENDBRANCH   8  25
TORSDOF 4
ENDMDL
MODEL 3
REMARK VINA RESULT:    -5.953      3.472      5.352
REMARK INTER + INTRA:          -8.102
REMARK INTER:                  -7.345
REMARK INTRA:                  -0.757
REMARK UNBOUND:                -0.757
REMARK  Name = 
REMARK  6 active torsions:
REMARK  status: ('A' for Active; 'I' for Inactive)
REMARK    1  A    between atoms: C_1  and  C_2
REMARK    2  A    between atoms: C_4  and  C_5
REMARK    3  A    between atoms: C_12  and  C_13
REMARK    4  A    between atoms: C_13  and  C_14
REMARK    5  A    between atoms: N_21  and  C_22
REMARK    6  A    between atoms: C_29  and  C_30
REMARK                            x       y       z     vdW  Elec       q    Type
REMARK                         _______ _______ _______ _____ _____    ______ ____
ROOT
ATOM      1  C   UNL     1      14.687  43.460  44.674  0.00  0.00    +0.000 A 
ATOM      2  C   UNL     1      15.049  43.455  43.321  0.00  0.00    +0.000 A 
ATOM      3  F   UNL     1      14.730  44.492  42.530  0.00  0.00    +0.000 F 
ATOM      4  C   UNL     1      15.723  42.386  42.744  0.00  0.00    +0.000 A 
ATOM      5  C   UNL     1      16.063  41.282  43.530  0.00  0.00    +0.000 A 
ATOM      6  C   UNL     1      16.755  40.137  42.888  0.00  0.00    +0.000 A 
ATOM      7  O   UNL     1      17.107  40.196  41.715  0.00  0.00    +0.000 OA
ATOM      8  C   UNL     1      16.992  38.923  43.707  0.00  0.00    +0.000 A 
ATOM      9  C   UNL     1      16.681  38.997  45.009  0.00  0.00    +0.000 A 
ATOM     10  N   UNL     1      16.154  40.095  45.661  0.00  0.00    +0.000 N 
ATOM     11  C   UNL     1      15.752  41.234  44.902  0.00  0.00    +0.000 A 
ATOM     12  C   UNL     1      15.051  42.334  45.440  0.00  0.00    +0.000 A 
ATOM     13  F   UNL     1      14.695  42.320  46.735  0.00  0.00    +0.000 F 
ENDROOT
BRANCH   1  17
ATOM     14  C   UNL     1      10.901  45.293  47.404  0.00  0.00    +0.000 C 
ATOM     15  C   UNL     1      12.138  45.496  46.582  0.00  0.00    +0.000 A 
ATOM     16  C   UNL     1      12.800  44.400  46.035  0.00  0.00    +0.000 A 
ATOM     17  C   UNL     1      13.957  44.597  45.269  0.00  0.00    +0.000 A 
ATOM     18  C   UNL     1      14.392  45.917  45.093  0.00  0.00    +0.000 A 
ATOM     19  C   UNL     1      13.677  46.964  45.667  0.00  0.00    +0.000 A 
ATOM     20  C   UNL     1      14.136  48.379  45.481  0.00  0.00    +0.000 C 
ATOM     21  N   UNL     1      12.562  46.766  46.404  0.00  0.00    +0.000 NA
ENDBRANCH   1  17
BRANCH  10  22
ATOM     22  C   UNL     1      15.882  39.979  47.106  0.00  0.00    +0.000 C 
ATOM     23  C   UNL     1      16.144  38.692  47.851  0.00  0.00    +0.000 C 
ATOM     24  C   UNL     1      14.738  39.160  47.658  0.00  0.00    +0.000 C 
ENDBRANCH  10  22
BRANCH   8  25
ATOM     25  C   UNL     1      17.591  37.718  43.046  0.00  0.00    +0.000 C 
BRANCH  25  26
ATOM     26  C   UNL     1      16.547  36.797  42.458  0.00  0.00    +0.000 A 
ATOM     27  C   UNL     1      16.252  36.833  41.097  0.00  0.00    +0.000 A 
ATOM     28  C   UNL     1      15.269  35.982  40.599  0.00  0.00    +0.000 A 
ATOM     29  C   UNL     1      14.607  35.125  41.467  0.00  0.00    +0.000 A 
ATOM     30  C   UNL     1      14.955  35.155  42.806  0.00  0.00    +0.000 A 
ATOM     31  N   UNL     1      15.904  35.969  43.320  0.00  0.00    +0.000 NA
ENDBRANCH  25  26
ENDBRANCH   8  25
TORSDOF 4
ENDMDL
