MODEL 1
REMARK VINA RESULT:    -5.838      0.000      0.000
REMARK INTER + INTRA:          -8.194
REMARK INTER:                  -7.498
REMARK INTRA:                  -0.696
REMARK UNBOUND:                -0.650
REMARK  Name = 
REMARK  5 active torsions:
REMARK  status: ('A' for Active; 'I' for Inactive)
REMARK    1  A    between atoms: C_2  and  C_3
REMARK    2  A    between atoms: C_2  and  C_9
REMARK    3  A    between atoms: N_12  and  C_13
REMARK    4  A    between atoms: C_13  and  C_14
REMARK    5  A    between atoms: C_14  and  C_15
REMARK                            x       y       z     vdW  Elec       q    Type
REMARK                         _______ _______ _______ _____ _____    ______ ____
ROOT
ATOM      1  C   UNL     1      16.406  40.789  52.467  0.00  0.00    +0.000 C 
ATOM      2  C   UNL     1      17.863  40.312  52.492  0.00  0.00    +0.000 C 
ATOM      3  C   UNL     1      18.041  38.930  51.855  0.00  0.00    +0.000 C 
ATOM      4  N   UNL     1      17.299  38.864  50.597  0.00  0.00    +0.000 NA
ATOM      5  C   UNL     1      15.845  38.998  50.779  0.00  0.00    +0.000 C 
ATOM      6  C   UNL     1      15.434  39.670  52.094  0.00  0.00    +0.000 C 
ENDROOT
BRANCH   1   8
ATOM      7  O   UNL     1      16.456  41.209  54.827  0.00  0.00    +0.000 OA
ATOM      8  C   UNL     1      16.029  41.565  53.725  0.00  0.00    +0.000 C 
BRANCH   8   9
ATOM      9  C   UNL     1      15.144  42.764  53.677  0.00  0.00    +0.000 A 
ATOM     10  C   UNL     1      15.742  44.004  53.412  0.00  0.00    +0.000 A 
ATOM     11  C   UNL     1      14.969  45.166  53.361  0.00  0.00    +0.000 A 
ATOM     12  C   UNL     1      13.595  45.097  53.583  0.00  0.00    +0.000 A 
ATOM     13  C   UNL     1      12.995  43.870  53.864  0.00  0.00    +0.000 A 
ATOM     14  C   UNL     1      13.767  42.705  53.916  0.00  0.00    +0.000 A 
ENDBRANCH   8   9
ENDBRANCH   1   8
BRANCH   4  15
ATOM     15  C   UNL     1      17.666  37.677  49.805  0.00  0.00    +0.000 C 
BRANCH  15  16
ATOM     16  C   UNL     1      18.149  36.470  50.635  0.00  0.00    +0.000 C 
BRANCH  16  17
ATOM     17  C   UNL     1      19.534  35.991  50.264  0.00  0.00    +0.000 A 
ATOM     18  C   UNL     1      19.763  35.371  49.027  0.00  0.00    +0.000 A 
ATOM     19  C   UNL     1      21.040  34.924  48.682  0.00  0.00    +0.000 A 
ATOM     20  C   UNL     1      22.101  35.092  49.570  0.00  0.00    +0.000 A 
ATOM     21  C   UNL     1      21.885  35.705  50.803  0.00  0.00    +0.000 A 
ATOM     22  C   UNL     1      20.608  36.152  51.148  0.00  0.00    +0.000 A 
ENDBRANCH  16  17
ENDBRANCH  15  16
ENDBRANCH   4  15
TORSDOF 5
ENDMDL
MODEL 2
REMARK VINA RESULT:    -5.714      3.766      8.793
REMARK INTER + INTRA:          -8.034
REMARK INTER:                  -7.178
REMARK INTRA:                  -0.856
REMARK UNBOUND:                -0.650
REMARK  Name = 
REMARK  5 active torsions:
REMARK  status: ('A' for Active; 'I' for Inactive)
REMARK    1  A    between atoms: C_2  and  C_3
REMARK    2  A    between atoms: C_2  and  C_9
REMARK    3  A    between atoms: N_12  and  C_13
REMARK    4  A    between atoms: C_13  and  C_14
REMARK    5  A    between atoms: C_14  and  C_15
REMARK                            x       y       z     vdW  Elec       q    Type
REMARK                         _______ _______ _______ _____ _____    ______ ____
ROOT
ATOM      1  C   UNL     1      20.702  34.925  52.353  0.00  0.00    +0.000 C 
ATOM      2  C   UNL     1      21.047  35.974  51.288  0.00  0.00    +0.000 C 
ATOM      3  C   UNL     1      19.901  36.210  50.300  0.00  0.00    +0.000 C 
ATOM      4  N   UNL     1      18.638  36.331  51.025  0.00  0.00    +0.000 NA
ATOM      5  C   UNL     1      18.260  35.098  51.734  0.00  0.00    +0.000 C 
ATOM      6  C   UNL     1      19.431  34.148  52.011  0.00  0.00    +0.000 C 
ENDROOT
BRANCH   1   8
ATOM      7  O   UNL     1      22.443  33.352  51.861  0.00  0.00    +0.000 OA
ATOM      8  C   UNL     1      21.900  34.054  52.718  0.00  0.00    +0.000 C 
BRANCH   8   9
ATOM      9  C   UNL     1      22.454  34.016  54.102  0.00  0.00    +0.000 A 
ATOM     10  C   UNL     1      21.642  34.493  55.142  0.00  0.00    +0.000 A 
ATOM     11  C   UNL     1      22.105  34.491  56.458  0.00  0.00    +0.000 A 
ATOM     12  C   UNL     1      23.385  34.020  56.744  0.00  0.00    +0.000 A 
ATOM     13  C   UNL     1      24.204  33.560  55.715  0.00  0.00    +0.000 A 
ATOM     14  C   UNL     1      23.743  33.561  54.395  0.00  0.00    +0.000 A 
ENDBRANCH   8   9
ENDBRANCH   1   8
BRANCH   4  15
ATOM     15  C   UNL     1      17.557  36.844  50.164  0.00  0.00    +0.000 C 
BRANCH  15  16
ATOM     16  C   UNL     1      17.313  38.363  50.271  0.00  0.00    +0.000 C 
BRANCH  16  17
ATOM     17  C   UNL     1      17.309  38.881  51.691  0.00  0.00    +0.000 A 
ATOM     18  C   UNL     1      16.342  38.439  52.606  0.00  0.00    +0.000 A 
ATOM     19  C   UNL     1      16.334  38.918  53.917  0.00  0.00    +0.000 A 
ATOM     20  C   UNL     1      17.290  39.845  54.327  0.00  0.00    +0.000 A 
ATOM     21  C   UNL     1      18.254  40.294  53.427  0.00  0.00    +0.000 A 
ATOM     22  C   UNL     1      18.263  39.815  52.116  0.00  0.00    +0.000 A 
ENDBRANCH  16  17
ENDBRANCH  15  16
ENDBRANCH   4  15
TORSDOF 5
ENDMDL
MODEL 3
REMARK VINA RESULT:    -5.652      7.344      8.256
REMARK INTER + INTRA:          -7.953
REMARK INTER:                  -7.304
REMARK INTRA:                  -0.650
REMARK UNBOUND:                -0.650
REMARK  Name = 
REMARK  5 active torsions:
REMARK  status: ('A' for Active; 'I' for Inactive)
REMARK    1  A    between atoms: C_2  and  C_3
REMARK    2  A    between atoms: C_2  and  C_9
REMARK    3  A    between atoms: N_12  and  C_13
REMARK    4  A    between atoms: C_13  and  C_14
REMARK    5  A    between atoms: C_14  and  C_15
REMARK                            x       y       z     vdW  Elec       q    Type
REMARK                         _______ _______ _______ _____ _____    ______ ____
ROOT
ATOM      1  C   UNL     1      14.507  44.375  45.284  0.00  0.00    +0.000 C 
ATOM      2  C   UNL     1      14.642  43.016  45.981  0.00  0.00    +0.000 C 
ATOM      3  C   UNL     1      14.879  41.869  44.994  0.00  0.00    +0.000 C 
ATOM      4  N   UNL     1      15.886  42.260  44.010  0.00  0.00    +0.000 NA
ATOM      5  C   UNL     1      15.460  43.386  43.165  0.00  0.00    +0.000 C 
ATOM      6  C   UNL     1      14.338  44.238  43.771  0.00  0.00    +0.000 C 
ENDROOT
BRANCH   1   8
ATOM      7  O   UNL     1      12.572  44.779  46.641  0.00  0.00    +0.000 OA
ATOM      8  C   UNL     1      13.474  45.272  45.959  0.00  0.00    +0.000 C 
BRANCH   8   9
ATOM      9  C   UNL     1      13.512  46.757  45.825  0.00  0.00    +0.000 A 
ATOM     10  C   UNL     1      12.396  47.479  46.271  0.00  0.00    +0.000 A 
ATOM     11  C   UNL     1      12.366  48.871  46.166  0.00  0.00    +0.000 A 
ATOM     12  C   UNL     1      13.447  49.550  45.608  0.00  0.00    +0.000 A 
ATOM     13  C   UNL     1      14.553  48.838  45.146  0.00  0.00    +0.000 A 
ATOM     14  C   UNL     1      14.585  47.444  45.249  0.00  0.00    +0.000 A 
ENDBRANCH   8   9
ENDBRANCH   1   8
BRANCH   4  15
ATOM     15  C   UNL     1      16.362  41.108  43.223  0.00  0.00    +0.000 C 
BRANCH  15  16
ATOM     16  C   UNL     1      15.739  39.755  43.618  0.00  0.00    +0.000 C 
BRANCH  16  17
ATOM     17  C   UNL     1      16.707  38.813  44.298  0.00  0.00    +0.000 A 
ATOM     18  C   UNL     1      16.888  38.862  45.688  0.00  0.00    +0.000 A 
ATOM     19  C   UNL     1      17.783  37.996  46.318  0.00  0.00    +0.000 A 
ATOM     20  C   UNL     1      18.509  37.074  45.566  0.00  0.00    +0.000 A 
ATOM     21  C   UNL     1      18.340  37.018  44.184  0.00  0.00    +0.000 A 
ATOM     22  C   UNL     1      17.444  37.883  43.554  0.00  0.00    +0.000 A 
ENDBRANCH  16  17
ENDBRANCH  15  16
ENDBRANCH   4  15
TORSDOF 5
ENDMDL
