MODEL 1
REMARK VINA RESULT:    -7.893      0.000      0.000
REMARK INTER + INTRA:         -11.513
REMARK INTER:                 -10.019
REMARK INTRA:                  -1.494
REMARK UNBOUND:                -1.313
REMARK  Name = 
REMARK  5 active torsions:
REMARK  status: ('A' for Active; 'I' for Inactive)
REMARK    1  A    between atoms: N_11  and  C_12
REMARK    2  A    between atoms: C_12  and  C_13
REMARK    3  A    between atoms: C_14  and  C_15
REMARK    4  A    between atoms: C_21  and  C_22
REMARK    5  A    between atoms: C_34  and  C_35
REMARK                            x       y       z     vdW  Elec       q    Type
REMARK                         _______ _______ _______ _____ _____    ______ ____
ROOT
ATOM      1  C   UNL     1      13.989  40.261  49.546  0.00  0.00    +0.000 A 
ATOM      2  C   UNL     1      14.784  39.155  49.259  0.00  0.00    +0.000 A 
ATOM      3  C   UNL     1      15.494  38.515  50.279  0.00  0.00    +0.000 A 
ATOM      4  C   UNL     1      15.426  38.987  51.601  0.00  0.00    +0.000 A 
ATOM      5  C   UNL     1      14.624  40.110  51.891  0.00  0.00    +0.000 A 
ATOM      6  C   UNL     1      13.904  40.733  50.855  0.00  0.00    +0.000 A 
ATOM      7  C   UNL     1      14.554  40.745  53.246  0.00  0.00    +0.000 C 
ATOM      8  N   UNL     1      14.447  40.118  54.365  0.00  0.00    +0.000 NA
ATOM      9  C   UNL     1      14.361  38.664  54.383  0.00  0.00    +0.000 C 
ATOM     10  C   UNL     1      15.633  38.078  53.902  0.00  0.00    +0.000 A 
ATOM     11  N   UNL     1      16.422  37.250  54.550  0.00  0.00    +0.000 NA
ATOM     12  N   UNL     1      17.474  36.949  53.735  0.00  0.00    +0.000 NA
ATOM     13  C   UNL     1      17.319  37.603  52.597  0.00  0.00    +0.000 A 
ATOM     14  N   UNL     1      16.112  38.283  52.625  0.00  0.00    +0.000 N 
ENDROOT
BRANCH   7  15
ATOM     15  C   UNL     1      14.642  42.228  53.316  0.00  0.00    +0.000 A 
ATOM     16  C   UNL     1      13.529  42.977  53.717  0.00  0.00    +0.000 A 
ATOM     17  C   UNL     1      13.620  44.370  53.773  0.00  0.00    +0.000 A 
ATOM     18  C   UNL     1      14.813  45.009  53.430  0.00  0.00    +0.000 A 
ATOM     19  C   UNL     1      15.921  44.260  53.031  0.00  0.00    +0.000 A 
ATOM     20  C   UNL     1      15.831  42.872  52.973  0.00  0.00    +0.000 A 
ATOM     21  F   UNL     1      16.921  42.171  52.627  0.00  0.00    +0.000 F 
ENDBRANCH   7  15
BRANCH  13  22
ATOM     22  C   UNL     1      18.322  37.708  51.516  0.00  0.00    +0.000 C 
ATOM     23  F   UNL     1      17.949  37.024  50.402  0.00  0.00    +0.000 F 
ATOM     24  F   UNL     1      19.537  37.217  51.877  0.00  0.00    +0.000 F 
ATOM     25  F   UNL     1      18.536  38.995  51.130  0.00  0.00    +0.000 F 
ENDBRANCH  13  22
BRANCH   1  27
ATOM     26  C   UNL     1      12.647  41.445  47.620  0.00  0.00    +0.000 C 
ATOM     27  C   UNL     1      13.260  40.909  48.502  0.00  0.00    +0.000 C 
BRANCH  26  28
ATOM     28  C   UNL     1      11.894  42.088  46.535  0.00  0.00    +0.000 C 
BRANCH  28  39
ATOM     29  O   UNL     1      10.461  44.510  47.434  0.00  0.00    +0.000 OA
ATOM     30  C   UNL     1      11.526  44.521  46.846  0.00  0.00    +0.000 C 
ATOM     31  C   UNL     1      12.251  45.736  46.480  0.00  0.00    +0.000 A 
ATOM     32  C   UNL     1      11.939  47.065  46.690  0.00  0.00    +0.000 A 
ATOM     33  C   UNL     1      12.847  48.017  46.216  0.00  0.00    +0.000 A 
ATOM     34  C   UNL     1      14.028  47.624  45.552  0.00  0.00    +0.000 A 
ATOM     35  C   UNL     1      14.321  46.271  45.350  0.00  0.00    +0.000 A 
ATOM     36  C   UNL     1      13.410  45.351  45.828  0.00  0.00    +0.000 A 
ATOM     37  C   UNL     1      13.422  43.889  45.777  0.00  0.00    +0.000 C 
ATOM     38  O   UNL     1      14.307  43.231  45.265  0.00  0.00    +0.000 OA
ATOM     39  N   UNL     1      12.280  43.472  46.401  0.00  0.00    +0.000 N 
ENDBRANCH  28  39
ENDBRANCH  26  28
ENDBRANCH   1  27
TORSDOF 5
ENDMDL
MODEL 2
REMARK VINA RESULT:    -7.720      6.992     10.790
REMARK INTER + INTRA:         -11.289
REMARK INTER:                 -10.491
REMARK INTRA:                  -0.798
REMARK UNBOUND:                -1.313
REMARK  Name = 
REMARK  5 active torsions:
REMARK  status: ('A' for Active; 'I' for Inactive)
REMARK    1  A    between atoms: N_11  and  C_12
REMARK    2  A    between atoms: C_12  and  C_13
REMARK    3  A    between atoms: C_14  and  C_15
REMARK    4  A    between atoms: C_21  and  C_22
REMARK    5  A    between atoms: C_34  and  C_35
REMARK                            x       y       z     vdW  Elec       q    Type
REMARK                         _______ _______ _______ _____ _____    ______ ____
ROOT
ATOM      1  C   UNL     1      20.013  35.999  51.453  0.00  0.00    +0.000 A 
ATOM      2  C   UNL     1      20.596  36.157  50.200  0.00  0.00    +0.000 A 
ATOM      3  C   UNL     1      21.615  35.296  49.783  0.00  0.00    +0.000 A 
ATOM      4  C   UNL     1      22.074  34.272  50.629  0.00  0.00    +0.000 A 
ATOM      5  C   UNL     1      21.486  34.114  51.901  0.00  0.00    +0.000 A 
ATOM      6  C   UNL     1      20.451  34.981  52.298  0.00  0.00    +0.000 A 
ATOM      7  C   UNL     1      21.962  33.115  52.912  0.00  0.00    +0.000 C 
ATOM      8  N   UNL     1      22.265  31.887  52.668  0.00  0.00    +0.000 NA
ATOM      9  C   UNL     1      22.137  31.357  51.318  0.00  0.00    +0.000 C 
ATOM     10  C   UNL     1      23.105  32.024  50.419  0.00  0.00    +0.000 A 
ATOM     11  N   UNL     1      24.049  31.453  49.705  0.00  0.00    +0.000 NA
ATOM     12  N   UNL     1      24.699  32.432  49.011  0.00  0.00    +0.000 NA
ATOM     13  C   UNL     1      24.148  33.594  49.316  0.00  0.00    +0.000 A 
ATOM     14  N   UNL     1      23.071  33.377  50.158  0.00  0.00    +0.000 N 
ENDROOT
BRANCH   7  15
ATOM     15  C   UNL     1      22.128  33.580  54.315  0.00  0.00    +0.000 A 
ATOM     16  C   UNL     1      21.001  33.780  55.122  0.00  0.00    +0.000 A 
ATOM     17  C   UNL     1      21.167  34.224  56.437  0.00  0.00    +0.000 A 
ATOM     18  C   UNL     1      22.447  34.467  56.939  0.00  0.00    +0.000 A 
ATOM     19  C   UNL     1      23.568  34.267  56.131  0.00  0.00    +0.000 A 
ATOM     20  C   UNL     1      23.404  33.826  54.820  0.00  0.00    +0.000 A 
ATOM     21  F   UNL     1      24.497  33.600  54.077  0.00  0.00    +0.000 F 
ENDBRANCH   7  15
BRANCH  13  22
ATOM     22  C   UNL     1      24.668  34.924  48.933  0.00  0.00    +0.000 C 
ATOM     23  F   UNL     1      25.982  34.882  48.588  0.00  0.00    +0.000 F 
ATOM     24  F   UNL     1      24.564  35.838  49.934  0.00  0.00    +0.000 F 
ATOM     25  F   UNL     1      24.003  35.454  47.871  0.00  0.00    +0.000 F 
ENDBRANCH  13  22
BRANCH   1  27
ATOM     26  C   UNL     1      18.081  37.609  52.224  0.00  0.00    +0.000 C 
ATOM     27  C   UNL     1      18.966  36.878  51.873  0.00  0.00    +0.000 C 
BRANCH  26  28
ATOM     28  C   UNL     1      16.988  38.492  52.653  0.00  0.00    +0.000 C 
BRANCH  28  39
ATOM     29  O   UNL     1      16.985  40.974  54.256  0.00  0.00    +0.000 OA
ATOM     30  C   UNL     1      17.008  39.852  54.727  0.00  0.00    +0.000 C 
ATOM     31  C   UNL     1      17.052  39.562  56.159  0.00  0.00    +0.000 A 
ATOM     32  C   UNL     1      17.079  40.413  57.246  0.00  0.00    +0.000 A 
ATOM     33  C   UNL     1      17.122  39.827  58.515  0.00  0.00    +0.000 A 
ATOM     34  C   UNL     1      17.137  38.424  58.665  0.00  0.00    +0.000 A 
ATOM     35  C   UNL     1      17.111  37.583  57.547  0.00  0.00    +0.000 A 
ATOM     36  C   UNL     1      17.068  38.186  56.306  0.00  0.00    +0.000 A 
ATOM     37  C   UNL     1      17.034  37.599  54.966  0.00  0.00    +0.000 C 
ATOM     38  O   UNL     1      17.039  36.403  54.744  0.00  0.00    +0.000 OA
ATOM     39  N   UNL     1      16.995  38.644  54.088  0.00  0.00    +0.000 N 
ENDBRANCH  28  39
ENDBRANCH  26  28
ENDBRANCH   1  27
TORSDOF 5
ENDMDL
MODEL 3
REMARK VINA RESULT:    -7.154      2.426      3.794
REMARK INTER + INTRA:         -10.558
REMARK INTER:                  -9.245
REMARK INTRA:                  -1.313
REMARK UNBOUND:                -1.313
REMARK  Name = 
REMARK  5 active torsions:
REMARK  status: ('A' for Active; 'I' for Inactive)
REMARK    1  A    between atoms: N_11  and  C_12
REMARK    2  A    between atoms: C_12  and  C_13
REMARK    3  A    between atoms: C_14  and  C_15
REMARK    4  A    between atoms: C_21  and  C_22
REMARK    5  A    between atoms: C_34  and  C_35
REMARK                            x       y       z     vdW  Elec       q    Type
REMARK                         _______ _______ _______ _____ _____    ______ ____
ROOT
ATOM      1  C   UNL     1      17.019  38.165  47.985  0.00  0.00    +0.000 A 
ATOM      2  C   UNL     1      18.031  37.212  47.904  0.00  0.00    +0.000 A 
ATOM      3  C   UNL     1      18.396  36.475  49.034  0.00  0.00    +0.000 A 
ATOM      4  C   UNL     1      17.757  36.696  50.267  0.00  0.00    +0.000 A 
ATOM      5  C   UNL     1      16.735  37.663  50.350  0.00  0.00    +0.000 A 
ATOM      6  C   UNL     1      16.371  38.386  49.198  0.00  0.00    +0.000 A 
ATOM      7  C   UNL     1      16.055  38.038  51.631  0.00  0.00    +0.000 C 
ATOM      8  N   UNL     1      15.636  37.214  52.528  0.00  0.00    +0.000 NA
ATOM      9  C   UNL     1      15.785  35.779  52.329  0.00  0.00    +0.000 C 
ATOM     10  C   UNL     1      17.221  35.417  52.326  0.00  0.00    +0.000 A 
ATOM     11  N   UNL     1      17.828  34.571  53.128  0.00  0.00    +0.000 NA
ATOM     12  N   UNL     1      19.144  34.525  52.770  0.00  0.00    +0.000 NA
ATOM     13  C   UNL     1      19.328  35.352  51.755  0.00  0.00    +0.000 A 
ATOM     14  N   UNL     1      18.108  35.892  51.384  0.00  0.00    +0.000 N 
ENDROOT
BRANCH   7  15
ATOM     15  C   UNL     1      15.870  39.486  51.915  0.00  0.00    +0.000 A 
ATOM     16  C   UNL     1      16.971  40.274  52.274  0.00  0.00    +0.000 A 
ATOM     17  C   UNL     1      16.786  41.632  52.545  0.00  0.00    +0.000 A 
ATOM     18  C   UNL     1      15.512  42.198  52.459  0.00  0.00    +0.000 A 
ATOM     19  C   UNL     1      14.417  41.410  52.101  0.00  0.00    +0.000 A 
ATOM     20  C   UNL     1      14.600  40.055  51.832  0.00  0.00    +0.000 A 
ATOM     21  F   UNL     1      13.541  39.328  51.449  0.00  0.00    +0.000 F 
ENDBRANCH   7  15
BRANCH  13  22
ATOM     22  C   UNL     1      20.635  35.746  51.187  0.00  0.00    +0.000 C 
ATOM     23  F   UNL     1      20.824  37.092  51.220  0.00  0.00    +0.000 F 
ATOM     24  F   UNL     1      20.779  35.371  49.889  0.00  0.00    +0.000 F 
ATOM     25  F   UNL     1      21.680  35.189  51.857  0.00  0.00    +0.000 F 
ENDBRANCH  13  22
BRANCH   1  27
ATOM     26  C   UNL     1      16.322  39.540  45.854  0.00  0.00    +0.000 C 
ATOM     27  C   UNL     1      16.645  38.913  46.825  0.00  0.00    +0.000 C 
BRANCH  26  28
ATOM     28  C   UNL     1      15.913  40.307  44.671  0.00  0.00    +0.000 C 
BRANCH  28  39
ATOM     29  O   UNL     1      16.370  43.163  44.067  0.00  0.00    +0.000 OA
ATOM     30  C   UNL     1      15.442  42.742  44.733  0.00  0.00    +0.000 C 
ATOM     31  C   UNL     1      14.421  43.587  45.348  0.00  0.00    +0.000 A 
ATOM     32  C   UNL     1      14.264  44.959  45.333  0.00  0.00    +0.000 A 
ATOM     33  C   UNL     1      13.169  45.484  46.028  0.00  0.00    +0.000 A 
ATOM     34  C   UNL     1      12.271  44.637  46.711  0.00  0.00    +0.000 A 
ATOM     35  C   UNL     1      12.453  43.250  46.712  0.00  0.00    +0.000 A 
ATOM     36  C   UNL     1      13.540  42.756  46.019  0.00  0.00    +0.000 A 
ATOM     37  C   UNL     1      14.001  41.381  45.831  0.00  0.00    +0.000 C 
ATOM     38  O   UNL     1      13.446  40.405  46.298  0.00  0.00    +0.000 OA
ATOM     39  N   UNL     1      15.125  41.453  45.058  0.00  0.00    +0.000 N 
ENDBRANCH  28  39
ENDBRANCH  26  28
ENDBRANCH   1  27
TORSDOF 5
ENDMDL
