MODEL 1
REMARK VINA RESULT:    -6.533      0.000      0.000
REMARK INTER + INTRA:         -10.058
REMARK INTER:                  -9.292
REMARK INTRA:                  -0.765
REMARK UNBOUND:                -1.234
REMARK  Name = 
REMARK  6 active torsions:
REMARK  status: ('A' for Active; 'I' for Inactive)
REMARK    1  A    between atoms: C_2  and  C_5
REMARK    2  A    between atoms: C_9  and  N_10
REMARK    3  A    between atoms: N_13  and  C_14
REMARK    4  A    between atoms: C_14  and  C_15
REMARK    5  A    between atoms: C_15  and  C_16
REMARK    6  A    between atoms: C_16  and  N_17
REMARK                            x       y       z     vdW  Elec       q    Type
REMARK                         _______ _______ _______ _____ _____    ______ ____
ROOT
ATOM      1  C   UNL     1      13.960  40.089  50.474  0.00  0.00    +0.000 C 
ENDROOT
BRANCH   1   5
ATOM      2  N   UNL     1      17.285  39.491  52.742  0.00  0.00    +0.000 N 
ATOM      3  C   UNL     1      16.663  38.540  51.782  0.00  0.00    +0.000 C 
ATOM      4  C   UNL     1      16.269  39.226  50.450  0.00  0.00    +0.000 C 
ATOM      5  N   UNL     1      15.392  40.415  50.579  0.00  0.00    +0.000 NA
ATOM      6  C   UNL     1      15.663  41.139  51.847  0.00  0.00    +0.000 C 
ATOM      7  C   UNL     1      17.086  40.914  52.395  0.00  0.00    +0.000 C 
BRANCH   2  12
ATOM      8  C   UNL     1      17.030  39.448  56.491  0.00  0.00    +0.000 A 
ATOM      9  C   UNL     1      17.224  38.085  56.737  0.00  0.00    +0.000 A 
ATOM     10  C   UNL     1      17.445  37.214  55.677  0.00  0.00    +0.000 A 
ATOM     11  C   UNL     1      17.465  37.700  54.368  0.00  0.00    +0.000 A 
ATOM     12  C   UNL     1      17.259  39.059  54.072  0.00  0.00    +0.000 A 
ATOM     13  C   UNL     1      17.046  39.916  55.161  0.00  0.00    +0.000 A 
BRANCH   8  15
ATOM     14  F   UNL     1      17.923  40.824  58.222  0.00  0.00    +0.000 F 
ATOM     15  C   UNL     1      16.774  40.415  57.617  0.00  0.00    +0.000 C 
ATOM     16  F   UNL     1      16.136  41.554  57.224  0.00  0.00    +0.000 F 
ATOM     17  F   UNL     1      16.003  39.882  58.605  0.00  0.00    +0.000 F 
ENDBRANCH   8  15
ENDBRANCH   2  12
ENDBRANCH   1   5
BRANCH   1  18
ATOM     18  C   UNL     1      13.445  40.083  49.027  0.00  0.00    +0.000 C 
BRANCH  18  19
ATOM     19  C   UNL     1      14.137  41.109  48.114  0.00  0.00    +0.000 C 
BRANCH  19  20
ATOM     20  N   UNL     1      13.681  41.055  46.712  0.00  0.00    +0.000 NA
ATOM     21  C   UNL     1      12.230  41.375  46.610  0.00  0.00    +0.000 C 
ATOM     22  C   UNL     1      11.831  42.828  46.990  0.00  0.00    +0.000 C 
ATOM     23  C   UNL     1      12.815  43.793  46.426  0.00  0.00    +0.000 A 
ATOM     24  C   UNL     1      14.019  43.354  45.913  0.00  0.00    +0.000 A 
ATOM     25  N   UNL     1      14.724  44.443  45.484  0.00  0.00    +0.000 N 
ATOM     26  C   UNL     1      13.998  45.592  45.726  0.00  0.00    +0.000 A 
ATOM     27  C   UNL     1      14.319  46.929  45.463  0.00  0.00    +0.000 A 
ATOM     28  C   UNL     1      13.383  47.904  45.823  0.00  0.00    +0.000 A 
ATOM     29  C   UNL     1      12.175  47.553  46.422  0.00  0.00    +0.000 A 
ATOM     30  C   UNL     1      11.867  46.210  46.675  0.00  0.00    +0.000 A 
ATOM     31  C   UNL     1      12.791  45.209  46.320  0.00  0.00    +0.000 A 
ATOM     32  C   UNL     1      14.465  41.936  45.812  0.00  0.00    +0.000 C 
ATOM     33  H   UNL     1      15.639  44.424  45.057  0.00  0.00    +0.000 HD
ENDBRANCH  19  20
ENDBRANCH  18  19
ENDBRANCH   1  18
TORSDOF 6
ENDMDL
MODEL 2
REMARK VINA RESULT:    -6.291      5.974     10.543
REMARK INTER + INTRA:          -9.731
REMARK INTER:                  -8.497
REMARK INTRA:                  -1.234
REMARK UNBOUND:                -1.234
REMARK  Name = 
REMARK  6 active torsions:
REMARK  status: ('A' for Active; 'I' for Inactive)
REMARK    1  A    between atoms: C_2  and  C_5
REMARK    2  A    between atoms: C_9  and  N_10
REMARK    3  A    between atoms: N_13  and  C_14
REMARK    4  A    between atoms: C_14  and  C_15
REMARK    5  A    between atoms: C_15  and  C_16
REMARK    6  A    between atoms: C_16  and  N_17
REMARK                            x       y       z     vdW  Elec       q    Type
REMARK                         _______ _______ _______ _____ _____    ______ ____
ROOT
ATOM      1  C   UNL     1      17.815  38.086  50.763  0.00  0.00    +0.000 C 
ENDROOT
BRANCH   1   5
ATOM      2  N   UNL     1      16.772  40.012  54.193  0.00  0.00    +0.000 N 
ATOM      3  C   UNL     1      18.028  40.172  53.412  0.00  0.00    +0.000 C 
ATOM      4  C   UNL     1      17.762  40.278  51.890  0.00  0.00    +0.000 C 
ATOM      5  N   UNL     1      16.974  39.168  51.301  0.00  0.00    +0.000 NA
ATOM      6  C   UNL     1      16.005  38.625  52.285  0.00  0.00    +0.000 C 
ATOM      7  C   UNL     1      15.598  39.637  53.376  0.00  0.00    +0.000 C 
BRANCH   2  12
ATOM      8  C   UNL     1      17.511  37.656  57.026  0.00  0.00    +0.000 A 
ATOM      9  C   UNL     1      17.318  38.510  58.116  0.00  0.00    +0.000 A 
ATOM     10  C   UNL     1      16.940  39.831  57.903  0.00  0.00    +0.000 A 
ATOM     11  C   UNL     1      16.762  40.303  56.601  0.00  0.00    +0.000 A 
ATOM     12  C   UNL     1      16.960  39.485  55.475  0.00  0.00    +0.000 A 
ATOM     13  C   UNL     1      17.333  38.156  55.720  0.00  0.00    +0.000 A 
BRANCH   8  15
ATOM     14  F   UNL     1      17.407  35.392  56.282  0.00  0.00    +0.000 F 
ATOM     15  C   UNL     1      17.934  36.223  57.223  0.00  0.00    +0.000 C 
ATOM     16  F   UNL     1      19.283  36.041  57.167  0.00  0.00    +0.000 F 
ATOM     17  F   UNL     1      17.543  35.718  58.426  0.00  0.00    +0.000 F 
ENDBRANCH   8  15
ENDBRANCH   2  12
ENDBRANCH   1   5
BRANCH   1  18
ATOM     18  C   UNL     1      18.792  37.506  51.796  0.00  0.00    +0.000 C 
BRANCH  18  19
ATOM     19  C   UNL     1      19.874  36.598  51.190  0.00  0.00    +0.000 C 
BRANCH  19  20
ATOM     20  N   UNL     1      19.530  35.163  51.226  0.00  0.00    +0.000 NA
ATOM     21  C   UNL     1      20.673  34.329  50.760  0.00  0.00    +0.000 C 
ATOM     22  C   UNL     1      21.935  34.349  51.666  0.00  0.00    +0.000 C 
ATOM     23  C   UNL     1      21.537  34.276  53.100  0.00  0.00    +0.000 A 
ATOM     24  C   UNL     1      20.224  34.466  53.478  0.00  0.00    +0.000 A 
ATOM     25  N   UNL     1      20.150  34.363  54.837  0.00  0.00    +0.000 N 
ATOM     26  C   UNL     1      21.407  34.122  55.355  0.00  0.00    +0.000 A 
ATOM     27  C   UNL     1      21.815  33.953  56.683  0.00  0.00    +0.000 A 
ATOM     28  C   UNL     1      23.174  33.724  56.921  0.00  0.00    +0.000 A 
ATOM     29  C   UNL     1      24.087  33.667  55.870  0.00  0.00    +0.000 A 
ATOM     30  C   UNL     1      23.663  33.836  54.546  0.00  0.00    +0.000 A 
ATOM     31  C   UNL     1      22.300  34.065  54.279  0.00  0.00    +0.000 A 
ATOM     32  C   UNL     1      19.074  34.708  52.561  0.00  0.00    +0.000 C 
ATOM     33  H   UNL     1      19.311  34.450  55.393  0.00  0.00    +0.000 HD
ENDBRANCH  19  20
ENDBRANCH  18  19
ENDBRANCH   1  18
TORSDOF 6
ENDMDL
MODEL 3
REMARK VINA RESULT:    -6.184      5.369      9.753
REMARK INTER + INTRA:          -9.586
REMARK INTER:                  -7.813
REMARK INTRA:                  -1.773
REMARK UNBOUND:                -1.234
REMARK  Name = 
REMARK  6 active torsions:
REMARK  status: ('A' for Active; 'I' for Inactive)
REMARK    1  A    between atoms: C_2  and  C_5
REMARK    2  A    between atoms: C_9  and  N_10
REMARK    3  A    between atoms: N_13  and  C_14
REMARK    4  A    between atoms: C_14  and  C_15
REMARK    5  A    between atoms: C_15  and  C_16
REMARK    6  A    between atoms: C_16  and  N_17
REMARK                            x       y       z     vdW  Elec       q    Type
REMARK                         _______ _______ _______ _____ _____    ______ ____
ROOT
ATOM      1  C   UNL     1      17.060  38.837  50.207  0.00  0.00    +0.000 C 
ENDROOT
BRANCH   1   5
ATOM      2  N   UNL     1      16.687  39.745  54.157  0.00  0.00    +0.000 N 
ATOM      3  C   UNL     1      17.811  40.100  53.250  0.00  0.00    +0.000 C 
ATOM      4  C   UNL     1      17.315  40.629  51.881  0.00  0.00    +0.000 C 
ATOM      5  N   UNL     1      16.380  39.738  51.153  0.00  0.00    +0.000 NA
ATOM      6  C   UNL     1      15.548  38.955  52.101  0.00  0.00    +0.000 C 
ATOM      7  C   UNL     1      15.379  39.628  53.478  0.00  0.00    +0.000 C 
BRANCH   2  12
ATOM      8  C   UNL     1      17.425  38.360  57.571  0.00  0.00    +0.000 A 
ATOM      9  C   UNL     1      17.783  37.050  57.236  0.00  0.00    +0.000 A 
ATOM     10  C   UNL     1      17.786  36.652  55.904  0.00  0.00    +0.000 A 
ATOM     11  C   UNL     1      17.425  37.559  54.905  0.00  0.00    +0.000 A 
ATOM     12  C   UNL     1      17.043  38.880  55.197  0.00  0.00    +0.000 A 
ATOM     13  C   UNL     1      17.056  39.256  56.547  0.00  0.00    +0.000 A 
BRANCH   8  15
ATOM     14  F   UNL     1      17.292  40.171  59.118  0.00  0.00    +0.000 F 
ATOM     15  C   UNL     1      17.397  38.818  59.006  0.00  0.00    +0.000 C 
ATOM     16  F   UNL     1      16.358  38.304  59.723  0.00  0.00    +0.000 F 
ATOM     17  F   UNL     1      18.524  38.475  59.691  0.00  0.00    +0.000 F 
ENDBRANCH   8  15
ENDBRANCH   2  12
ENDBRANCH   1   5
BRANCH   1  18
ATOM     18  C   UNL     1      17.195  37.399  50.729  0.00  0.00    +0.000 C 
BRANCH  18  19
ATOM     19  C   UNL     1      18.644  36.976  51.021  0.00  0.00    +0.000 C 
BRANCH  19  20
ATOM     20  N   UNL     1      18.938  35.578  50.648  0.00  0.00    +0.000 NA
ATOM     21  C   UNL     1      20.401  35.373  50.458  0.00  0.00    +0.000 C 
ATOM     22  C   UNL     1      21.274  35.524  51.735  0.00  0.00    +0.000 C 
ATOM     23  C   UNL     1      20.606  34.866  52.892  0.00  0.00    +0.000 A 
ATOM     24  C   UNL     1      19.287  34.470  52.813  0.00  0.00    +0.000 A 
ATOM     25  N   UNL     1      18.933  33.917  54.010  0.00  0.00    +0.000 N 
ATOM     26  C   UNL     1      20.005  33.961  54.878  0.00  0.00    +0.000 A 
ATOM     27  C   UNL     1      20.108  33.521  56.203  0.00  0.00    +0.000 A 
ATOM     28  C   UNL     1      21.333  33.699  56.853  0.00  0.00    +0.000 A 
ATOM     29  C   UNL     1      22.412  34.293  56.202  0.00  0.00    +0.000 A 
ATOM     30  C   UNL     1      22.295  34.725  54.875  0.00  0.00    +0.000 A 
ATOM     31  C   UNL     1      21.072  34.556  54.197  0.00  0.00    +0.000 A 
ATOM     32  C   UNL     1      18.404  34.593  51.618  0.00  0.00    +0.000 C 
ATOM     33  H   UNL     1      18.027  33.534  54.240  0.00  0.00    +0.000 HD
ENDBRANCH  19  20
ENDBRANCH  18  19
ENDBRANCH   1  18
TORSDOF 6
ENDMDL
