MODEL 1
REMARK VINA RESULT:    -7.944      0.000      0.000
REMARK INTER + INTRA:         -13.155
REMARK INTER:                 -10.980
REMARK INTRA:                  -2.176
REMARK UNBOUND:                -1.728
REMARK  Name = 
REMARK  8 active torsions:
REMARK  status: ('A' for Active; 'I' for Inactive)
REMARK    1  A    between atoms: O_1  and  C_2
REMARK    2  A    between atoms: C_3  and  C_4
REMARK    3  A    between atoms: C_4  and  N_5
REMARK    4  A    between atoms: C_12  and  N_13
REMARK    5  A    between atoms: N_13  and  C_14
REMARK    6  A    between atoms: C_16  and  C_17
REMARK    7  A    between atoms: C_35  and  C_36
REMARK    8  A    between atoms: C_36  and  N_37
REMARK                            x       y       z     vdW  Elec       q    Type
REMARK                         _______ _______ _______ _____ _____    ______ ____
ROOT
ATOM      1  C   UNL     1      15.965  39.024  50.344  0.00  0.00    +0.000 A 
ATOM      2  C   UNL     1      14.804  39.811  50.425  0.00  0.00    +0.000 A 
ATOM      3  C   UNL     1      14.207  40.248  49.229  0.00  0.00    +0.000 A 
ATOM      4  C   UNL     1      14.744  39.922  47.979  0.00  0.00    +0.000 A 
ATOM      5  C   UNL     1      15.881  39.105  47.937  0.00  0.00    +0.000 A 
ATOM      6  C   UNL     1      16.512  38.657  49.110  0.00  0.00    +0.000 A 
ENDROOT
BRANCH   1   7
ATOM      7  O   UNL     1      16.582  38.583  51.484  0.00  0.00    +0.000 OA
ATOM      8  H   UNL     1      16.134  37.748  51.745  0.00  0.00    +0.000 HD
ENDBRANCH   1   7
BRANCH   4   9
ATOM      9  N   UNL     1      14.135  40.298  46.752  0.00  0.00    +0.000 N 
ATOM     10  H   UNL     1      13.998  39.465  46.181  0.00  0.00    +0.000 HD
BRANCH   9  11
ATOM     11  C   UNL     1      14.505  41.411  45.950  0.00  0.00    +0.000 A 
ATOM     12  C   UNL     1      13.965  42.664  46.252  0.00  0.00    +0.000 A 
ATOM     13  C   UNL     1      14.258  43.751  45.438  0.00  0.00    +0.000 A 
ATOM     14  N   UNL     1      15.041  43.618  44.339  0.00  0.00    +0.000 NA
ATOM     15  C   UNL     1      15.558  42.418  44.033  0.00  0.00    +0.000 A 
ATOM     16  C   UNL     1      16.355  42.309  42.901  0.00  0.00    +0.000 A 
ATOM     17  C   UNL     1      16.932  41.096  42.516  0.00  0.00    +0.000 A 
ATOM     18  C   UNL     1      16.712  39.958  43.277  0.00  0.00    +0.000 A 
ATOM     19  C   UNL     1      15.917  40.042  44.417  0.00  0.00    +0.000 A 
ATOM     20  C   UNL     1      15.323  41.265  44.807  0.00  0.00    +0.000 A 
BRANCH  13  21
ATOM     21  C   UNL     1      13.727  45.111  45.683  0.00  0.00    +0.000 A 
ATOM     22  C   UNL     1      12.523  45.295  46.384  0.00  0.00    +0.000 A 
ATOM     23  C   UNL     1      12.004  46.569  46.633  0.00  0.00    +0.000 A 
ATOM     24  C   UNL     1      12.675  47.712  46.184  0.00  0.00    +0.000 A 
ATOM     25  C   UNL     1      12.169  49.000  46.426  0.00  0.00    +0.000 A 
ATOM     26  C   UNL     1      12.849  50.130  45.967  0.00  0.00    +0.000 A 
ATOM     27  C   UNL     1      14.041  49.985  45.265  0.00  0.00    +0.000 A 
ATOM     28  C   UNL     1      14.553  48.711  45.017  0.00  0.00    +0.000 A 
ATOM     29  C   UNL     1      13.882  47.564  45.470  0.00  0.00    +0.000 A 
ATOM     30  C   UNL     1      14.385  46.271  45.226  0.00  0.00    +0.000 A 
ENDBRANCH  13  21
ENDBRANCH   9  11
ENDBRANCH   4   9
BRANCH   2  31
ATOM     31  C   UNL     1      14.218  40.283  51.742  0.00  0.00    +0.000 C 
BRANCH  31  32
ATOM     32  N   UNL     1      15.237  40.722  52.720  0.00  0.00    +0.000 NA
ATOM     33  C   UNL     1      15.653  42.123  52.461  0.00  0.00    +0.000 C 
ATOM     34  C   UNL     1      14.964  43.153  53.370  0.00  0.00    +0.000 C 
ATOM     35  O   UNL     1      15.215  42.925  54.764  0.00  0.00    +0.000 OA
ATOM     36  C   UNL     1      15.452  41.545  55.073  0.00  0.00    +0.000 C 
ATOM     37  C   UNL     1      14.724  40.594  54.112  0.00  0.00    +0.000 C 
ENDBRANCH  31  32
ENDBRANCH   2  31
BRANCH   6  38
ATOM     38  C   UNL     1      17.745  37.785  48.999  0.00  0.00    +0.000 C 
BRANCH  38  39
ATOM     39  N   UNL     1      17.636  36.533  49.772  0.00  0.00    +0.000 NA
ATOM     40  C   UNL     1      18.917  36.192  50.427  0.00  0.00    +0.000 C 
ATOM     41  C   UNL     1      19.758  35.172  49.642  0.00  0.00    +0.000 C 
ATOM     42  O   UNL     1      19.084  33.924  49.434  0.00  0.00    +0.000 OA
ATOM     43  C   UNL     1      17.655  34.054  49.425  0.00  0.00    +0.000 C 
ATOM     44  C   UNL     1      17.190  35.420  48.899  0.00  0.00    +0.000 C 
ENDBRANCH  38  39
ENDBRANCH   6  38
TORSDOF 8
ENDMDL
MODEL 2
REMARK VINA RESULT:    -7.836      1.212      5.088
REMARK INTER + INTRA:         -12.999
REMARK INTER:                 -10.773
REMARK INTRA:                  -2.226
REMARK UNBOUND:                -1.728
REMARK  Name = 
REMARK  8 active torsions:
REMARK  status: ('A' for Active; 'I' for Inactive)
REMARK    1  A    between atoms: O_1  and  C_2
REMARK    2  A    between atoms: C_3  and  C_4
REMARK    3  A    between atoms: C_4  and  N_5
REMARK    4  A    between atoms: C_12  and  N_13
REMARK    5  A    between atoms: N_13  and  C_14
REMARK    6  A    between atoms: C_16  and  C_17
REMARK    7  A    between atoms: C_35  and  C_36
REMARK    8  A    between atoms: C_36  and  N_37
REMARK                            x       y       z     vdW  Elec       q    Type
REMARK                         _______ _______ _______ _____ _____    ______ ____
ROOT
ATOM      1  C   UNL     1      16.842  38.445  50.998  0.00  0.00    +0.000 A 
ATOM      2  C   UNL     1      17.366  37.839  49.844  0.00  0.00    +0.000 A 
ATOM      3  C   UNL     1      16.653  37.967  48.638  0.00  0.00    +0.000 A 
ATOM      4  C   UNL     1      15.447  38.672  48.571  0.00  0.00    +0.000 A 
ATOM      5  C   UNL     1      14.975  39.295  49.733  0.00  0.00    +0.000 A 
ATOM      6  C   UNL     1      15.653  39.181  50.959  0.00  0.00    +0.000 A 
ENDROOT
BRANCH   1   7
ATOM      7  O   UNL     1      17.501  38.339  52.194  0.00  0.00    +0.000 OA
ATOM      8  H   UNL     1      17.316  39.164  52.695  0.00  0.00    +0.000 HD
ENDBRANCH   1   7
BRANCH   4   9
ATOM      9  N   UNL     1      14.732  38.870  47.359  0.00  0.00    +0.000 N 
ATOM     10  H   UNL     1      14.674  37.984  46.860  0.00  0.00    +0.000 HD
BRANCH   9  11
ATOM     11  C   UNL     1      14.917  39.952  46.457  0.00  0.00    +0.000 A 
ATOM     12  C   UNL     1      14.270  41.163  46.721  0.00  0.00    +0.000 A 
ATOM     13  C   UNL     1      14.380  42.211  45.815  0.00  0.00    +0.000 A 
ATOM     14  N   UNL     1      15.084  42.077  44.664  0.00  0.00    +0.000 NA
ATOM     15  C   UNL     1      15.701  40.915  44.394  0.00  0.00    +0.000 A 
ATOM     16  C   UNL     1      16.413  40.804  43.207  0.00  0.00    +0.000 A 
ATOM     17  C   UNL     1      17.085  39.631  42.854  0.00  0.00    +0.000 A 
ATOM     18  C   UNL     1      17.050  38.536  43.705  0.00  0.00    +0.000 A 
ATOM     19  C   UNL     1      16.342  38.623  44.901  0.00  0.00    +0.000 A 
ATOM     20  C   UNL     1      15.653  39.806  45.260  0.00  0.00    +0.000 A 
BRANCH  13  21
ATOM     21  C   UNL     1      13.727  43.524  46.014  0.00  0.00    +0.000 A 
ATOM     22  C   UNL     1      12.482  43.614  46.660  0.00  0.00    +0.000 A 
ATOM     23  C   UNL     1      11.848  44.843  46.866  0.00  0.00    +0.000 A 
ATOM     24  C   UNL     1      12.440  46.033  46.429  0.00  0.00    +0.000 A 
ATOM     25  C   UNL     1      11.818  47.277  46.627  0.00  0.00    +0.000 A 
ATOM     26  C   UNL     1      12.421  48.455  46.181  0.00  0.00    +0.000 A 
ATOM     27  C   UNL     1      13.651  48.402  45.533  0.00  0.00    +0.000 A 
ATOM     28  C   UNL     1      14.278  47.172  45.328  0.00  0.00    +0.000 A 
ATOM     29  C   UNL     1      13.686  45.978  45.770  0.00  0.00    +0.000 A 
ATOM     30  C   UNL     1      14.306  44.729  45.568  0.00  0.00    +0.000 A 
ENDBRANCH  13  21
ENDBRANCH   9  11
ENDBRANCH   4   9
BRANCH   2  31
ATOM     31  C   UNL     1      18.616  36.980  49.860  0.00  0.00    +0.000 C 
BRANCH  31  32
ATOM     32  N   UNL     1      18.679  36.047  51.005  0.00  0.00    +0.000 NA
ATOM     33  C   UNL     1      18.272  34.678  50.598  0.00  0.00    +0.000 C 
ATOM     34  C   UNL     1      19.453  33.735  50.323  0.00  0.00    +0.000 C 
ATOM     35  O   UNL     1      20.309  33.563  51.460  0.00  0.00    +0.000 OA
ATOM     36  C   UNL     1      20.318  34.701  52.332  0.00  0.00    +0.000 C 
ATOM     37  C   UNL     1      20.050  36.016  51.587  0.00  0.00    +0.000 C 
ENDBRANCH  31  32
ENDBRANCH   2  31
BRANCH   6  38
ATOM     38  C   UNL     1      15.086  39.867  52.184  0.00  0.00    +0.000 C 
BRANCH  38  39
ATOM     39  N   UNL     1      15.995  40.886  52.745  0.00  0.00    +0.000 NA
ATOM     40  C   UNL     1      15.856  40.980  54.214  0.00  0.00    +0.000 C 
ATOM     41  C   UNL     1      14.931  42.117  54.675  0.00  0.00    +0.000 C 
ATOM     42  O   UNL     1      15.370  43.412  54.244  0.00  0.00    +0.000 OA
ATOM     43  C   UNL     1      16.149  43.367  53.039  0.00  0.00    +0.000 C 
ATOM     44  C   UNL     1      15.744  42.207  52.118  0.00  0.00    +0.000 C 
ENDBRANCH  38  39
ENDBRANCH   6  38
TORSDOF 8
ENDMDL
MODEL 3
REMARK VINA RESULT:    -7.734      2.708      5.259
REMARK INTER + INTRA:         -12.852
REMARK INTER:                 -11.124
REMARK INTRA:                  -1.728
REMARK UNBOUND:                -1.728
REMARK  Name = 
REMARK  8 active torsions:
REMARK  status: ('A' for Active; 'I' for Inactive)
REMARK    1  A    between atoms: O_1  and  C_2
REMARK    2  A    between atoms: C_3  and  C_4
REMARK    3  A    between atoms: C_4  and  N_5
REMARK    4  A    between atoms: C_12  and  N_13
REMARK    5  A    between atoms: N_13  and  C_14
REMARK    6  A    between atoms: C_16  and  C_17
REMARK    7  A    between atoms: C_35  and  C_36
REMARK    8  A    between atoms: C_36  and  N_37
REMARK                            x       y       z     vdW  Elec       q    Type
REMARK                         _______ _______ _______ _____ _____    ______ ____
ROOT
ATOM      1  C   UNL     1      12.552  40.624  50.408  0.00  0.00    +0.000 A 
ATOM      2  C   UNL     1      13.906  40.336  50.650  0.00  0.00    +0.000 A 
ATOM      3  C   UNL     1      14.799  40.354  49.564  0.00  0.00    +0.000 A 
ATOM      4  C   UNL     1      14.367  40.642  48.264  0.00  0.00    +0.000 A 
ATOM      5  C   UNL     1      13.018  40.961  48.067  0.00  0.00    +0.000 A 
ATOM      6  C   UNL     1      12.093  40.944  49.126  0.00  0.00    +0.000 A 
ENDROOT
BRANCH   1   7
ATOM      7  O   UNL     1      11.648  40.611  51.437  0.00  0.00    +0.000 OA
ATOM      8  H   UNL     1      10.878  40.081  51.132  0.00  0.00    +0.000 HD
ENDBRANCH   1   7
BRANCH   4   9
ATOM      9  N   UNL     1      15.251  40.725  47.156  0.00  0.00    +0.000 N 
ATOM     10  H   UNL     1      16.205  40.573  47.480  0.00  0.00    +0.000 HD
BRANCH   9  11
ATOM     11  C   UNL     1      15.211  41.716  46.137  0.00  0.00    +0.000 A 
ATOM     12  C   UNL     1      14.639  42.957  46.431  0.00  0.00    +0.000 A 
ATOM     13  C   UNL     1      14.526  43.914  45.430  0.00  0.00    +0.000 A 
ATOM     14  N   UNL     1      14.938  43.661  44.164  0.00  0.00    +0.000 NA
ATOM     15  C   UNL     1      15.479  42.470  43.866  0.00  0.00    +0.000 A 
ATOM     16  C   UNL     1      15.891  42.237  42.561  0.00  0.00    +0.000 A 
ATOM     17  C   UNL     1      16.466  41.024  42.171  0.00  0.00    +0.000 A 
ATOM     18  C   UNL     1      16.639  40.013  43.105  0.00  0.00    +0.000 A 
ATOM     19  C   UNL     1      16.234  40.224  44.421  0.00  0.00    +0.000 A 
ATOM     20  C   UNL     1      15.643  41.446  44.819  0.00  0.00    +0.000 A 
BRANCH  13  21
ATOM     21  C   UNL     1      13.932  45.252  45.654  0.00  0.00    +0.000 A 
ATOM     22  C   UNL     1      12.710  45.387  46.334  0.00  0.00    +0.000 A 
ATOM     23  C   UNL     1      12.132  46.640  46.563  0.00  0.00    +0.000 A 
ATOM     24  C   UNL     1      12.759  47.808  46.115  0.00  0.00    +0.000 A 
ATOM     25  C   UNL     1      12.193  49.074  46.336  0.00  0.00    +0.000 A 
ATOM     26  C   UNL     1      12.831  50.229  45.879  0.00  0.00    +0.000 A 
ATOM     27  C   UNL     1      14.039  50.131  45.197  0.00  0.00    +0.000 A 
ATOM     28  C   UNL     1      14.610  48.878  44.968  0.00  0.00    +0.000 A 
ATOM     29  C   UNL     1      13.983  47.706  45.422  0.00  0.00    +0.000 A 
ATOM     30  C   UNL     1      14.546  46.435  45.197  0.00  0.00    +0.000 A 
ENDBRANCH  13  21
ENDBRANCH   9  11
ENDBRANCH   4   9
BRANCH   2  31
ATOM     31  C   UNL     1      14.429  39.923  52.012  0.00  0.00    +0.000 C 
BRANCH  31  32
ATOM     32  N   UNL     1      15.732  40.531  52.356  0.00  0.00    +0.000 NA
ATOM     33  C   UNL     1      15.608  41.427  53.534  0.00  0.00    +0.000 C 
ATOM     34  C   UNL     1      16.052  40.779  54.854  0.00  0.00    +0.000 C 
ATOM     35  O   UNL     1      17.421  40.352  54.836  0.00  0.00    +0.000 OA
ATOM     36  C   UNL     1      17.881  40.003  53.523  0.00  0.00    +0.000 C 
ATOM     37  C   UNL     1      16.752  39.480  52.624  0.00  0.00    +0.000 C 
ENDBRANCH  31  32
ENDBRANCH   2  31
BRANCH   6  38
ATOM     38  C   UNL     1      10.644  41.285  48.848  0.00  0.00    +0.000 C 
BRANCH  38  39
ATOM     39  N   UNL     1      10.225  42.559  49.464  0.00  0.00    +0.000 NA
ATOM     40  C   UNL     1       8.860  42.461  50.024  0.00  0.00    +0.000 C 
ATOM     41  C   UNL     1       7.769  43.008  49.089  0.00  0.00    +0.000 C 
ATOM     42  O   UNL     1       7.952  44.390  48.754  0.00  0.00    +0.000 OA
ATOM     43  C   UNL     1       9.326  44.803  48.812  0.00  0.00    +0.000 C 
ATOM     44  C   UNL     1      10.299  43.664  48.477  0.00  0.00    +0.000 C 
ENDBRANCH  38  39
ENDBRANCH   6  38
TORSDOF 8
ENDMDL
