MODEL 1
REMARK VINA RESULT:    -6.875      0.000      0.000
REMARK INTER + INTRA:         -11.152
REMARK INTER:                  -9.064
REMARK INTRA:                  -2.088
REMARK UNBOUND:                -1.865
REMARK  Name = 
REMARK  8 active torsions:
REMARK  status: ('A' for Active; 'I' for Inactive)
REMARK    1  A    between atoms: C_1  and  O_2
REMARK    2  A    between atoms: O_2  and  C_3
REMARK    3  A    between atoms: C_8  and  N_9
REMARK    4  A    between atoms: C_13  and  C_15
REMARK    5  A    between atoms: C_15  and  C_16
REMARK    6  A    between atoms: C_16  and  C_17
REMARK    7  A    between atoms: C_18  and  C_19
REMARK    8  A    between atoms: C_30  and  C_31
REMARK                            x       y       z     vdW  Elec       q    Type
REMARK                         _______ _______ _______ _____ _____    ______ ____
ROOT
ATOM      1  C   UNL     1      11.682  47.525  44.259  0.00  0.00    +0.000 C 
ENDROOT
BRANCH   1   2
ATOM      2  C   UNL     1      13.108  47.616  44.721  0.00  0.00    +0.000 A 
ATOM      3  C   UNL     1      13.827  46.656  45.426  0.00  0.00    +0.000 A 
ATOM      4  N   UNL     1      15.084  47.175  45.648  0.00  0.00    +0.000 N 
ATOM      5  C   UNL     1      15.203  48.430  45.108  0.00  0.00    +0.000 A 
ATOM      6  C   UNL     1      16.295  49.304  45.091  0.00  0.00    +0.000 A 
ATOM      7  C   UNL     1      16.127  50.542  44.462  0.00  0.00    +0.000 A 
ATOM      8  C   UNL     1      14.907  50.905  43.882  0.00  0.00    +0.000 A 
ATOM      9  C   UNL     1      14.761  52.227  43.189  0.00  0.00    +0.000 C 
ATOM     10  C   UNL     1      13.832  50.000  43.904  0.00  0.00    +0.000 A 
ATOM     11  C   UNL     1      13.978  48.741  44.527  0.00  0.00    +0.000 A 
ATOM     12  H   UNL     1      15.824  46.689  46.134  0.00  0.00    +0.000 HD
BRANCH   3  13
ATOM     13  C   UNL     1      13.456  45.328  45.906  0.00  0.00    +0.000 A 
ATOM     14  C   UNL     1      12.197  45.103  46.475  0.00  0.00    +0.000 A 
ATOM     15  C   UNL     1      11.839  43.833  46.930  0.00  0.00    +0.000 A 
ATOM     16  C   UNL     1      12.739  42.774  46.819  0.00  0.00    +0.000 A 
ATOM     17  C   UNL     1      13.992  42.993  46.248  0.00  0.00    +0.000 A 
ATOM     18 BR   UNL     1      15.210  41.555  46.085  0.00  0.00    +0.000 Br
ATOM     19  C   UNL     1      14.355  44.260  45.791  0.00  0.00    +0.000 A 
ENDBRANCH   3  13
ENDBRANCH   1   2
BRANCH   1  20
ATOM     20  C   UNL     1      11.573  46.917  42.862  0.00  0.00    +0.000 C 
BRANCH  20  25
ATOM     21  N   UNL     1      14.188  42.500  42.142  0.00  0.00    +0.000 N 
ATOM     22  C   UNL     1      13.031  42.259  43.030  0.00  0.00    +0.000 C 
ATOM     23  C   UNL     1      11.805  43.100  42.626  0.00  0.00    +0.000 C 
ATOM     24  N   UNL     1      12.108  44.531  42.523  0.00  0.00    +0.000 N 
ATOM     25  C   UNL     1      11.153  45.458  42.912  0.00  0.00    +0.000 C 
ATOM     26  O   UNL     1      10.024  45.123  43.271  0.00  0.00    +0.000 OA
ATOM     27  C   UNL     1      13.457  44.870  42.051  0.00  0.00    +0.000 C 
ATOM     28  C   UNL     1      14.148  43.709  41.310  0.00  0.00    +0.000 C 
BRANCH  21  34
ATOM     29  C   UNL     1      14.760  40.417  40.921  0.00  0.00    +0.000 A 
ATOM     30  C   UNL     1      15.686  39.391  40.665  0.00  0.00    +0.000 A 
ATOM     31  C   UNL     1      16.909  39.351  41.332  0.00  0.00    +0.000 A 
ATOM     32  C   UNL     1      17.217  40.331  42.261  0.00  0.00    +0.000 A 
ATOM     33  C   UNL     1      16.304  41.359  42.516  0.00  0.00    +0.000 A 
ATOM     34  C   UNL     1      15.062  41.448  41.855  0.00  0.00    +0.000 A 
BRANCH  29  36
ATOM     35  C   UNL     1      13.453  40.774  38.939  0.00  0.00    +0.000 C 
ATOM     36  O   UNL     1      13.519  40.463  40.323  0.00  0.00    +0.000 OA
ENDBRANCH  29  36
ENDBRANCH  21  34
ENDBRANCH  20  25
ENDBRANCH   1  20
TORSDOF 6
ENDMDL
MODEL 2
REMARK VINA RESULT:    -6.744      2.389      3.788
REMARK INTER + INTRA:         -10.974
REMARK INTER:                  -9.109
REMARK INTRA:                  -1.865
REMARK UNBOUND:                -1.865
REMARK  Name = 
REMARK  8 active torsions:
REMARK  status: ('A' for Active; 'I' for Inactive)
REMARK    1  A    between atoms: C_1  and  O_2
REMARK    2  A    between atoms: O_2  and  C_3
REMARK    3  A    between atoms: C_8  and  N_9
REMARK    4  A    between atoms: C_13  and  C_15
REMARK    5  A    between atoms: C_15  and  C_16
REMARK    6  A    between atoms: C_16  and  C_17
REMARK    7  A    between atoms: C_18  and  C_19
REMARK    8  A    between atoms: C_30  and  C_31
REMARK                            x       y       z     vdW  Elec       q    Type
REMARK                         _______ _______ _______ _____ _____    ______ ____
ROOT
ATOM      1  C   UNL     1      11.861  43.975  46.875  0.00  0.00    +0.000 C 
ENDROOT
BRANCH   1   2
ATOM      2  C   UNL     1      12.929  44.841  46.269  0.00  0.00    +0.000 A 
ATOM      3  C   UNL     1      14.145  44.427  45.735  0.00  0.00    +0.000 A 
ATOM      4  N   UNL     1      14.808  45.558  45.313  0.00  0.00    +0.000 N 
ATOM      5  C   UNL     1      14.062  46.685  45.551  0.00  0.00    +0.000 A 
ATOM      6  C   UNL     1      14.344  48.027  45.275  0.00  0.00    +0.000 A 
ATOM      7  C   UNL     1      13.387  48.980  45.638  0.00  0.00    +0.000 A 
ATOM      8  C   UNL     1      12.194  48.610  46.269  0.00  0.00    +0.000 A 
ATOM      9  C   UNL     1      11.171  49.649  46.623  0.00  0.00    +0.000 C 
ATOM     10  C   UNL     1      11.934  47.253  46.521  0.00  0.00    +0.000 A 
ATOM     11  C   UNL     1      12.882  46.271  46.159  0.00  0.00    +0.000 A 
ATOM     12  H   UNL     1      15.718  45.557  44.875  0.00  0.00    +0.000 HD
BRANCH   3  13
ATOM     13  C   UNL     1      14.736  43.099  45.587  0.00  0.00    +0.000 A 
ATOM     14  C   UNL     1      14.692  42.180  46.642  0.00  0.00    +0.000 A 
ATOM     15  C   UNL     1      15.253  40.909  46.501  0.00  0.00    +0.000 A 
ATOM     16  C   UNL     1      15.862  40.545  45.301  0.00  0.00    +0.000 A 
ATOM     17  C   UNL     1      15.903  41.456  44.246  0.00  0.00    +0.000 A 
ATOM     18 BR   UNL     1      16.718  40.961  42.613  0.00  0.00    +0.000 Br
ATOM     19  C   UNL     1      15.344  42.728  44.381  0.00  0.00    +0.000 A 
ENDBRANCH   3  13
ENDBRANCH   1   2
BRANCH   1  20
ATOM     20  C   UNL     1      10.790  43.594  45.855  0.00  0.00    +0.000 C 
BRANCH  20  25
ATOM     21  N   UNL     1      12.561  42.536  41.100  0.00  0.00    +0.000 N 
ATOM     22  C   UNL     1      12.948  41.455  42.031  0.00  0.00    +0.000 C 
ATOM     23  C   UNL     1      11.854  41.176  43.081  0.00  0.00    +0.000 C 
ATOM     24  N   UNL     1      11.443  42.382  43.806  0.00  0.00    +0.000 N 
ATOM     25  C   UNL     1      11.118  42.289  45.151  0.00  0.00    +0.000 C 
ATOM     26  O   UNL     1      11.087  41.211  45.743  0.00  0.00    +0.000 OA
ATOM     27  C   UNL     1      11.463  43.633  43.036  0.00  0.00    +0.000 C 
ATOM     28  C   UNL     1      11.452  43.405  41.513  0.00  0.00    +0.000 C 
BRANCH  21  34
ATOM     29  C   UNL     1      13.891  43.410  39.197  0.00  0.00    +0.000 A 
ATOM     30  C   UNL     1      14.290  43.289  37.854  0.00  0.00    +0.000 A 
ATOM     31  C   UNL     1      13.790  42.266  37.051  0.00  0.00    +0.000 A 
ATOM     32  C   UNL     1      12.888  41.357  37.579  0.00  0.00    +0.000 A 
ATOM     33  C   UNL     1      12.492  41.465  38.916  0.00  0.00    +0.000 A 
ATOM     34  C   UNL     1      12.983  42.476  39.769  0.00  0.00    +0.000 A 
BRANCH  29  36
ATOM     35  C   UNL     1      15.231  44.131  41.055  0.00  0.00    +0.000 C 
ATOM     36  O   UNL     1      14.321  44.438  40.008  0.00  0.00    +0.000 OA
ENDBRANCH  29  36
ENDBRANCH  21  34
ENDBRANCH  20  25
ENDBRANCH   1  20
TORSDOF 6
ENDMDL
MODEL 3
REMARK VINA RESULT:    -6.700      6.031      8.730
REMARK INTER + INTRA:         -10.915
REMARK INTER:                  -9.575
REMARK INTRA:                  -1.340
REMARK UNBOUND:                -1.865
REMARK  Name = 
REMARK  8 active torsions:
REMARK  status: ('A' for Active; 'I' for Inactive)
REMARK    1  A    between atoms: C_1  and  O_2
REMARK    2  A    between atoms: O_2  and  C_3
REMARK    3  A    between atoms: C_8  and  N_9
REMARK    4  A    between atoms: C_13  and  C_15
REMARK    5  A    between atoms: C_15  and  C_16
REMARK    6  A    between atoms: C_16  and  C_17
REMARK    7  A    between atoms: C_18  and  C_19
REMARK    8  A    between atoms: C_30  and  C_31
REMARK                            x       y       z     vdW  Elec       q    Type
REMARK                         _______ _______ _______ _____ _____    ______ ____
ROOT
ATOM      1  C   UNL     1      14.110  38.991  51.961  0.00  0.00    +0.000 C 
ENDROOT
BRANCH   1   2
ATOM      2  C   UNL     1      15.145  40.075  52.075  0.00  0.00    +0.000 A 
ATOM      3  C   UNL     1      16.502  39.975  51.787  0.00  0.00    +0.000 A 
ATOM      4  N   UNL     1      17.063  41.204  52.053  0.00  0.00    +0.000 N 
ATOM      5  C   UNL     1      16.117  42.094  52.496  0.00  0.00    +0.000 A 
ATOM      6  C   UNL     1      16.246  43.437  52.865  0.00  0.00    +0.000 A 
ATOM      7  C   UNL     1      15.094  44.107  53.289  0.00  0.00    +0.000 A 
ATOM      8  C   UNL     1      13.857  43.457  53.359  0.00  0.00    +0.000 A 
ATOM      9  C   UNL     1      12.631  44.206  53.790  0.00  0.00    +0.000 C 
ATOM     10  C   UNL     1      13.757  42.111  52.969  0.00  0.00    +0.000 A 
ATOM     11  C   UNL     1      14.904  41.414  52.531  0.00  0.00    +0.000 A 
ATOM     12  H   UNL     1      18.040  41.426  51.925  0.00  0.00    +0.000 HD
BRANCH   3  13
ATOM     13  C   UNL     1      17.309  38.860  51.299  0.00  0.00    +0.000 A 
ATOM     14  C   UNL     1      18.232  38.228  52.142  0.00  0.00    +0.000 A 
ATOM     15  C   UNL     1      19.001  37.159  51.678  0.00  0.00    +0.000 A 
ATOM     16  C   UNL     1      18.853  36.711  50.366  0.00  0.00    +0.000 A 
ATOM     17  C   UNL     1      17.931  37.334  49.526  0.00  0.00    +0.000 A 
ATOM     18 BR   UNL     1      17.719  36.719  47.750  0.00  0.00    +0.000 Br
ATOM     19  C   UNL     1      17.159  38.402  49.984  0.00  0.00    +0.000 A 
ENDBRANCH   3  13
ENDBRANCH   1   2
BRANCH   1  20
ATOM     20  C   UNL     1      13.206  39.192  50.747  0.00  0.00    +0.000 C 
BRANCH  20  25
ATOM     21  N   UNL     1      15.067  40.966  46.246  0.00  0.00    +0.000 N 
ATOM     22  C   UNL     1      15.653  39.642  46.543  0.00  0.00    +0.000 C 
ATOM     23  C   UNL     1      14.641  38.702  47.228  0.00  0.00    +0.000 C 
ATOM     24  N   UNL     1      14.034  39.296  48.423  0.00  0.00    +0.000 N 
ATOM     25  C   UNL     1      13.749  38.490  49.515  0.00  0.00    +0.000 C 
ATOM     26  O   UNL     1      13.917  37.271  49.488  0.00  0.00    +0.000 OA
ATOM     27  C   UNL     1      13.821  40.749  48.380  0.00  0.00    +0.000 C 
ATOM     28  C   UNL     1      13.828  41.320  46.950  0.00  0.00    +0.000 C 
BRANCH  21  34
ATOM     29  C   UNL     1      15.362  43.063  44.953  0.00  0.00    +0.000 A 
ATOM     30  C   UNL     1      15.802  43.697  43.778  0.00  0.00    +0.000 A 
ATOM     31  C   UNL     1      16.337  42.957  42.725  0.00  0.00    +0.000 A 
ATOM     32  C   UNL     1      16.436  41.581  42.834  0.00  0.00    +0.000 A 
ATOM     33  C   UNL     1      16.008  40.942  44.002  0.00  0.00    +0.000 A 
ATOM     34  C   UNL     1      15.474  41.651  45.098  0.00  0.00    +0.000 A 
BRANCH  29  36
ATOM     35  C   UNL     1      13.838  44.769  45.682  0.00  0.00    +0.000 C 
ATOM     36  O   UNL     1      14.779  43.752  45.994  0.00  0.00    +0.000 OA
ENDBRANCH  29  36
ENDBRANCH  21  34
ENDBRANCH  20  25
ENDBRANCH   1  20
TORSDOF 6
ENDMDL
