MODEL 1
REMARK VINA RESULT:    -7.583      0.000      0.000
REMARK INTER + INTRA:         -10.645
REMARK INTER:                  -9.597
REMARK INTRA:                  -1.048
REMARK UNBOUND:                -0.845
REMARK  Name = 
REMARK  6 active torsions:
REMARK  status: ('A' for Active; 'I' for Inactive)
REMARK    1  A    between atoms: C_1  and  O_2
REMARK    2  A    between atoms: O_2  and  C_3
REMARK    3  A    between atoms: C_7  and  C_8
REMARK    4  A    between atoms: C_12  and  N_13
REMARK    5  A    between atoms: N_13  and  C_14
REMARK    6  A    between atoms: C_18  and  N_19
REMARK                            x       y       z     vdW  Elec       q    Type
REMARK                         _______ _______ _______ _____ _____    ______ ____
ROOT
ATOM      1  C   UNL     1      15.971  38.871  45.683  0.00  0.00    +0.000 A 
ATOM      2  C   UNL     1      15.551  40.138  45.868  0.00  0.00    +0.000 A 
ATOM      3  C   UNL     1      15.755  41.184  44.867  0.00  0.00    +0.000 A 
ATOM      4  C   UNL     1      15.334  42.503  45.084  0.00  0.00    +0.000 A 
ATOM      5  C   UNL     1      15.557  43.495  44.117  0.00  0.00    +0.000 A 
ATOM      6  C   UNL     1      16.205  43.148  42.930  0.00  0.00    +0.000 A 
ATOM      7  C   UNL     1      16.622  41.832  42.703  0.00  0.00    +0.000 A 
ATOM      8  C   UNL     1      16.395  40.859  43.671  0.00  0.00    +0.000 A 
ATOM      9  N   UNL     1      16.793  39.541  43.447  0.00  0.00    +0.000 N 
ATOM     10  C   UNL     1      16.584  38.515  44.332  0.00  0.00    +0.000 A 
ATOM     11  O   UNL     1      16.880  37.367  44.010  0.00  0.00    +0.000 OA
ATOM     12  H   UNL     1      17.215  39.274  42.569  0.00  0.00    +0.000 HD
ENDROOT
BRANCH   5  13
ATOM     13  N   UNL     1      15.099  44.796  44.416  0.00  0.00    +0.000 N 
ATOM     14  C   UNL     1      13.918  45.390  44.033  0.00  0.00    +0.000 C 
ATOM     15  O   UNL     1      13.056  44.864  43.336  0.00  0.00    +0.000 OA
ATOM     16  N   UNL     1      13.749  46.677  44.509  0.00  0.00    +0.000 N 
ATOM     17  C   UNL     1      12.525  47.407  44.219  0.00  0.00    +0.000 C 
ATOM     18  C   UNL     1      12.523  48.561  45.212  0.00  0.00    +0.000 C 
ATOM     19  C   UNL     1      14.006  48.847  45.397  0.00  0.00    +0.000 C 
ATOM     20  C   UNL     1      14.626  47.457  45.370  0.00  0.00    +0.000 C 
ATOM     21  H   UNL     1      15.721  45.366  44.965  0.00  0.00    +0.000 HD
ENDBRANCH   5  13
BRANCH   1  22
ATOM     22  N   UNL     1      15.769  37.875  46.633  0.00  0.00    +0.000 N 
ATOM     23  H   UNL     1      14.788  37.692  46.820  0.00  0.00    +0.000 HD
BRANCH  22  28
ATOM     24  C   UNL     1      17.357  38.258  50.037  0.00  0.00    +0.000 A 
ATOM     25  C   UNL     1      18.160  37.108  50.035  0.00  0.00    +0.000 A 
ATOM     26  C   UNL     1      18.165  36.243  48.942  0.00  0.00    +0.000 A 
ATOM     27  C   UNL     1      17.363  36.518  47.836  0.00  0.00    +0.000 A 
ATOM     28  C   UNL     1      16.533  37.649  47.804  0.00  0.00    +0.000 A 
ATOM     29  C   UNL     1      16.554  38.511  48.908  0.00  0.00    +0.000 A 
BRANCH  24  34
ATOM     30  C   UNL     1      16.612  41.257  52.246  0.00  0.00    +0.000 A 
ATOM     31  C   UNL     1      17.356  40.948  53.383  0.00  0.00    +0.000 A 
ATOM     32  C   UNL     1      18.100  39.767  53.430  0.00  0.00    +0.000 A 
ATOM     33  C   UNL     1      18.101  38.891  52.341  0.00  0.00    +0.000 A 
ATOM     34  C   UNL     1      17.359  39.179  51.186  0.00  0.00    +0.000 A 
ATOM     35  C   UNL     1      16.620  40.374  51.160  0.00  0.00    +0.000 A 
BRANCH  30  37
ATOM     36  C   UNL     1      16.123  43.487  52.907  0.00  0.00    +0.000 C 
ATOM     37  O   UNL     1      15.843  42.374  52.068  0.00  0.00    +0.000 OA
ENDBRANCH  30  37
ENDBRANCH  24  34
ENDBRANCH  22  28
ENDBRANCH   1  22
TORSDOF 5
ENDMDL
MODEL 2
REMARK VINA RESULT:    -7.443      1.004      1.474
REMARK INTER + INTRA:         -10.464
REMARK INTER:                  -9.551
REMARK INTRA:                  -0.913
REMARK UNBOUND:                -0.845
REMARK  Name = 
REMARK  6 active torsions:
REMARK  status: ('A' for Active; 'I' for Inactive)
REMARK    1  A    between atoms: C_1  and  O_2
REMARK    2  A    between atoms: O_2  and  C_3
REMARK    3  A    between atoms: C_7  and  C_8
REMARK    4  A    between atoms: C_12  and  N_13
REMARK    5  A    between atoms: N_13  and  C_14
REMARK    6  A    between atoms: C_18  and  N_19
REMARK                            x       y       z     vdW  Elec       q    Type
REMARK                         _______ _______ _______ _____ _____    ______ ____
ROOT
ATOM      1  C   UNL     1      16.026  38.841  45.862  0.00  0.00    +0.000 A 
ATOM      2  C   UNL     1      15.619  40.114  46.043  0.00  0.00    +0.000 A 
ATOM      3  C   UNL     1      15.764  41.136  45.007  0.00  0.00    +0.000 A 
ATOM      4  C   UNL     1      15.360  42.460  45.219  0.00  0.00    +0.000 A 
ATOM      5  C   UNL     1      15.526  43.429  44.218  0.00  0.00    +0.000 A 
ATOM      6  C   UNL     1      16.101  43.054  43.001  0.00  0.00    +0.000 A 
ATOM      7  C   UNL     1      16.501  41.731  42.780  0.00  0.00    +0.000 A 
ATOM      8  C   UNL     1      16.330  40.781  43.783  0.00  0.00    +0.000 A 
ATOM      9  N   UNL     1      16.711  39.458  43.566  0.00  0.00    +0.000 N 
ATOM     10  C   UNL     1      16.554  38.453  44.485  0.00  0.00    +0.000 A 
ATOM     11  O   UNL     1      16.828  37.296  44.173  0.00  0.00    +0.000 OA
ATOM     12  H   UNL     1      17.079  39.168  42.670  0.00  0.00    +0.000 HD
ENDROOT
BRANCH   5  13
ATOM     13  N   UNL     1      15.090  44.738  44.514  0.00  0.00    +0.000 N 
ATOM     14  C   UNL     1      13.800  45.218  44.542  0.00  0.00    +0.000 C 
ATOM     15  O   UNL     1      12.796  44.559  44.293  0.00  0.00    +0.000 OA
ATOM     16  N   UNL     1      13.698  46.551  44.893  0.00  0.00    +0.000 N 
ATOM     17  C   UNL     1      12.390  47.178  45.007  0.00  0.00    +0.000 C 
ATOM     18  C   UNL     1      12.646  48.462  45.783  0.00  0.00    +0.000 C 
ATOM     19  C   UNL     1      14.057  48.836  45.355  0.00  0.00    +0.000 C 
ATOM     20  C   UNL     1      14.753  47.486  45.257  0.00  0.00    +0.000 C 
ATOM     21  H   UNL     1      15.813  45.409  44.713  0.00  0.00    +0.000 HD
ENDBRANCH   5  13
BRANCH   1  22
ATOM     22  N   UNL     1      15.879  37.868  46.845  0.00  0.00    +0.000 N 
ATOM     23  H   UNL     1      14.927  37.528  46.935  0.00  0.00    +0.000 HD
BRANCH  22  28
ATOM     24  C   UNL     1      17.017  38.702  50.347  0.00  0.00    +0.000 A 
ATOM     25  C   UNL     1      17.940  37.661  50.531  0.00  0.00    +0.000 A 
ATOM     26  C   UNL     1      18.167  36.723  49.526  0.00  0.00    +0.000 A 
ATOM     27  C   UNL     1      17.470  36.812  48.322  0.00  0.00    +0.000 A 
ATOM     28  C   UNL     1      16.526  37.827  48.104  0.00  0.00    +0.000 A 
ATOM     29  C   UNL     1      16.324  38.767  49.123  0.00  0.00    +0.000 A 
BRANCH  24  34
ATOM     30  C   UNL     1      17.129  40.490  53.696  0.00  0.00    +0.000 A 
ATOM     31  C   UNL     1      16.348  41.613  53.430  0.00  0.00    +0.000 A 
ATOM     32  C   UNL     1      15.784  41.786  52.165  0.00  0.00    +0.000 A 
ATOM     33  C   UNL     1      16.002  40.839  51.161  0.00  0.00    +0.000 A 
ATOM     34  C   UNL     1      16.785  39.701  51.403  0.00  0.00    +0.000 A 
ATOM     35  C   UNL     1      17.341  39.546  52.684  0.00  0.00    +0.000 A 
BRANCH  30  37
ATOM     36  C   UNL     1      16.891  39.853  55.973  0.00  0.00    +0.000 C 
ATOM     37  O   UNL     1      17.739  40.198  54.886  0.00  0.00    +0.000 OA
ENDBRANCH  30  37
ENDBRANCH  24  34
ENDBRANCH  22  28
ENDBRANCH   1  22
TORSDOF 5
ENDMDL
MODEL 3
REMARK VINA RESULT:    -7.335      2.807      4.060
REMARK INTER + INTRA:         -10.324
REMARK INTER:                  -9.479
REMARK INTRA:                  -0.845
REMARK UNBOUND:                -0.845
REMARK  Name = 
REMARK  6 active torsions:
REMARK  status: ('A' for Active; 'I' for Inactive)
REMARK    1  A    between atoms: C_1  and  O_2
REMARK    2  A    between atoms: O_2  and  C_3
REMARK    3  A    between atoms: C_7  and  C_8
REMARK    4  A    between atoms: C_12  and  N_13
REMARK    5  A    between atoms: N_13  and  C_14
REMARK    6  A    between atoms: C_18  and  N_19
REMARK                            x       y       z     vdW  Elec       q    Type
REMARK                         _______ _______ _______ _____ _____    ______ ____
ROOT
ATOM      1  C   UNL     1      16.121  38.643  47.331  0.00  0.00    +0.000 A 
ATOM      2  C   UNL     1      15.639  39.901  47.371  0.00  0.00    +0.000 A 
ATOM      3  C   UNL     1      15.652  40.781  46.203  0.00  0.00    +0.000 A 
ATOM      4  C   UNL     1      15.170  42.095  46.267  0.00  0.00    +0.000 A 
ATOM      5  C   UNL     1      15.209  42.928  45.139  0.00  0.00    +0.000 A 
ATOM      6  C   UNL     1      15.736  42.428  43.946  0.00  0.00    +0.000 A 
ATOM      7  C   UNL     1      16.213  41.115  43.873  0.00  0.00    +0.000 A 
ATOM      8  C   UNL     1      16.168  40.300  45.000  0.00  0.00    +0.000 A 
ATOM      9  N   UNL     1      16.627  38.985  44.933  0.00  0.00    +0.000 N 
ATOM     10  C   UNL     1      16.594  38.105  45.984  0.00  0.00    +0.000 A 
ATOM     11  O   UNL     1      16.928  36.936  45.808  0.00  0.00    +0.000 OA
ATOM     12  H   UNL     1      16.960  38.600  44.060  0.00  0.00    +0.000 HD
ENDROOT
BRANCH   5  13
ATOM     13  N   UNL     1      14.702  44.236  45.290  0.00  0.00    +0.000 N 
ATOM     14  C   UNL     1      13.410  44.619  45.572  0.00  0.00    +0.000 C 
ATOM     15  O   UNL     1      12.464  43.853  45.728  0.00  0.00    +0.000 OA
ATOM     16  N   UNL     1      13.233  45.986  45.681  0.00  0.00    +0.000 N 
ATOM     17  C   UNL     1      11.927  46.528  46.022  0.00  0.00    +0.000 C 
ATOM     18  C   UNL     1      12.207  47.963  46.446  0.00  0.00    +0.000 C 
ATOM     19  C   UNL     1      13.410  48.336  45.594  0.00  0.00    +0.000 C 
ATOM     20  C   UNL     1      14.222  47.049  45.568  0.00  0.00    +0.000 C 
ATOM     21  H   UNL     1      15.363  44.983  45.160  0.00  0.00    +0.000 HD
ENDBRANCH   5  13
BRANCH   1  22
ATOM     22  N   UNL     1      16.101  37.803  48.441  0.00  0.00    +0.000 N 
ATOM     23  H   UNL     1      15.162  37.554  48.737  0.00  0.00    +0.000 HD
BRANCH  22  28
ATOM     24  C   UNL     1      18.846  37.052  50.922  0.00  0.00    +0.000 A 
ATOM     25  C   UNL     1      18.549  38.033  51.880  0.00  0.00    +0.000 A 
ATOM     26  C   UNL     1      17.479  38.907  51.699  0.00  0.00    +0.000 A 
ATOM     27  C   UNL     1      16.691  38.812  50.552  0.00  0.00    +0.000 A 
ATOM     28  C   UNL     1      16.963  37.856  49.562  0.00  0.00    +0.000 A 
ATOM     29  C   UNL     1      18.036  36.979  49.771  0.00  0.00    +0.000 A 
BRANCH  24  34
ATOM     30  C   UNL     1      21.264  34.625  52.561  0.00  0.00    +0.000 A 
ATOM     31  C   UNL     1      22.115  34.331  51.498  0.00  0.00    +0.000 A 
ATOM     32  C   UNL     1      21.904  34.922  50.251  0.00  0.00    +0.000 A 
ATOM     33  C   UNL     1      20.840  35.808  50.063  0.00  0.00    +0.000 A 
ATOM     34  C   UNL     1      19.968  36.120  51.117  0.00  0.00    +0.000 A 
ATOM     35  C   UNL     1      20.201  35.515  52.363  0.00  0.00    +0.000 A 
BRANCH  30  37
ATOM     36  C   UNL     1      20.250  34.347  54.693  0.00  0.00    +0.000 C 
ATOM     37  O   UNL     1      21.356  34.119  53.829  0.00  0.00    +0.000 OA
ENDBRANCH  30  37
ENDBRANCH  24  34
ENDBRANCH  22  28
ENDBRANCH   1  22
TORSDOF 5
ENDMDL
