MODEL 1
REMARK VINA RESULT:    -5.354      0.000      0.000
REMARK INTER + INTRA:         -11.536
REMARK INTER:                  -7.425
REMARK INTRA:                  -4.111
REMARK UNBOUND:                -3.678
REMARK  Name = 
REMARK  8 active torsions:
REMARK  status: ('A' for Active; 'I' for Inactive)
REMARK    1  A    between atoms: C_2  and  C_3
REMARK    2  A    between atoms: C_3  and  N_4
REMARK    3  A    between atoms: N_7  and  C_8
REMARK    4  A    between atoms: C_8  and  C_9
REMARK    5  A    between atoms: C_9  and  O_10
REMARK    6  A    between atoms: O_10  and  C_11
REMARK    7  A    between atoms: C_11  and  C_12
REMARK    8  A    between atoms: C_11  and  C_18
REMARK                            x       y       z     vdW  Elec       q    Type
REMARK                         _______ _______ _______ _____ _____    ______ ____
ROOT
ATOM      1  N   UNL     1      16.179  37.421  45.100  0.00  0.00    +0.000 NA
ATOM      2  C   UNL     1      17.070  37.820  46.213  0.00  0.00    +0.000 C 
ATOM      3  C   UNL     1      16.813  39.243  46.766  0.00  0.00    +0.000 C 
ATOM      4  N   UNL     1      15.430  39.478  47.248  0.00  0.00    +0.000 NA
ATOM      5  C   UNL     1      14.496  38.487  46.676  0.00  0.00    +0.000 C 
ATOM      6  C   UNL     1      14.851  38.066  45.231  0.00  0.00    +0.000 C 
ENDROOT
BRANCH   1   7
ATOM      7  C   UNL     1      16.752  37.714  43.779  0.00  0.00    +0.000 C 
BRANCH   7   9
ATOM      8  C   UNL     1      16.659  40.231  43.429  0.00  0.00    +0.000 C 
ATOM      9  C   UNL     1      16.268  38.982  43.100  0.00  0.00    +0.000 C 
ATOM     10  C   UNL     1      15.264  38.762  41.985  0.00  0.00    +0.000 C 
ATOM     11  C   UNL     1      15.239  39.890  40.941  0.00  0.00    +0.000 C 
ATOM     12  C   UNL     1      15.361  41.257  41.564  0.00  0.00    +0.000 A 
ATOM     13  C   UNL     1      14.820  42.381  40.930  0.00  0.00    +0.000 A 
ATOM     14  C   UNL     1      14.991  43.650  41.487  0.00  0.00    +0.000 A 
ATOM     15  C   UNL     1      15.717  43.803  42.668  0.00  0.00    +0.000 A 
ATOM     16  C   UNL     1      16.271  42.687  43.299  0.00  0.00    +0.000 A 
ATOM     17  C   UNL     1      16.091  41.409  42.757  0.00  0.00    +0.000 A 
ENDBRANCH   7   9
ENDBRANCH   1   7
BRANCH   4  18
ATOM     18  C   UNL     1      15.040  40.881  46.988  0.00  0.00    +0.000 C 
BRANCH  18  19
ATOM     19  C   UNL     1      13.821  41.392  47.784  0.00  0.00    +0.000 C 
BRANCH  19  20
ATOM     20  O   UNL     1      12.812  41.845  46.882  0.00  0.00    +0.000 OA
BRANCH  20  21
ATOM     21  C   UNL     1      13.342  42.537  45.740  0.00  0.00    +0.000 C 
BRANCH  21  22
ATOM     22  C   UNL     1      12.707  42.042  44.448  0.00  0.00    +0.000 A 
ATOM     23  C   UNL     1      12.678  40.674  44.127  0.00  0.00    +0.000 A 
ATOM     24  C   UNL     1      12.071  40.231  42.951  0.00  0.00    +0.000 A 
ATOM     25  C   UNL     1      11.486  41.148  42.080  0.00  0.00    +0.000 A 
ATOM     26  C   UNL     1      11.507  42.508  42.384  0.00  0.00    +0.000 A 
ATOM     27  C   UNL     1      12.111  42.954  43.561  0.00  0.00    +0.000 A 
ENDBRANCH  21  22
BRANCH  21  28
ATOM     28  C   UNL     1      13.147  44.037  45.930  0.00  0.00    +0.000 A 
ATOM     29  C   UNL     1      14.098  44.965  45.471  0.00  0.00    +0.000 A 
ATOM     30  C   UNL     1      13.919  46.335  45.677  0.00  0.00    +0.000 A 
ATOM     31  C   UNL     1      12.791  46.797  46.350  0.00  0.00    +0.000 A 
ATOM     32  C   UNL     1      11.839  45.892  46.816  0.00  0.00    +0.000 A 
ATOM     33  C   UNL     1      12.014  44.521  46.609  0.00  0.00    +0.000 A 
ENDBRANCH  21  28
ENDBRANCH  20  21
ENDBRANCH  19  20
ENDBRANCH  18  19
ENDBRANCH   4  18
TORSDOF 8
ENDMDL
MODEL 2
REMARK VINA RESULT:    -5.333      2.884      5.977
REMARK INTER + INTRA:         -11.506
REMARK INTER:                  -9.950
REMARK INTRA:                  -1.556
REMARK UNBOUND:                -3.678
REMARK  Name = 
REMARK  8 active torsions:
REMARK  status: ('A' for Active; 'I' for Inactive)
REMARK    1  A    between atoms: C_2  and  C_3
REMARK    2  A    between atoms: C_3  and  N_4
REMARK    3  A    between atoms: N_7  and  C_8
REMARK    4  A    between atoms: C_8  and  C_9
REMARK    5  A    between atoms: C_9  and  O_10
REMARK    6  A    between atoms: O_10  and  C_11
REMARK    7  A    between atoms: C_11  and  C_12
REMARK    8  A    between atoms: C_11  and  C_18
REMARK                            x       y       z     vdW  Elec       q    Type
REMARK                         _______ _______ _______ _____ _____    ______ ____
ROOT
ATOM      1  N   UNL     1      16.583  37.950  45.993  0.00  0.00    +0.000 NA
ATOM      2  C   UNL     1      15.574  37.783  44.923  0.00  0.00    +0.000 C 
ATOM      3  C   UNL     1      14.286  38.620  45.115  0.00  0.00    +0.000 C 
ATOM      4  N   UNL     1      14.511  40.081  45.238  0.00  0.00    +0.000 NA
ATOM      5  C   UNL     1      15.909  40.370  45.617  0.00  0.00    +0.000 C 
ATOM      6  C   UNL     1      16.522  39.315  46.567  0.00  0.00    +0.000 C 
ENDROOT
BRANCH   1   7
ATOM      7  C   UNL     1      16.450  36.950  47.061  0.00  0.00    +0.000 C 
BRANCH   7   9
ATOM      8  C   UNL     1      17.978  36.618  49.067  0.00  0.00    +0.000 C 
ATOM      9  C   UNL     1      17.735  36.518  47.744  0.00  0.00    +0.000 C 
ATOM     10  C   UNL     1      18.788  35.949  46.813  0.00  0.00    +0.000 C 
ATOM     11  C   UNL     1      19.775  34.993  47.502  0.00  0.00    +0.000 C 
ATOM     12  C   UNL     1      20.183  35.472  48.871  0.00  0.00    +0.000 A 
ATOM     13  C   UNL     1      21.420  35.107  49.416  0.00  0.00    +0.000 A 
ATOM     14  C   UNL     1      21.761  35.509  50.709  0.00  0.00    +0.000 A 
ATOM     15  C   UNL     1      20.863  36.258  51.469  0.00  0.00    +0.000 A 
ATOM     16  C   UNL     1      19.622  36.613  50.936  0.00  0.00    +0.000 A 
ATOM     17  C   UNL     1      19.276  36.230  49.635  0.00  0.00    +0.000 A 
ENDBRANCH   7   9
ENDBRANCH   1   7
BRANCH   4  18
ATOM     18  C   UNL     1      13.512  40.666  46.160  0.00  0.00    +0.000 C 
BRANCH  18  19
ATOM     19  C   UNL     1      13.953  41.952  46.890  0.00  0.00    +0.000 C 
BRANCH  19  20
ATOM     20  O   UNL     1      13.295  43.081  46.316  0.00  0.00    +0.000 OA
BRANCH  20  21
ATOM     21  C   UNL     1      14.203  44.021  45.719  0.00  0.00    +0.000 C 
BRANCH  21  22
ATOM     22  C   UNL     1      14.490  43.667  44.266  0.00  0.00    +0.000 A 
ATOM     23  C   UNL     1      13.449  43.474  43.343  0.00  0.00    +0.000 A 
ATOM     24  C   UNL     1      13.726  43.173  42.009  0.00  0.00    +0.000 A 
ATOM     25  C   UNL     1      15.047  43.061  41.579  0.00  0.00    +0.000 A 
ATOM     26  C   UNL     1      16.091  43.250  42.482  0.00  0.00    +0.000 A 
ATOM     27  C   UNL     1      15.817  43.553  43.817  0.00  0.00    +0.000 A 
ENDBRANCH  21  22
BRANCH  21  28
ATOM     28  C   UNL     1      13.630  45.427  45.857  0.00  0.00    +0.000 A 
ATOM     29  C   UNL     1      14.326  46.554  45.386  0.00  0.00    +0.000 A 
ATOM     30  C   UNL     1      13.801  47.838  45.545  0.00  0.00    +0.000 A 
ATOM     31  C   UNL     1      12.576  48.016  46.183  0.00  0.00    +0.000 A 
ATOM     32  C   UNL     1      11.873  46.911  46.661  0.00  0.00    +0.000 A 
ATOM     33  C   UNL     1      12.395  45.625  46.500  0.00  0.00    +0.000 A 
ENDBRANCH  21  28
ENDBRANCH  20  21
ENDBRANCH  19  20
ENDBRANCH  18  19
ENDBRANCH   4  18
TORSDOF 8
ENDMDL
MODEL 3
REMARK VINA RESULT:    -5.083      1.015      3.635
REMARK INTER + INTRA:         -11.139
REMARK INTER:                  -7.460
REMARK INTRA:                  -3.678
REMARK UNBOUND:                -3.678
REMARK  Name = 
REMARK  8 active torsions:
REMARK  status: ('A' for Active; 'I' for Inactive)
REMARK    1  A    between atoms: C_2  and  C_3
REMARK    2  A    between atoms: C_3  and  N_4
REMARK    3  A    between atoms: N_7  and  C_8
REMARK    4  A    between atoms: C_8  and  C_9
REMARK    5  A    between atoms: C_9  and  O_10
REMARK    6  A    between atoms: O_10  and  C_11
REMARK    7  A    between atoms: C_11  and  C_12
REMARK    8  A    between atoms: C_11  and  C_18
REMARK                            x       y       z     vdW  Elec       q    Type
REMARK                         _______ _______ _______ _____ _____    ______ ____
ROOT
ATOM      1  N   UNL     1      15.354  38.173  44.325  0.00  0.00    +0.000 NA
ATOM      2  C   UNL     1      16.236  37.936  45.490  0.00  0.00    +0.000 C 
ATOM      3  C   UNL     1      16.370  39.141  46.452  0.00  0.00    +0.000 C 
ATOM      4  N   UNL     1      15.086  39.635  47.007  0.00  0.00    +0.000 NA
ATOM      5  C   UNL     1      13.947  39.190  46.179  0.00  0.00    +0.000 C 
ATOM      6  C   UNL     1      14.271  39.124  44.668  0.00  0.00    +0.000 C 
ENDROOT
BRANCH   1   7
ATOM      7  C   UNL     1      16.088  38.651  43.145  0.00  0.00    +0.000 C 
BRANCH   7   9
ATOM      8  C   UNL     1      14.900  40.335  41.654  0.00  0.00    +0.000 C 
ATOM      9  C   UNL     1      15.751  40.050  42.662  0.00  0.00    +0.000 C 
ATOM     10  C   UNL     1      16.464  41.166  43.400  0.00  0.00    +0.000 C 
ATOM     11  C   UNL     1      15.721  42.511  43.361  0.00  0.00    +0.000 C 
ATOM     12  C   UNL     1      15.108  42.793  42.013  0.00  0.00    +0.000 A 
ATOM     13  C   UNL     1      14.897  44.109  41.585  0.00  0.00    +0.000 A 
ATOM     14  C   UNL     1      14.275  44.357  40.360  0.00  0.00    +0.000 A 
ATOM     15  C   UNL     1      13.845  43.293  39.566  0.00  0.00    +0.000 A 
ATOM     16  C   UNL     1      14.041  41.978  39.993  0.00  0.00    +0.000 A 
ATOM     17  C   UNL     1      14.678  41.719  41.212  0.00  0.00    +0.000 A 
ENDBRANCH   7   9
ENDBRANCH   1   7
BRANCH   4  18
ATOM     18  C   UNL     1      15.150  41.102  47.191  0.00  0.00    +0.000 C 
BRANCH  18  19
ATOM     19  C   UNL     1      13.816  41.854  47.008  0.00  0.00    +0.000 C 
BRANCH  19  20
ATOM     20  O   UNL     1      13.958  42.849  45.994  0.00  0.00    +0.000 OA
BRANCH  20  21
ATOM     21  C   UNL     1      12.747  43.581  45.746  0.00  0.00    +0.000 C 
BRANCH  21  22
ATOM     22  C   UNL     1      12.986  45.083  45.806  0.00  0.00    +0.000 A 
ATOM     23  C   UNL     1      14.118  45.666  45.211  0.00  0.00    +0.000 A 
ATOM     24  C   UNL     1      14.314  47.047  45.252  0.00  0.00    +0.000 A 
ATOM     25  C   UNL     1      13.381  47.864  45.889  0.00  0.00    +0.000 A 
ATOM     26  C   UNL     1      12.254  47.302  46.485  0.00  0.00    +0.000 A 
ATOM     27  C   UNL     1      12.055  45.920  46.443  0.00  0.00    +0.000 A 
ENDBRANCH  21  22
BRANCH  21  28
ATOM     28  C   UNL     1      12.171  43.152  44.401  0.00  0.00    +0.000 A 
ATOM     29  C   UNL     1      11.729  44.095  43.457  0.00  0.00    +0.000 A 
ATOM     30  C   UNL     1      11.177  43.686  42.241  0.00  0.00    +0.000 A 
ATOM     31  C   UNL     1      11.051  42.330  41.954  0.00  0.00    +0.000 A 
ATOM     32  C   UNL     1      11.479  41.379  42.880  0.00  0.00    +0.000 A 
ATOM     33  C   UNL     1      12.034  41.786  44.096  0.00  0.00    +0.000 A 
ENDBRANCH  21  28
ENDBRANCH  20  21
ENDBRANCH  19  20
ENDBRANCH  18  19
ENDBRANCH   4  18
TORSDOF 8
ENDMDL
