MODEL 1
REMARK VINA RESULT:    -6.987      0.000      0.000
REMARK INTER + INTRA:          -9.079
REMARK INTER:                  -7.793
REMARK INTRA:                  -1.286
REMARK UNBOUND:                -1.071
REMARK  Name = 
REMARK  5 active torsions:
REMARK  status: ('A' for Active; 'I' for Inactive)
REMARK    1  A    between atoms: C_1  and  C_2
REMARK    2  A    between atoms: C_3  and  C_4
REMARK    3  A    between atoms: C_4  and  O_5
REMARK    4  A    between atoms: C_20  and  C_21
REMARK    5  A    between atoms: C_29  and  C_30
REMARK                            x       y       z     vdW  Elec       q    Type
REMARK                         _______ _______ _______ _____ _____    ______ ____
ROOT
ATOM      1  C   UNL     1      12.289  48.389  44.767  0.00  0.00    +0.000 C 
ATOM      2  C   UNL     1      11.720  48.774  46.131  0.00  0.00    +0.000 C 
ATOM      3  C   UNL     1      11.434  47.420  46.765  0.00  0.00    +0.000 C 
ATOM      4  C   UNL     1      12.598  46.509  46.328  0.00  0.00    +0.000 C 
ATOM      5  C   UNL     1      12.166  45.041  46.075  0.00  0.00    +0.000 C 
ATOM      6  C   UNL     1      11.596  44.467  47.388  0.00  0.00    +0.000 C 
ATOM      7  C   UNL     1      11.540  42.954  47.350  0.00  0.00    +0.000 C 
ATOM      8  C   UNL     1      12.906  42.377  47.086  0.00  0.00    +0.000 C 
ATOM      9  C   UNL     1      13.276  41.245  47.705  0.00  0.00    +0.000 C 
ATOM     10  C   UNL     1      14.515  40.542  47.310  0.00  0.00    +0.000 C 
ATOM     11  O   UNL     1      14.965  39.646  48.020  0.00  0.00    +0.000 OA
ATOM     12  C   UNL     1      15.116  40.916  45.984  0.00  0.00    +0.000 C 
ATOM     13  C   UNL     1      15.099  42.429  45.832  0.00  0.00    +0.000 C 
ATOM     14  C   UNL     1      13.748  43.068  46.100  0.00  0.00    +0.000 C 
ATOM     15  C   UNL     1      13.350  44.235  45.529  0.00  0.00    +0.000 C 
ATOM     16  C   UNL     1      14.072  44.887  44.339  0.00  0.00    +0.000 C 
ATOM     17  C   UNL     1      13.453  46.242  43.925  0.00  0.00    +0.000 C 
ATOM     18  C   UNL     1      13.268  47.217  45.105  0.00  0.00    +0.000 C 
ATOM     19  C   UNL     1      14.661  47.740  45.554  0.00  0.00    +0.000 C 
ENDROOT
BRANCH  16  20
ATOM     20  C   UNL     1      14.113  44.013  43.083  0.00  0.00    +0.000 A 
ATOM     21  C   UNL     1      15.326  43.668  42.459  0.00  0.00    +0.000 A 
ATOM     22  C   UNL     1      15.332  42.852  41.327  0.00  0.00    +0.000 A 
ATOM     23  C   UNL     1      14.132  42.368  40.823  0.00  0.00    +0.000 A 
ATOM     24  F   UNL     1      14.139  41.583  39.737  0.00  0.00    +0.000 F 
ATOM     25  C   UNL     1      12.923  42.685  41.426  0.00  0.00    +0.000 A 
ATOM     26  C   UNL     1      12.913  43.501  42.558  0.00  0.00    +0.000 A 
ENDBRANCH  16  20
BRANCH   1  29
ATOM     27  C   UNL     1      14.019  51.621  42.854  0.00  0.00    +0.000 C 
ATOM     28  C   UNL     1      13.395  50.477  43.520  0.00  0.00    +0.000 C 
ATOM     29  C   UNL     1      12.901  49.532  44.075  0.00  0.00    +0.000 C 
ENDBRANCH   1  29
BRANCH   1  30
ATOM     30  O   UNL     1      11.196  47.918  43.975  0.00  0.00    +0.000 OA
ATOM     31  H   UNL     1      10.574  48.661  43.883  0.00  0.00    +0.000 HD
ENDBRANCH   1  30
TORSDOF 3
ENDMDL
MODEL 2
REMARK VINA RESULT:    -6.552      9.126     12.017
REMARK INTER + INTRA:          -8.581
REMARK INTER:                  -7.343
REMARK INTRA:                  -1.238
REMARK UNBOUND:                -1.071
REMARK  Name = 
REMARK  5 active torsions:
REMARK  status: ('A' for Active; 'I' for Inactive)
REMARK    1  A    between atoms: C_1  and  C_2
REMARK    2  A    between atoms: C_3  and  C_4
REMARK    3  A    between atoms: C_4  and  O_5
REMARK    4  A    between atoms: C_20  and  C_21
REMARK    5  A    between atoms: C_29  and  C_30
REMARK                            x       y       z     vdW  Elec       q    Type
REMARK                         _______ _______ _______ _____ _____    ______ ____
ROOT
ATOM      1  C   UNL     1      17.134  40.084  53.730  0.00  0.00    +0.000 C 
ATOM      2  C   UNL     1      16.078  41.018  53.142  0.00  0.00    +0.000 C 
ATOM      3  C   UNL     1      16.134  40.689  51.657  0.00  0.00    +0.000 C 
ATOM      4  C   UNL     1      16.352  39.165  51.583  0.00  0.00    +0.000 C 
ATOM      5  C   UNL     1      17.257  38.732  50.399  0.00  0.00    +0.000 C 
ATOM      6  C   UNL     1      16.581  39.168  49.083  0.00  0.00    +0.000 C 
ATOM      7  C   UNL     1      17.168  38.437  47.894  0.00  0.00    +0.000 C 
ATOM      8  C   UNL     1      17.040  36.947  48.068  0.00  0.00    +0.000 C 
ATOM      9  C   UNL     1      16.765  36.178  47.003  0.00  0.00    +0.000 C 
ATOM     10  C   UNL     1      16.843  34.705  47.098  0.00  0.00    +0.000 C 
ATOM     11  O   UNL     1      16.377  34.006  46.202  0.00  0.00    +0.000 OA
ATOM     12  C   UNL     1      17.588  34.138  48.275  0.00  0.00    +0.000 C 
ATOM     13  C   UNL     1      17.191  34.894  49.534  0.00  0.00    +0.000 C 
ATOM     14  C   UNL     1      17.288  36.404  49.411  0.00  0.00    +0.000 C 
ATOM     15  C   UNL     1      17.521  37.224  50.469  0.00  0.00    +0.000 C 
ATOM     16  C   UNL     1      18.003  36.723  51.840  0.00  0.00    +0.000 C 
ATOM     17  C   UNL     1      18.128  37.853  52.888  0.00  0.00    +0.000 C 
ATOM     18  C   UNL     1      16.864  38.730  52.994  0.00  0.00    +0.000 C 
ATOM     19  C   UNL     1      15.737  37.913  53.685  0.00  0.00    +0.000 C 
ENDROOT
BRANCH  16  20
ATOM     20  C   UNL     1      19.355  36.004  51.798  0.00  0.00    +0.000 A 
ATOM     21  C   UNL     1      19.614  34.866  52.584  0.00  0.00    +0.000 A 
ATOM     22  C   UNL     1      20.848  34.220  52.508  0.00  0.00    +0.000 A 
ATOM     23  C   UNL     1      21.821  34.697  51.640  0.00  0.00    +0.000 A 
ATOM     24  F   UNL     1      23.005  34.075  51.566  0.00  0.00    +0.000 F 
ATOM     25  C   UNL     1      21.587  35.812  50.846  0.00  0.00    +0.000 A 
ATOM     26  C   UNL     1      20.354  36.460  50.919  0.00  0.00    +0.000 A 
ENDBRANCH  16  20
BRANCH   1  29
ATOM     27  C   UNL     1      16.951  39.943  57.858  0.00  0.00    +0.000 C 
ATOM     28  C   UNL     1      17.026  39.981  56.397  0.00  0.00    +0.000 C 
ATOM     29  C   UNL     1      17.068  40.020  55.197  0.00  0.00    +0.000 C 
ENDBRANCH   1  29
BRANCH   1  30
ATOM     30  O   UNL     1      18.410  40.610  53.360  0.00  0.00    +0.000 OA
ATOM     31  H   UNL     1      18.332  41.580  53.380  0.00  0.00    +0.000 HD
ENDBRANCH   1  30
TORSDOF 3
ENDMDL
MODEL 3
REMARK VINA RESULT:    -6.304      8.441     12.682
REMARK INTER + INTRA:          -8.297
REMARK INTER:                  -7.226
REMARK INTRA:                  -1.071
REMARK UNBOUND:                -1.071
REMARK  Name = 
REMARK  5 active torsions:
REMARK  status: ('A' for Active; 'I' for Inactive)
REMARK    1  A    between atoms: C_1  and  C_2
REMARK    2  A    between atoms: C_3  and  C_4
REMARK    3  A    between atoms: C_4  and  O_5
REMARK    4  A    between atoms: C_20  and  C_21
REMARK    5  A    between atoms: C_29  and  C_30
REMARK                            x       y       z     vdW  Elec       q    Type
REMARK                         _______ _______ _______ _____ _____    ______ ____
ROOT
ATOM      1  C   UNL     1      16.413  37.757  48.323  0.00  0.00    +0.000 C 
ATOM      2  C   UNL     1      17.110  36.990  47.201  0.00  0.00    +0.000 C 
ATOM      3  C   UNL     1      18.418  36.566  47.852  0.00  0.00    +0.000 C 
ATOM      4  C   UNL     1      18.055  36.206  49.307  0.00  0.00    +0.000 C 
ATOM      5  C   UNL     1      19.160  36.586  50.327  0.00  0.00    +0.000 C 
ATOM      6  C   UNL     1      20.444  35.810  49.965  0.00  0.00    +0.000 C 
ATOM      7  C   UNL     1      21.423  35.795  51.120  0.00  0.00    +0.000 C 
ATOM      8  C   UNL     1      20.788  35.196  52.348  0.00  0.00    +0.000 C 
ATOM      9  C   UNL     1      21.523  34.419  53.159  0.00  0.00    +0.000 C 
ATOM     10  C   UNL     1      20.996  33.993  54.473  0.00  0.00    +0.000 C 
ATOM     11  O   UNL     1      21.567  33.108  55.106  0.00  0.00    +0.000 OA
ATOM     12  C   UNL     1      19.813  34.751  55.010  0.00  0.00    +0.000 C 
ATOM     13  C   UNL     1      18.803  34.963  53.893  0.00  0.00    +0.000 C 
ATOM     14  C   UNL     1      19.390  35.554  52.624  0.00  0.00    +0.000 C 
ATOM     15  C   UNL     1      18.671  36.309  51.752  0.00  0.00    +0.000 C 
ATOM     16  C   UNL     1      17.291  36.901  52.080  0.00  0.00    +0.000 C 
ATOM     17  C   UNL     1      16.663  37.665  50.892  0.00  0.00    +0.000 C 
ATOM     18  C   UNL     1      16.659  36.858  49.579  0.00  0.00    +0.000 C 
ATOM     19  C   UNL     1      15.608  35.718  49.687  0.00  0.00    +0.000 C 
ENDROOT
BRANCH  16  20
ATOM     20  C   UNL     1      17.293  37.858  53.275  0.00  0.00    +0.000 A 
ATOM     21  C   UNL     1      17.794  39.169  53.175  0.00  0.00    +0.000 A 
ATOM     22  C   UNL     1      17.763  40.025  54.276  0.00  0.00    +0.000 A 
ATOM     23  C   UNL     1      17.221  39.581  55.475  0.00  0.00    +0.000 A 
ATOM     24  F   UNL     1      17.189  40.404  56.532  0.00  0.00    +0.000 F 
ATOM     25  C   UNL     1      16.711  38.296  55.598  0.00  0.00    +0.000 A 
ATOM     26  C   UNL     1      16.740  37.438  54.499  0.00  0.00    +0.000 A 
ENDBRANCH  16  20
BRANCH   1  29
ATOM     27  C   UNL     1      12.451  38.536  47.433  0.00  0.00    +0.000 C 
ATOM     28  C   UNL     1      13.851  38.267  47.762  0.00  0.00    +0.000 C 
ATOM     29  C   UNL     1      15.001  38.031  48.019  0.00  0.00    +0.000 C 
ENDBRANCH   1  29
BRANCH   1  30
ATOM     30  O   UNL     1      17.093  39.007  48.459  0.00  0.00    +0.000 OA
ATOM     31  H   UNL     1      18.009  38.803  48.717  0.00  0.00    +0.000 HD
ENDBRANCH   1  30
TORSDOF 3
ENDMDL
