MODEL 1
REMARK VINA RESULT:    -6.320      0.000      0.000
REMARK INTER + INTRA:          -8.675
REMARK INTER:                  -7.701
REMARK INTRA:                  -0.974
REMARK UNBOUND:                -1.062
REMARK  Name = 
REMARK  4 active torsions:
REMARK  status: ('A' for Active; 'I' for Inactive)
REMARK    1  A    between atoms: O_1  and  C_2
REMARK    2  A    between atoms: C_3  and  N_4
REMARK    3  A    between atoms: C_7  and  C_8
REMARK    4  A    between atoms: C_19  and  C_20
REMARK                            x       y       z     vdW  Elec       q    Type
REMARK                         _______ _______ _______ _____ _____    ______ ____
ROOT
ATOM      1  C   UNL     1      13.651  42.105  45.396  0.00  0.00    +0.000 C 
ATOM      2  C   UNL     1      14.559  40.832  45.270  0.00  0.00    +0.000 C 
ATOM      3  C   UNL     1      15.968  41.171  44.721  0.00  0.00    +0.000 C 
ATOM      4  C   UNL     1      15.904  42.262  43.653  0.00  0.00    +0.000 C 
ATOM      5  C   UNL     1      15.346  43.582  44.197  0.00  0.00    +0.000 C 
ATOM      6  C   UNL     1      14.502  43.394  45.471  0.00  0.00    +0.000 C 
ENDROOT
BRANCH   2   7
ATOM      7  N   UNL     1      14.548  39.992  46.494  0.00  0.00    +0.000 NA
ATOM      8  C   UNL     1      13.771  40.542  47.611  0.00  0.00    +0.000 C 
ATOM      9  C   UNL     1      13.635  39.527  48.747  0.00  0.00    +0.000 C 
ATOM     10  C   UNL     1      14.964  38.916  49.212  0.00  0.00    +0.000 C 
ATOM     11  C   UNL     1      15.870  38.560  48.025  0.00  0.00    +0.000 C 
ATOM     12  C   UNL     1      15.903  39.618  46.922  0.00  0.00    +0.000 C 
BRANCH  10  13
ATOM     13  C   UNL     1      15.662  39.718  50.304  0.00  0.00    +0.000 A 
ATOM     14  C   UNL     1      15.107  40.862  50.893  0.00  0.00    +0.000 A 
ATOM     15  C   UNL     1      15.792  41.562  51.892  0.00  0.00    +0.000 A 
ATOM     16  C   UNL     1      17.043  41.128  52.321  0.00  0.00    +0.000 A 
ATOM     17  C   UNL     1      17.612  39.995  51.749  0.00  0.00    +0.000 A 
ATOM     18  C   UNL     1      16.928  39.297  50.751  0.00  0.00    +0.000 A 
ENDBRANCH  10  13
ENDBRANCH   2   7
BRANCH   6  19
ATOM     19  C   UNL     1      13.700  44.638  45.829  0.00  0.00    +0.000 A 
ATOM     20  C   UNL     1      14.127  45.923  45.467  0.00  0.00    +0.000 A 
ATOM     21  C   UNL     1      13.374  47.049  45.805  0.00  0.00    +0.000 A 
ATOM     22  C   UNL     1      12.182  46.907  46.513  0.00  0.00    +0.000 A 
ATOM     23  C   UNL     1      11.744  45.638  46.880  0.00  0.00    +0.000 A 
ATOM     24  C   UNL     1      12.496  44.511  46.542  0.00  0.00    +0.000 A 
ENDBRANCH   6  19
BRANCH   1  25
ATOM     25  O   UNL     1      12.779  42.147  44.252  0.00  0.00    +0.000 OA
ATOM     26  H   UNL     1      12.528  43.082  44.137  0.00  0.00    +0.000 HD
ENDBRANCH   1  25
TORSDOF 4
ENDMDL
MODEL 2
REMARK VINA RESULT:    -6.259      4.044      8.813
REMARK INTER + INTRA:          -8.602
REMARK INTER:                  -7.882
REMARK INTRA:                  -0.721
REMARK UNBOUND:                -1.062
REMARK  Name = 
REMARK  4 active torsions:
REMARK  status: ('A' for Active; 'I' for Inactive)
REMARK    1  A    between atoms: O_1  and  C_2
REMARK    2  A    between atoms: C_3  and  N_4
REMARK    3  A    between atoms: C_7  and  C_8
REMARK    4  A    between atoms: C_19  and  C_20
REMARK                            x       y       z     vdW  Elec       q    Type
REMARK                         _______ _______ _______ _____ _____    ______ ____
ROOT
ATOM      1  C   UNL     1      13.547  44.988  44.197  0.00  0.00    +0.000 C 
ATOM      2  C   UNL     1      12.925  46.259  44.874  0.00  0.00    +0.000 C 
ATOM      3  C   UNL     1      12.646  46.040  46.383  0.00  0.00    +0.000 C 
ATOM      4  C   UNL     1      12.155  44.620  46.660  0.00  0.00    +0.000 C 
ATOM      5  C   UNL     1      13.190  43.556  46.275  0.00  0.00    +0.000 C 
ATOM      6  C   UNL     1      14.214  44.066  45.243  0.00  0.00    +0.000 C 
ENDROOT
BRANCH   2   7
ATOM      7  N   UNL     1      13.661  47.506  44.547  0.00  0.00    +0.000 NA
ATOM      8  C   UNL     1      14.769  47.823  45.456  0.00  0.00    +0.000 C 
ATOM      9  C   UNL     1      15.601  48.994  44.931  0.00  0.00    +0.000 C 
ATOM     10  C   UNL     1      14.782  50.238  44.562  0.00  0.00    +0.000 C 
ATOM     11  C   UNL     1      13.496  49.866  43.810  0.00  0.00    +0.000 C 
ATOM     12  C   UNL     1      12.761  48.655  44.385  0.00  0.00    +0.000 C 
BRANCH  10  13
ATOM     13  C   UNL     1      14.563  51.198  45.726  0.00  0.00    +0.000 A 
ATOM     14  C   UNL     1      15.544  52.086  46.187  0.00  0.00    +0.000 A 
ATOM     15  C   UNL     1      15.289  52.945  47.260  0.00  0.00    +0.000 A 
ATOM     16  C   UNL     1      14.049  52.933  47.890  0.00  0.00    +0.000 A 
ATOM     17  C   UNL     1      13.061  52.059  47.449  0.00  0.00    +0.000 A 
ATOM     18  C   UNL     1      13.316  51.200  46.377  0.00  0.00    +0.000 A 
ENDBRANCH  10  13
ENDBRANCH   2   7
BRANCH   6  19
ATOM     19  C   UNL     1      15.037  42.940  44.633  0.00  0.00    +0.000 A 
ATOM     20  C   UNL     1      14.997  41.634  45.140  0.00  0.00    +0.000 A 
ATOM     21  C   UNL     1      15.759  40.617  44.563  0.00  0.00    +0.000 A 
ATOM     22  C   UNL     1      16.576  40.892  43.468  0.00  0.00    +0.000 A 
ATOM     23  C   UNL     1      16.628  42.184  42.951  0.00  0.00    +0.000 A 
ATOM     24  C   UNL     1      15.865  43.201  43.528  0.00  0.00    +0.000 A 
ENDBRANCH   6  19
BRANCH   1  25
ATOM     25  O   UNL     1      12.493  44.286  43.511  0.00  0.00    +0.000 OA
ATOM     26  H   UNL     1      12.662  43.337  43.656  0.00  0.00    +0.000 HD
ENDBRANCH   1  25
TORSDOF 4
ENDMDL
MODEL 3
REMARK VINA RESULT:    -6.172      1.191      2.022
REMARK INTER + INTRA:          -8.497
REMARK INTER:                  -7.434
REMARK INTRA:                  -1.062
REMARK UNBOUND:                -1.062
REMARK  Name = 
REMARK  4 active torsions:
REMARK  status: ('A' for Active; 'I' for Inactive)
REMARK    1  A    between atoms: O_1  and  C_2
REMARK    2  A    between atoms: C_3  and  N_4
REMARK    3  A    between atoms: C_7  and  C_8
REMARK    4  A    between atoms: C_19  and  C_20
REMARK                            x       y       z     vdW  Elec       q    Type
REMARK                         _______ _______ _______ _____ _____    ______ ____
ROOT
ATOM      1  C   UNL     1      13.346  42.247  45.985  0.00  0.00    +0.000 C 
ATOM      2  C   UNL     1      14.053  40.865  46.209  0.00  0.00    +0.000 C 
ATOM      3  C   UNL     1      15.527  40.879  45.729  0.00  0.00    +0.000 C 
ATOM      4  C   UNL     1      15.693  41.708  44.456  0.00  0.00    +0.000 C 
ATOM      5  C   UNL     1      15.313  43.179  44.661  0.00  0.00    +0.000 C 
ATOM      6  C   UNL     1      14.377  43.392  45.866  0.00  0.00    +0.000 C 
ENDROOT
BRANCH   2   7
ATOM      7  N   UNL     1      13.843  40.323  47.575  0.00  0.00    +0.000 NA
ATOM      8  C   UNL     1      12.914  41.096  48.407  0.00  0.00    +0.000 C 
ATOM      9  C   UNL     1      12.591  40.361  49.709  0.00  0.00    +0.000 C 
ATOM     10  C   UNL     1      13.824  39.897  50.496  0.00  0.00    +0.000 C 
ATOM     11  C   UNL     1      14.894  39.300  49.572  0.00  0.00    +0.000 C 
ATOM     12  C   UNL     1      15.111  40.083  48.277  0.00  0.00    +0.000 C 
BRANCH  10  13
ATOM     13  C   UNL     1      14.359  40.939  51.472  0.00  0.00    +0.000 A 
ATOM     14  C   UNL     1      15.709  41.306  51.544  0.00  0.00    +0.000 A 
ATOM     15  C   UNL     1      16.146  42.268  52.460  0.00  0.00    +0.000 A 
ATOM     16  C   UNL     1      15.239  42.883  53.318  0.00  0.00    +0.000 A 
ATOM     17  C   UNL     1      13.894  42.534  53.263  0.00  0.00    +0.000 A 
ATOM     18  C   UNL     1      13.458  41.571  52.349  0.00  0.00    +0.000 A 
ENDBRANCH  10  13
ENDBRANCH   2   7
BRANCH   6  19
ATOM     19  C   UNL     1      13.757  44.782  45.885  0.00  0.00    +0.000 A 
ATOM     20  C   UNL     1      12.576  45.056  46.588  0.00  0.00    +0.000 A 
ATOM     21  C   UNL     1      12.026  46.340  46.593  0.00  0.00    +0.000 A 
ATOM     22  C   UNL     1      12.650  47.369  45.891  0.00  0.00    +0.000 A 
ATOM     23  C   UNL     1      13.823  47.114  45.187  0.00  0.00    +0.000 A 
ATOM     24  C   UNL     1      14.374  45.831  45.183  0.00  0.00    +0.000 A 
ENDBRANCH   6  19
BRANCH   1  25
ATOM     25  O   UNL     1      12.557  42.157  44.784  0.00  0.00    +0.000 OA
ATOM     26  H   UNL     1      13.077  41.618  44.160  0.00  0.00    +0.000 HD
ENDBRANCH   1  25
TORSDOF 4
ENDMDL
