MODEL 1
REMARK VINA RESULT:    -6.141      0.000      0.000
REMARK INTER + INTRA:          -9.263
REMARK INTER:                  -8.305
REMARK INTRA:                  -0.958
REMARK UNBOUND:                -0.968
REMARK  Name = 
REMARK  8 active torsions:
REMARK  status: ('A' for Active; 'I' for Inactive)
REMARK    1  A    between atoms: C_1  and  C_2
REMARK    2  A    between atoms: C_7  and  N_8
REMARK    3  A    between atoms: N_8  and  C_9
REMARK    4  A    between atoms: C_9  and  C_10
REMARK    5  A    between atoms: C_13  and  C_14
REMARK    6  A    between atoms: C_14  and  N_15
REMARK    7  A    between atoms: N_15  and  C_16
REMARK    8  A    between atoms: C_21  and  C_22
REMARK                            x       y       z     vdW  Elec       q    Type
REMARK                         _______ _______ _______ _____ _____    ______ ____
ROOT
ATOM      1  C   UNL     1      13.387  44.704  46.048  0.00  0.00    +0.000 A 
ATOM      2  C   UNL     1      14.193  45.676  45.452  0.00  0.00    +0.000 A 
ATOM      3  C   UNL     1      13.807  47.014  45.497  0.00  0.00    +0.000 A 
ATOM      4  C   UNL     1      12.616  47.353  46.138  0.00  0.00    +0.000 A 
ATOM      5  N   UNL     1      11.829  46.428  46.742  0.00  0.00    +0.000 NA
ATOM      6  C   UNL     1      12.231  45.137  46.687  0.00  0.00    +0.000 A 
ENDROOT
BRANCH   1   7
ATOM      7  C   UNL     1      13.762  43.249  46.041  0.00  0.00    +0.000 C 
BRANCH   7   8
ATOM      8  N   UNL     1      15.177  43.118  45.720  0.00  0.00    +0.000 N 
ATOM      9  H   UNL     1      15.590  44.005  45.446  0.00  0.00    +0.000 HD
BRANCH   8  16
ATOM     10  C   UNL     1      15.969  43.729  42.998  0.00  0.00    +0.000 C 
ATOM     11  C   UNL     1      16.042  42.341  43.580  0.00  0.00    +0.000 A 
ATOM     12  C   UNL     1      16.534  41.302  42.768  0.00  0.00    +0.000 A 
ATOM     13  C   UNL     1      16.651  40.005  43.261  0.00  0.00    +0.000 A 
ATOM     14  C   UNL     1      16.288  39.737  44.573  0.00  0.00    +0.000 A 
ATOM     15  C   UNL     1      15.792  40.760  45.386  0.00  0.00    +0.000 A 
ATOM     16  C   UNL     1      15.619  42.068  44.902  0.00  0.00    +0.000 A 
ENDBRANCH   8  16
ENDBRANCH   7   8
ENDBRANCH   1   7
BRANCH   4  17
ATOM     17  C   UNL     1      12.189  48.808  46.223  0.00  0.00    +0.000 C 
BRANCH  17  18
ATOM     18  N   UNL     1      13.069  49.634  45.396  0.00  0.00    +0.000 N 
ATOM     19  H   UNL     1      13.674  49.040  44.832  0.00  0.00    +0.000 HD
BRANCH  18  20
ATOM     20  C   UNL     1      13.799  50.679  45.984  0.00  0.00    +0.000 A 
ATOM     21  C   UNL     1      13.241  51.539  46.944  0.00  0.00    +0.000 A 
ATOM     22  C   UNL     1      13.963  52.613  47.474  0.00  0.00    +0.000 A 
ATOM     23  C   UNL     1      15.254  52.868  47.032  0.00  0.00    +0.000 A 
ATOM     24  C   UNL     1      15.816  52.060  46.049  0.00  0.00    +0.000 A 
ATOM     25  C   UNL     1      15.096  50.981  45.505  0.00  0.00    +0.000 A 
ATOM     26  C   UNL     1      15.746  50.159  44.423  0.00  0.00    +0.000 C 
ENDBRANCH  18  20
ENDBRANCH  17  18
ENDBRANCH   4  17
TORSDOF 6
ENDMDL
MODEL 2
REMARK VINA RESULT:    -5.751      0.898      8.722
REMARK INTER + INTRA:          -8.737
REMARK INTER:                  -7.951
REMARK INTRA:                  -0.786
REMARK UNBOUND:                -0.968
REMARK  Name = 
REMARK  8 active torsions:
REMARK  status: ('A' for Active; 'I' for Inactive)
REMARK    1  A    between atoms: C_1  and  C_2
REMARK    2  A    between atoms: C_7  and  N_8
REMARK    3  A    between atoms: N_8  and  C_9
REMARK    4  A    between atoms: C_9  and  C_10
REMARK    5  A    between atoms: C_13  and  C_14
REMARK    6  A    between atoms: C_14  and  N_15
REMARK    7  A    between atoms: N_15  and  C_16
REMARK    8  A    between atoms: C_21  and  C_22
REMARK                            x       y       z     vdW  Elec       q    Type
REMARK                         _______ _______ _______ _____ _____    ______ ____
ROOT
ATOM      1  C   UNL     1      12.662  47.712  45.184  0.00  0.00    +0.000 A 
ATOM      2  C   UNL     1      12.101  47.066  46.287  0.00  0.00    +0.000 A 
ATOM      3  C   UNL     1      12.452  45.747  46.565  0.00  0.00    +0.000 A 
ATOM      4  C   UNL     1      13.360  45.098  45.729  0.00  0.00    +0.000 A 
ATOM      5  N   UNL     1      13.934  45.714  44.664  0.00  0.00    +0.000 NA
ATOM      6  C   UNL     1      13.577  46.996  44.421  0.00  0.00    +0.000 A 
ENDROOT
BRANCH   1   7
ATOM      7  C   UNL     1      12.329  49.139  44.846  0.00  0.00    +0.000 C 
BRANCH   7   8
ATOM      8  N   UNL     1      13.559  49.864  44.559  0.00  0.00    +0.000 N 
ATOM      9  H   UNL     1      14.282  49.257  44.184  0.00  0.00    +0.000 HD
BRANCH   8  16
ATOM     10  C   UNL     1      16.283  50.795  44.215  0.00  0.00    +0.000 C 
ATOM     11  C   UNL     1      15.394  51.263  45.338  0.00  0.00    +0.000 A 
ATOM     12  C   UNL     1      15.908  52.207  46.246  0.00  0.00    +0.000 A 
ATOM     13  C   UNL     1      15.124  52.697  47.287  0.00  0.00    +0.000 A 
ATOM     14  C   UNL     1      13.815  52.256  47.423  0.00  0.00    +0.000 A 
ATOM     15  C   UNL     1      13.297  51.313  46.529  0.00  0.00    +0.000 A 
ATOM     16  C   UNL     1      14.079  50.768  45.498  0.00  0.00    +0.000 A 
ENDBRANCH   8  16
ENDBRANCH   7   8
ENDBRANCH   1   7
BRANCH   4  17
ATOM     17  C   UNL     1      13.777  43.669  46.027  0.00  0.00    +0.000 C 
BRANCH  17  18
ATOM     18  N   UNL     1      15.165  43.459  45.614  0.00  0.00    +0.000 N 
ATOM     19  H   UNL     1      15.482  44.245  45.049  0.00  0.00    +0.000 HD
BRANCH  18  20
ATOM     20  C   UNL     1      15.542  42.239  45.030  0.00  0.00    +0.000 A 
ATOM     21  C   UNL     1      15.543  41.031  45.747  0.00  0.00    +0.000 A 
ATOM     22  C   UNL     1      15.980  39.836  45.169  0.00  0.00    +0.000 A 
ATOM     23  C   UNL     1      16.454  39.827  43.864  0.00  0.00    +0.000 A 
ATOM     24  C   UNL     1      16.507  41.017  43.145  0.00  0.00    +0.000 A 
ATOM     25  C   UNL     1      16.075  42.226  43.720  0.00  0.00    +0.000 A 
ATOM     26  C   UNL     1      16.183  43.487  42.902  0.00  0.00    +0.000 C 
ENDBRANCH  18  20
ENDBRANCH  17  18
ENDBRANCH   4  17
TORSDOF 6
ENDMDL
MODEL 3
REMARK VINA RESULT:    -5.747      2.727      5.532
REMARK INTER + INTRA:          -8.731
REMARK INTER:                  -7.762
REMARK INTRA:                  -0.968
REMARK UNBOUND:                -0.968
REMARK  Name = 
REMARK  8 active torsions:
REMARK  status: ('A' for Active; 'I' for Inactive)
REMARK    1  A    between atoms: C_1  and  C_2
REMARK    2  A    between atoms: C_7  and  N_8
REMARK    3  A    between atoms: N_8  and  C_9
REMARK    4  A    between atoms: C_9  and  C_10
REMARK    5  A    between atoms: C_13  and  C_14
REMARK    6  A    between atoms: C_14  and  N_15
REMARK    7  A    between atoms: N_15  and  C_16
REMARK    8  A    between atoms: C_21  and  C_22
REMARK                            x       y       z     vdW  Elec       q    Type
REMARK                         _______ _______ _______ _____ _____    ______ ____
ROOT
ATOM      1  C   UNL     1      16.270  41.096  42.297  0.00  0.00    +0.000 A 
ATOM      2  C   UNL     1      16.875  41.948  43.223  0.00  0.00    +0.000 A 
ATOM      3  C   UNL     1      16.278  43.168  43.529  0.00  0.00    +0.000 A 
ATOM      4  C   UNL     1      15.085  43.516  42.897  0.00  0.00    +0.000 A 
ATOM      5  N   UNL     1      14.469  42.695  42.009  0.00  0.00    +0.000 NA
ATOM      6  C   UNL     1      15.069  41.513  41.735  0.00  0.00    +0.000 A 
ENDROOT
BRANCH   1   7
ATOM      7  C   UNL     1      16.863  39.761  41.940  0.00  0.00    +0.000 C 
BRANCH   7   8
ATOM      8  N   UNL     1      16.364  38.752  42.862  0.00  0.00    +0.000 N 
ATOM      9  H   UNL     1      15.465  39.009  43.261  0.00  0.00    +0.000 HD
BRANCH   8  16
ATOM     10  C   UNL     1      15.904  39.408  45.649  0.00  0.00    +0.000 C 
ATOM     11  C   UNL     1      16.997  38.474  45.198  0.00  0.00    +0.000 A 
ATOM     12  C   UNL     1      17.816  37.883  46.177  0.00  0.00    +0.000 A 
ATOM     13  C   UNL     1      18.823  36.990  45.822  0.00  0.00    +0.000 A 
ATOM     14  C   UNL     1      19.014  36.671  44.485  0.00  0.00    +0.000 A 
ATOM     15  C   UNL     1      18.209  37.258  43.503  0.00  0.00    +0.000 A 
ATOM     16  C   UNL     1      17.217  38.197  43.828  0.00  0.00    +0.000 A 
ENDBRANCH   8  16
ENDBRANCH   7   8
ENDBRANCH   1   7
BRANCH   4  17
ATOM     17  C   UNL     1      14.403  44.830  43.234  0.00  0.00    +0.000 C 
BRANCH  17  18
ATOM     18  N   UNL     1      14.690  45.198  44.620  0.00  0.00    +0.000 N 
ATOM     19  H   UNL     1      15.295  44.499  45.047  0.00  0.00    +0.000 HD
BRANCH  18  20
ATOM     20  C   UNL     1      13.638  45.544  45.483  0.00  0.00    +0.000 A 
ATOM     21  C   UNL     1      12.779  44.584  46.044  0.00  0.00    +0.000 A 
ATOM     22  C   UNL     1      11.698  44.950  46.851  0.00  0.00    +0.000 A 
ATOM     23  C   UNL     1      11.435  46.291  47.094  0.00  0.00    +0.000 A 
ATOM     24  C   UNL     1      12.241  47.266  46.515  0.00  0.00    +0.000 A 
ATOM     25  C   UNL     1      13.328  46.908  45.696  0.00  0.00    +0.000 A 
ATOM     26  C   UNL     1      14.148  48.008  45.073  0.00  0.00    +0.000 C 
ENDBRANCH  18  20
ENDBRANCH  17  18
ENDBRANCH   4  17
TORSDOF 6
ENDMDL
