MODEL 1
REMARK VINA RESULT:    -7.401      0.000      0.000
REMARK INTER + INTRA:         -10.828
REMARK INTER:                 -10.008
REMARK INTRA:                  -0.820
REMARK UNBOUND:                -1.264
REMARK  Name = 
REMARK  8 active torsions:
REMARK  status: ('A' for Active; 'I' for Inactive)
REMARK    1  A    between atoms: C_1  and  C_2
REMARK    2  A    between atoms: C_4  and  C_5
REMARK    3  A    between atoms: N_7  and  C_8
REMARK    4  A    between atoms: C_11  and  C_12
REMARK    5  A    between atoms: C_17  and  C_18
REMARK    6  A    between atoms: N_20  and  C_21
REMARK    7  A    between atoms: N_20  and  C_22
REMARK    8  A    between atoms: N_25  and  C_26
REMARK                            x       y       z     vdW  Elec       q    Type
REMARK                         _______ _______ _______ _____ _____    ______ ____
ROOT
ATOM      1  C   UNL     1      11.429  48.118  45.610  0.00  0.00    +0.000 C 
ATOM      2  O   UNL     1      11.355  47.928  44.401  0.00  0.00    +0.000 OA
ATOM      3  N   UNL     1      12.043  47.291  46.528  0.00  0.00    +0.000 N 
ATOM      4  H   UNL     1      11.961  47.557  47.500  0.00  0.00    +0.000 HD
ENDROOT
BRANCH   1   8
ATOM      5  C   UNL     1       8.141  51.288  47.724  0.00  0.00    +0.000 C 
ATOM      6  C   UNL     1       9.360  50.639  47.182  0.00  0.00    +0.000 A 
ATOM      7  C   UNL     1       9.467  49.418  46.498  0.00  0.00    +0.000 A 
ATOM      8  C   UNL     1      10.815  49.263  46.225  0.00  0.00    +0.000 A 
ATOM      9  N   UNL     1      11.429  50.443  46.630  0.00  0.00    +0.000 N 
ATOM     10  N   UNL     1      10.552  51.221  47.330  0.00  0.00    +0.000 NA
BRANCH   9  11
ATOM     11  C   UNL     1      12.762  50.923  46.420  0.00  0.00    +0.000 A 
ATOM     12  C   UNL     1      13.227  51.996  47.200  0.00  0.00    +0.000 A 
ATOM     13  C   UNL     1      14.514  52.514  47.018  0.00  0.00    +0.000 A 
ATOM     14  C   UNL     1      15.369  51.978  46.048  0.00  0.00    +0.000 A 
ATOM     15  C   UNL     1      16.662  52.495  45.843  0.00  0.00    +0.000 A 
ATOM     16  C   UNL     1      17.484  51.958  44.851  0.00  0.00    +0.000 A 
ATOM     17 CL   UNL     1      19.062  52.609  44.604  0.00  0.00    +0.000 Cl
ATOM     18  C   UNL     1      17.041  50.900  44.064  0.00  0.00    +0.000 A 
ATOM     19  C   UNL     1      15.758  50.378  44.261  0.00  0.00    +0.000 A 
ATOM     20  C   UNL     1      14.909  50.903  45.249  0.00  0.00    +0.000 A 
ATOM     21  C   UNL     1      13.609  50.389  45.443  0.00  0.00    +0.000 A 
ENDBRANCH   9  11
ENDBRANCH   1   8
BRANCH   3  22
ATOM     22  C   UNL     1      12.782  46.117  46.272  0.00  0.00    +0.000 A 
ATOM     23  C   UNL     1      14.061  46.107  45.722  0.00  0.00    +0.000 A 
ATOM     24  C   UNL     1      14.736  44.900  45.510  0.00  0.00    +0.000 A 
ATOM     25  C   UNL     1      14.153  43.671  45.851  0.00  0.00    +0.000 A 
ATOM     26  C   UNL     1      12.867  43.687  46.401  0.00  0.00    +0.000 A 
ATOM     27  C   UNL     1      12.188  44.896  46.607  0.00  0.00    +0.000 A 
BRANCH  25  28
ATOM     28  C   UNL     1      14.886  42.414  45.631  0.00  0.00    +0.000 A 
ATOM     29  C   UNL     1      14.938  41.461  46.669  0.00  0.00    +0.000 A 
ATOM     30  C   UNL     1      15.596  40.239  46.508  0.00  0.00    +0.000 A 
ATOM     31  C   UNL     1      16.212  39.935  45.302  0.00  0.00    +0.000 A 
ATOM     32  C   UNL     1      16.187  40.859  44.259  0.00  0.00    +0.000 A 
ATOM     33  C   UNL     1      15.537  42.094  44.423  0.00  0.00    +0.000 A 
BRANCH  33  34
ATOM     34  C   UNL     1      15.553  43.018  43.243  0.00  0.00    +0.000 C 
ATOM     35  N   UNL     1      16.629  43.701  42.990  0.00  0.00    +0.000 NA
ATOM     36  N   UNL     1      14.405  43.179  42.475  0.00  0.00    +0.000 N 
ATOM     37  C   UNL     1      13.488  42.081  42.220  0.00  0.00    +0.000 C 
ATOM     38  C   UNL     1      14.411  44.190  41.422  0.00  0.00    +0.000 C 
ATOM     39  H   UNL     1      17.365  43.469  43.662  0.00  0.00    +0.000 HD
ENDBRANCH  33  34
ENDBRANCH  25  28
ENDBRANCH   3  22
TORSDOF 5
ENDMDL
MODEL 2
REMARK VINA RESULT:    -7.209      8.288     12.394
REMARK INTER + INTRA:         -10.580
REMARK INTER:                  -9.404
REMARK INTRA:                  -1.176
REMARK UNBOUND:                -1.264
REMARK  Name = 
REMARK  8 active torsions:
REMARK  status: ('A' for Active; 'I' for Inactive)
REMARK    1  A    between atoms: C_1  and  C_2
REMARK    2  A    between atoms: C_4  and  C_5
REMARK    3  A    between atoms: N_7  and  C_8
REMARK    4  A    between atoms: C_11  and  C_12
REMARK    5  A    between atoms: C_17  and  C_18
REMARK    6  A    between atoms: N_20  and  C_21
REMARK    7  A    between atoms: N_20  and  C_22
REMARK    8  A    between atoms: N_25  and  C_26
REMARK                            x       y       z     vdW  Elec       q    Type
REMARK                         _______ _______ _______ _____ _____    ______ ____
ROOT
ATOM      1  C   UNL     1      16.836  38.561  50.683  0.00  0.00    +0.000 C 
ATOM      2  O   UNL     1      17.590  39.527  50.720  0.00  0.00    +0.000 OA
ATOM      3  N   UNL     1      17.213  37.236  50.588  0.00  0.00    +0.000 N 
ATOM      4  H   UNL     1      16.466  36.561  50.504  0.00  0.00    +0.000 HD
ENDROOT
BRANCH   1   8
ATOM      5  C   UNL     1      11.981  38.538  52.010  0.00  0.00    +0.000 C 
ATOM      6  C   UNL     1      13.274  38.736  51.311  0.00  0.00    +0.000 A 
ATOM      7  C   UNL     1      14.542  38.248  51.666  0.00  0.00    +0.000 A 
ATOM      8  C   UNL     1      15.408  38.727  50.698  0.00  0.00    +0.000 A 
ATOM      9  N   UNL     1      14.614  39.357  49.747  0.00  0.00    +0.000 N 
ATOM     10  N   UNL     1      13.329  39.469  50.196  0.00  0.00    +0.000 NA
BRANCH   9  11
ATOM     11  C   UNL     1      14.937  39.862  48.446  0.00  0.00    +0.000 A 
ATOM     12  C   UNL     1      15.749  39.086  47.600  0.00  0.00    +0.000 A 
ATOM     13  C   UNL     1      16.109  39.545  46.329  0.00  0.00    +0.000 A 
ATOM     14  C   UNL     1      15.675  40.795  45.871  0.00  0.00    +0.000 A 
ATOM     15  C   UNL     1      16.039  41.277  44.600  0.00  0.00    +0.000 A 
ATOM     16  C   UNL     1      15.613  42.538  44.178  0.00  0.00    +0.000 A 
ATOM     17 CL   UNL     1      16.077  43.121  42.622  0.00  0.00    +0.000 Cl
ATOM     18  C   UNL     1      14.815  43.325  45.002  0.00  0.00    +0.000 A 
ATOM     19  C   UNL     1      14.446  42.853  46.267  0.00  0.00    +0.000 A 
ATOM     20  C   UNL     1      14.865  41.590  46.717  0.00  0.00    +0.000 A 
ATOM     21  C   UNL     1      14.507  41.116  47.997  0.00  0.00    +0.000 A 
ENDBRANCH   9  11
ENDBRANCH   1   8
BRANCH   3  22
ATOM     22  C   UNL     1      18.521  36.710  50.601  0.00  0.00    +0.000 A 
ATOM     23  C   UNL     1      19.461  36.985  51.591  0.00  0.00    +0.000 A 
ATOM     24  C   UNL     1      20.736  36.411  51.541  0.00  0.00    +0.000 A 
ATOM     25  C   UNL     1      21.104  35.542  50.505  0.00  0.00    +0.000 A 
ATOM     26  C   UNL     1      20.156  35.272  49.511  0.00  0.00    +0.000 A 
ATOM     27  C   UNL     1      18.881  35.851  49.557  0.00  0.00    +0.000 A 
BRANCH  25  28
ATOM     28  C   UNL     1      22.446  34.941  50.478  0.00  0.00    +0.000 A 
ATOM     29  C   UNL     1      23.463  35.569  49.731  0.00  0.00    +0.000 A 
ATOM     30  C   UNL     1      24.763  35.058  49.690  0.00  0.00    +0.000 A 
ATOM     31  C   UNL     1      25.082  33.911  50.403  0.00  0.00    +0.000 A 
ATOM     32  C   UNL     1      24.097  33.261  51.145  0.00  0.00    +0.000 A 
ATOM     33  C   UNL     1      22.787  33.764  51.177  0.00  0.00    +0.000 A 
BRANCH  33  34
ATOM     34  C   UNL     1      21.799  33.005  52.010  0.00  0.00    +0.000 C 
ATOM     35  N   UNL     1      21.146  32.018  51.473  0.00  0.00    +0.000 NA
ATOM     36  N   UNL     1      21.550  33.401  53.319  0.00  0.00    +0.000 N 
ATOM     37  C   UNL     1      22.594  33.940  54.174  0.00  0.00    +0.000 C 
ATOM     38  C   UNL     1      20.482  32.730  54.056  0.00  0.00    +0.000 C 
ATOM     39  H   UNL     1      21.445  31.878  50.505  0.00  0.00    +0.000 HD
ENDBRANCH  33  34
ENDBRANCH  25  28
ENDBRANCH   3  22
TORSDOF 5
ENDMDL
MODEL 3
REMARK VINA RESULT:    -7.113      5.504      9.828
REMARK INTER + INTRA:         -10.456
REMARK INTER:                  -9.193
REMARK INTRA:                  -1.264
REMARK UNBOUND:                -1.264
REMARK  Name = 
REMARK  8 active torsions:
REMARK  status: ('A' for Active; 'I' for Inactive)
REMARK    1  A    between atoms: C_1  and  C_2
REMARK    2  A    between atoms: C_4  and  C_5
REMARK    3  A    between atoms: N_7  and  C_8
REMARK    4  A    between atoms: C_11  and  C_12
REMARK    5  A    between atoms: C_17  and  C_18
REMARK    6  A    between atoms: N_20  and  C_21
REMARK    7  A    between atoms: N_20  and  C_22
REMARK    8  A    between atoms: N_25  and  C_26
REMARK                            x       y       z     vdW  Elec       q    Type
REMARK                         _______ _______ _______ _____ _____    ______ ____
ROOT
ATOM      1  C   UNL     1      15.757  39.033  45.390  0.00  0.00    +0.000 C 
ATOM      2  O   UNL     1      14.718  38.385  45.453  0.00  0.00    +0.000 OA
ATOM      3  N   UNL     1      16.493  39.497  46.461  0.00  0.00    +0.000 N 
ATOM      4  H   UNL     1      17.294  40.074  46.241  0.00  0.00    +0.000 HD
ENDROOT
BRANCH   1   8
ATOM      5  C   UNL     1      18.170  39.065  40.974  0.00  0.00    +0.000 C 
ATOM      6  C   UNL     1      17.361  39.415  42.166  0.00  0.00    +0.000 A 
ATOM      7  C   UNL     1      17.159  38.664  43.335  0.00  0.00    +0.000 A 
ATOM      8  C   UNL     1      16.317  39.426  44.126  0.00  0.00    +0.000 A 
ATOM      9  N   UNL     1      16.162  40.639  43.466  0.00  0.00    +0.000 N 
ATOM     10  N   UNL     1      16.698  40.573  42.211  0.00  0.00    +0.000 NA
BRANCH   9  11
ATOM     11  C   UNL     1      15.565  41.868  43.897  0.00  0.00    +0.000 A 
ATOM     12  C   UNL     1      16.065  43.080  43.389  0.00  0.00    +0.000 A 
ATOM     13  C   UNL     1      15.529  44.306  43.795  0.00  0.00    +0.000 A 
ATOM     14  C   UNL     1      14.485  44.357  44.726  0.00  0.00    +0.000 A 
ATOM     15  C   UNL     1      13.943  45.583  45.155  0.00  0.00    +0.000 A 
ATOM     16  C   UNL     1      12.918  45.605  46.103  0.00  0.00    +0.000 A 
ATOM     17 CL   UNL     1      12.272  47.115  46.628  0.00  0.00    +0.000 Cl
ATOM     18  C   UNL     1      12.414  44.417  46.624  0.00  0.00    +0.000 A 
ATOM     19  C   UNL     1      12.945  43.193  46.201  0.00  0.00    +0.000 A 
ATOM     20  C   UNL     1      13.978  43.144  45.252  0.00  0.00    +0.000 A 
ATOM     21  C   UNL     1      14.527  41.912  44.834  0.00  0.00    +0.000 A 
ENDBRANCH   9  11
ENDBRANCH   1   8
BRANCH   3  22
ATOM     22  C   UNL     1      16.266  39.257  47.832  0.00  0.00    +0.000 A 
ATOM     23  C   UNL     1      15.124  39.668  48.515  0.00  0.00    +0.000 A 
ATOM     24  C   UNL     1      14.964  39.379  49.875  0.00  0.00    +0.000 A 
ATOM     25  C   UNL     1      15.939  38.666  50.587  0.00  0.00    +0.000 A 
ATOM     26  C   UNL     1      17.086  38.259  49.896  0.00  0.00    +0.000 A 
ATOM     27  C   UNL     1      17.248  38.553  48.536  0.00  0.00    +0.000 A 
BRANCH  25  28
ATOM     28  C   UNL     1      15.746  38.363  52.013  0.00  0.00    +0.000 A 
ATOM     29  C   UNL     1      15.300  37.079  52.386  0.00  0.00    +0.000 A 
ATOM     30  C   UNL     1      15.124  36.726  53.727  0.00  0.00    +0.000 A 
ATOM     31  C   UNL     1      15.398  37.647  54.729  0.00  0.00    +0.000 A 
ATOM     32  C   UNL     1      15.832  38.928  54.393  0.00  0.00    +0.000 A 
ATOM     33  C   UNL     1      15.997  39.289  53.047  0.00  0.00    +0.000 A 
BRANCH  33  34
ATOM     34  C   UNL     1      16.478  40.684  52.784  0.00  0.00    +0.000 C 
ATOM     35  N   UNL     1      17.724  40.873  52.468  0.00  0.00    +0.000 NA
ATOM     36  N   UNL     1      15.608  41.757  52.942  0.00  0.00    +0.000 N 
ATOM     37  C   UNL     1      14.196  41.660  52.611  0.00  0.00    +0.000 C 
ATOM     38  C   UNL     1      16.144  43.109  52.817  0.00  0.00    +0.000 C 
ATOM     39  H   UNL     1      18.218  39.979  52.412  0.00  0.00    +0.000 HD
ENDBRANCH  33  34
ENDBRANCH  25  28
ENDBRANCH   3  22
TORSDOF 5
ENDMDL
