MODEL 1
REMARK VINA RESULT:    -8.574      0.000      0.000
REMARK INTER + INTRA:         -11.482
REMARK INTER:                 -10.639
REMARK INTRA:                  -0.843
REMARK UNBOUND:                -0.904
REMARK  Name = 
REMARK  4 active torsions:
REMARK  status: ('A' for Active; 'I' for Inactive)
REMARK    1  A    between atoms: C_4  and  C_5
REMARK    2  A    between atoms: C_9  and  C_10
REMARK    3  A    between atoms: C_11  and  C_12
REMARK    4  A    between atoms: C_27  and  C_28
REMARK                            x       y       z     vdW  Elec       q    Type
REMARK                         _______ _______ _______ _____ _____    ______ ____
ROOT
ATOM      1  C   UNL     1      13.650  43.813  45.916  0.00  0.00    +0.000 A 
ATOM      2  C   UNL     1      12.486  43.745  46.695  0.00  0.00    +0.000 A 
ATOM      3  C   UNL     1      11.748  44.898  46.972  0.00  0.00    +0.000 A 
ATOM      4  C   UNL     1      12.166  46.133  46.473  0.00  0.00    +0.000 A 
ATOM      5  C   UNL     1      13.327  46.229  45.698  0.00  0.00    +0.000 A 
ATOM      6  C   UNL     1      14.051  45.062  45.413  0.00  0.00    +0.000 A 
ENDROOT
BRANCH   1  10
ATOM      7  O   UNL     1      15.801  39.649  46.981  0.00  0.00    +0.000 OA
ATOM      8  C   UNL     1      15.523  40.507  46.155  0.00  0.00    +0.000 A 
ATOM      9  C   UNL     1      14.729  41.689  46.530  0.00  0.00    +0.000 A 
ATOM     10  C   UNL     1      14.434  42.605  45.595  0.00  0.00    +0.000 A 
ATOM     11  O   UNL     1      14.845  42.529  44.274  0.00  0.00    +0.000 OA
ATOM     12  C   UNL     1      15.586  41.444  43.882  0.00  0.00    +0.000 A 
ATOM     13  C   UNL     1      15.979  41.390  42.546  0.00  0.00    +0.000 A 
ATOM     14  C   UNL     1      16.737  40.309  42.086  0.00  0.00    +0.000 A 
ATOM     15  C   UNL     1      17.112  39.271  42.956  0.00  0.00    +0.000 A 
ATOM     16  C   UNL     1      16.711  39.337  44.299  0.00  0.00    +0.000 A 
ATOM     17  C   UNL     1      15.952  40.421  44.752  0.00  0.00    +0.000 A 
BRANCH  15  18
ATOM     18  C   UNL     1      17.901  38.148  42.467  0.00  0.00    +0.000 A 
ATOM     19  N   UNL     1      18.669  37.356  43.292  0.00  0.00    +0.000 NA
ATOM     20  N   UNL     1      19.242  36.441  42.522  0.00  0.00    +0.000 NA
ATOM     21  N   UNL     1      18.803  36.717  41.290  0.00  0.00    +0.000 N 
ATOM     22  N   UNL     1      17.969  37.761  41.181  0.00  0.00    +0.000 NA
ATOM     23  H   UNL     1      19.088  36.165  40.485  0.00  0.00    +0.000 HD
ENDBRANCH  15  18
ENDBRANCH   1  10
BRANCH   5  24
ATOM     24  C   UNL     1      13.783  47.503  45.127  0.00  0.00    +0.000 C 
ATOM     25  C   UNL     1      14.997  48.033  45.352  0.00  0.00    +0.000 C 
BRANCH  25  26
ATOM     26  C   UNL     1      15.456  49.303  44.768  0.00  0.00    +0.000 A 
ATOM     27  C   UNL     1      14.532  50.194  44.237  0.00  0.00    +0.000 A 
ATOM     28  C   UNL     1      14.995  51.388  43.691  0.00  0.00    +0.000 A 
ATOM     29  C   UNL     1      16.367  51.664  43.687  0.00  0.00    +0.000 A 
ATOM     30  C   UNL     1      16.880  52.855  43.147  0.00  0.00    +0.000 A 
ATOM     31  C   UNL     1      18.252  53.099  43.159  0.00  0.00    +0.000 A 
ATOM     32  C   UNL     1      19.112  52.155  43.709  0.00  0.00    +0.000 A 
ATOM     33  C   UNL     1      18.596  50.971  44.246  0.00  0.00    +0.000 A 
ATOM     34  C   UNL     1      17.233  50.703  44.246  0.00  0.00    +0.000 A 
ATOM     35  N   UNL     1      16.786  49.550  44.775  0.00  0.00    +0.000 NA
ENDBRANCH  25  26
ENDBRANCH   5  24
TORSDOF 4
ENDMDL
MODEL 2
REMARK VINA RESULT:    -8.044     10.592     15.549
REMARK INTER + INTRA:         -10.828
REMARK INTER:                 -10.053
REMARK INTRA:                  -0.775
REMARK UNBOUND:                -0.904
REMARK  Name = 
REMARK  4 active torsions:
REMARK  status: ('A' for Active; 'I' for Inactive)
REMARK    1  A    between atoms: C_4  and  C_5
REMARK    2  A    between atoms: C_9  and  C_10
REMARK    3  A    between atoms: C_11  and  C_12
REMARK    4  A    between atoms: C_27  and  C_28
REMARK                            x       y       z     vdW  Elec       q    Type
REMARK                         _______ _______ _______ _____ _____    ______ ____
ROOT
ATOM      1  C   UNL     1      18.226  37.628  51.380  0.00  0.00    +0.000 A 
ATOM      2  C   UNL     1      17.448  37.252  50.275  0.00  0.00    +0.000 A 
ATOM      3  C   UNL     1      17.957  36.378  49.313  0.00  0.00    +0.000 A 
ATOM      4  C   UNL     1      19.250  35.868  49.443  0.00  0.00    +0.000 A 
ATOM      5  C   UNL     1      20.049  36.232  50.533  0.00  0.00    +0.000 A 
ATOM      6  C   UNL     1      19.521  37.098  51.502  0.00  0.00    +0.000 A 
ENDROOT
BRANCH   1  10
ATOM      7  O   UNL     1      16.532  41.826  52.996  0.00  0.00    +0.000 OA
ATOM      8  C   UNL     1      16.856  40.667  53.218  0.00  0.00    +0.000 A 
ATOM      9  C   UNL     1      17.366  39.804  52.140  0.00  0.00    +0.000 A 
ATOM     10  C   UNL     1      17.701  38.535  52.418  0.00  0.00    +0.000 A 
ATOM     11  O   UNL     1      17.618  37.967  53.680  0.00  0.00    +0.000 OA
ATOM     12  C   UNL     1      17.149  38.736  54.713  0.00  0.00    +0.000 A 
ATOM     13  C   UNL     1      17.068  38.136  55.968  0.00  0.00    +0.000 A 
ATOM     14  C   UNL     1      16.598  38.870  57.062  0.00  0.00    +0.000 A 
ATOM     15  C   UNL     1      16.203  40.210  56.913  0.00  0.00    +0.000 A 
ATOM     16  C   UNL     1      16.288  40.803  55.644  0.00  0.00    +0.000 A 
ATOM     17  C   UNL     1      16.760  40.063  54.555  0.00  0.00    +0.000 A 
BRANCH  15  18
ATOM     18  C   UNL     1      15.712  40.965  58.059  0.00  0.00    +0.000 A 
ATOM     19  N   UNL     1      16.299  42.134  58.492  0.00  0.00    +0.000 NA
ATOM     20  N   UNL     1      15.603  42.547  59.542  0.00  0.00    +0.000 NA
ATOM     21  N   UNL     1      14.644  41.627  59.692  0.00  0.00    +0.000 N 
ATOM     22  N   UNL     1      14.652  40.619  58.809  0.00  0.00    +0.000 NA
ATOM     23  H   UNL     1      13.953  41.691  60.435  0.00  0.00    +0.000 HD
ENDBRANCH  15  18
ENDBRANCH   1  10
BRANCH   5  24
ATOM     24  C   UNL     1      21.401  35.694  50.725  0.00  0.00    +0.000 C 
ATOM     25  C   UNL     1      22.133  35.136  49.746  0.00  0.00    +0.000 C 
BRANCH  25  26
ATOM     26  C   UNL     1      23.493  34.610  49.940  0.00  0.00    +0.000 A 
ATOM     27  C   UNL     1      23.801  33.892  51.088  0.00  0.00    +0.000 A 
ATOM     28  C   UNL     1      25.096  33.407  51.245  0.00  0.00    +0.000 A 
ATOM     29  C   UNL     1      26.052  33.649  50.253  0.00  0.00    +0.000 A 
ATOM     30  C   UNL     1      27.372  33.179  50.368  0.00  0.00    +0.000 A 
ATOM     31  C   UNL     1      28.300  33.438  49.360  0.00  0.00    +0.000 A 
ATOM     32  C   UNL     1      27.913  34.164  48.241  0.00  0.00    +0.000 A 
ATOM     33  C   UNL     1      26.599  34.629  48.132  0.00  0.00    +0.000 A 
ATOM     34  C   UNL     1      25.653  34.387  49.120  0.00  0.00    +0.000 A 
ATOM     35  N   UNL     1      24.402  34.854  48.967  0.00  0.00    +0.000 NA
ENDBRANCH  25  26
ENDBRANCH   5  24
TORSDOF 4
ENDMDL
MODEL 3
REMARK VINA RESULT:    -8.032      7.621     10.969
REMARK INTER + INTRA:         -10.813
REMARK INTER:                  -9.910
REMARK INTRA:                  -0.904
REMARK UNBOUND:                -0.904
REMARK  Name = 
REMARK  4 active torsions:
REMARK  status: ('A' for Active; 'I' for Inactive)
REMARK    1  A    between atoms: C_4  and  C_5
REMARK    2  A    between atoms: C_9  and  C_10
REMARK    3  A    between atoms: C_11  and  C_12
REMARK    4  A    between atoms: C_27  and  C_28
REMARK                            x       y       z     vdW  Elec       q    Type
REMARK                         _______ _______ _______ _____ _____    ______ ____
ROOT
ATOM      1  C   UNL     1      17.353  38.205  49.947  0.00  0.00    +0.000 A 
ATOM      2  C   UNL     1      17.868  36.901  49.966  0.00  0.00    +0.000 A 
ATOM      3  C   UNL     1      18.092  36.207  48.775  0.00  0.00    +0.000 A 
ATOM      4  C   UNL     1      17.802  36.809  47.550  0.00  0.00    +0.000 A 
ATOM      5  C   UNL     1      17.281  38.107  47.503  0.00  0.00    +0.000 A 
ATOM      6  C   UNL     1      17.076  38.800  48.705  0.00  0.00    +0.000 A 
ENDROOT
BRANCH   1  10
ATOM      7  O   UNL     1      16.310  42.162  52.468  0.00  0.00    +0.000 OA
ATOM      8  C   UNL     1      16.608  40.976  52.449  0.00  0.00    +0.000 A 
ATOM      9  C   UNL     1      16.812  40.267  51.175  0.00  0.00    +0.000 A 
ATOM     10  C   UNL     1      17.127  38.963  51.192  0.00  0.00    +0.000 A 
ATOM     11  O   UNL     1      17.296  38.218  52.349  0.00  0.00    +0.000 OA
ATOM     12  C   UNL     1      17.116  38.840  53.558  0.00  0.00    +0.000 A 
ATOM     13  C   UNL     1      17.284  38.065  54.704  0.00  0.00    +0.000 A 
ATOM     14  C   UNL     1      17.113  38.643  55.966  0.00  0.00    +0.000 A 
ATOM     15  C   UNL     1      16.773  40.000  56.096  0.00  0.00    +0.000 A 
ATOM     16  C   UNL     1      16.606  40.770  54.935  0.00  0.00    +0.000 A 
ATOM     17  C   UNL     1      16.778  40.185  53.676  0.00  0.00    +0.000 A 
BRANCH  15  18
ATOM     18  C   UNL     1      16.596  40.592  57.417  0.00  0.00    +0.000 A 
ATOM     19  N   UNL     1      15.620  41.522  57.696  0.00  0.00    +0.000 NA
ATOM     20  N   UNL     1      15.745  41.839  58.976  0.00  0.00    +0.000 NA
ATOM     21  N   UNL     1      16.773  41.099  59.406  0.00  0.00    +0.000 N 
ATOM     22  N   UNL     1      17.348  40.303  58.493  0.00  0.00    +0.000 NA
ATOM     23  H   UNL     1      17.096  41.141  60.369  0.00  0.00    +0.000 HD
ENDBRANCH  15  18
ENDBRANCH   1  10
BRANCH   5  24
ATOM     24  C   UNL     1      16.992  38.788  46.234  0.00  0.00    +0.000 C 
ATOM     25  C   UNL     1      16.284  39.926  46.139  0.00  0.00    +0.000 C 
BRANCH  25  26
ATOM     26  C   UNL     1      16.007  40.613  44.867  0.00  0.00    +0.000 A 
ATOM     27  C   UNL     1      16.341  40.004  43.665  0.00  0.00    +0.000 A 
ATOM     28  C   UNL     1      16.068  40.678  42.478  0.00  0.00    +0.000 A 
ATOM     29  C   UNL     1      15.469  41.941  42.519  0.00  0.00    +0.000 A 
ATOM     30  C   UNL     1      15.175  42.659  41.347  0.00  0.00    +0.000 A 
ATOM     31  C   UNL     1      14.578  43.916  41.423  0.00  0.00    +0.000 A 
ATOM     32  C   UNL     1      14.275  44.457  42.667  0.00  0.00    +0.000 A 
ATOM     33  C   UNL     1      14.569  43.739  43.830  0.00  0.00    +0.000 A 
ATOM     34  C   UNL     1      15.164  42.485  43.783  0.00  0.00    +0.000 A 
ATOM     35  N   UNL     1      15.427  41.834  44.930  0.00  0.00    +0.000 NA
ENDBRANCH  25  26
ENDBRANCH   5  24
TORSDOF 4
ENDMDL
