MODEL 1
REMARK VINA RESULT:    -6.688      0.000      0.000
REMARK INTER + INTRA:          -8.861
REMARK INTER:                  -7.906
REMARK INTRA:                  -0.955
REMARK UNBOUND:                -0.609
REMARK  Name = 
REMARK  7 active torsions:
REMARK  status: ('A' for Active; 'I' for Inactive)
REMARK    1  A    between atoms: C_1  and  C_2
REMARK    2  A    between atoms: C_6  and  N_7
REMARK    3  A    between atoms: N_10  and  N_11
REMARK    4  A    between atoms: N_22  and  C_23
REMARK    5  A    between atoms: C_27  and  N_28
REMARK    6  A    between atoms: N_28  and  C_29
REMARK    7  A    between atoms: N_28  and  C_30
REMARK                            x       y       z     vdW  Elec       q    Type
REMARK                         _______ _______ _______ _____ _____    ______ ____
ROOT
ATOM      1  N   UNL     1      21.007  33.544  50.919  0.00  0.00    +0.000 N 
ATOM      2  C   UNL     1      21.851  33.666  52.015  0.00  0.00    +0.000 A 
ATOM      3  N   UNL     1      21.283  33.758  53.194  0.00  0.00    +0.000 NA
ATOM      4  C   UNL     1      22.076  33.782  54.341  0.00  0.00    +0.000 A 
ATOM      5  C   UNL     1      21.454  33.922  55.585  0.00  0.00    +0.000 A 
ATOM      6  C   UNL     1      22.205  33.924  56.765  0.00  0.00    +0.000 A 
ATOM      7  C   UNL     1      23.590  33.784  56.709  0.00  0.00    +0.000 A 
ATOM      8  C   UNL     1      24.220  33.647  55.472  0.00  0.00    +0.000 A 
ATOM      9  C   UNL     1      23.457  33.644  54.295  0.00  0.00    +0.000 A 
ATOM     10  C   UNL     1      24.097  33.540  52.974  0.00  0.00    +0.000 A 
ATOM     11  O   UNL     1      25.322  33.423  52.942  0.00  0.00    +0.000 OA
ATOM     12  N   UNL     1      23.247  33.625  51.863  0.00  0.00    +0.000 N 
ATOM     13  H   UNL     1      21.375  33.734  49.988  0.00  0.00    +0.000 HD
ENDROOT
BRANCH   1  17
ATOM     14  N   UNL     1      18.335  35.900  51.178  0.00  0.00    +0.000 N 
ATOM     15  C   UNL     1      19.562  35.419  50.777  0.00  0.00    +0.000 C 
ATOM     16  O   UNL     1      20.444  36.031  50.182  0.00  0.00    +0.000 OA
ATOM     17  N   UNL     1      19.701  34.074  51.110  0.00  0.00    +0.000 N 
ATOM     18  H   UNL     1      17.666  35.196  51.457  0.00  0.00    +0.000 HD
ATOM     19  H   UNL     1      19.342  33.806  52.028  0.00  0.00    +0.000 HD
BRANCH  14  25
ATOM     20  C   UNL     1      18.109  40.326  53.302  0.00  0.00    +0.000 C 
ATOM     21  C   UNL     1      17.777  39.429  52.147  0.00  0.00    +0.000 A 
ATOM     22  C   UNL     1      17.018  39.901  51.073  0.00  0.00    +0.000 A 
ATOM     23  C   UNL     1      16.697  39.052  50.014  0.00  0.00    +0.000 A 
ATOM     24  C   UNL     1      17.118  37.719  50.026  0.00  0.00    +0.000 A 
ATOM     25  C   UNL     1      17.862  37.225  51.098  0.00  0.00    +0.000 A 
ATOM     26  C   UNL     1      18.188  38.087  52.155  0.00  0.00    +0.000 A 
ENDBRANCH  14  25
ENDBRANCH   1  17
BRANCH  12  27
ATOM     27  C   UNL     1      23.858  33.700  50.566  0.00  0.00    +0.000 A 
ATOM     28  C   UNL     1      24.125  34.939  49.978  0.00  0.00    +0.000 A 
ATOM     29  C   UNL     1      24.702  35.000  48.715  0.00  0.00    +0.000 A 
ATOM     30  C   UNL     1      25.040  33.823  48.039  0.00  0.00    +0.000 A 
ATOM     31  C   UNL     1      24.839  32.555  48.608  0.00  0.00    +0.000 A 
ATOM     32  C   UNL     1      24.230  32.531  49.877  0.00  0.00    +0.000 A 
BRANCH  31  33
ATOM     33  N   UNL     1      25.178  31.363  47.944  0.00  0.00    +0.000 N 
ATOM     34  C   UNL     1      25.021  30.127  48.716  0.00  0.00    +0.000 C 
ATOM     35  C   UNL     1      26.297  31.366  47.004  0.00  0.00    +0.000 C 
ENDBRANCH  31  33
ENDBRANCH  12  27
TORSDOF 4
ENDMDL
MODEL 2
REMARK VINA RESULT:    -6.597      4.349     11.336
REMARK INTER + INTRA:          -8.749
REMARK INTER:                  -8.140
REMARK INTRA:                  -0.609
REMARK UNBOUND:                -0.609
REMARK  Name = 
REMARK  7 active torsions:
REMARK  status: ('A' for Active; 'I' for Inactive)
REMARK    1  A    between atoms: C_1  and  C_2
REMARK    2  A    between atoms: C_6  and  N_7
REMARK    3  A    between atoms: N_10  and  N_11
REMARK    4  A    between atoms: N_22  and  C_23
REMARK    5  A    between atoms: C_27  and  N_28
REMARK    6  A    between atoms: N_28  and  C_29
REMARK    7  A    between atoms: N_28  and  C_30
REMARK                            x       y       z     vdW  Elec       q    Type
REMARK                         _______ _______ _______ _____ _____    ______ ____
ROOT
ATOM      1  N   UNL     1      15.307  37.897  48.530  0.00  0.00    +0.000 N 
ATOM      2  C   UNL     1      15.408  38.936  47.614  0.00  0.00    +0.000 A 
ATOM      3  N   UNL     1      15.972  38.659  46.464  0.00  0.00    +0.000 NA
ATOM      4  C   UNL     1      16.014  39.632  45.465  0.00  0.00    +0.000 A 
ATOM      5  C   UNL     1      16.656  39.331  44.259  0.00  0.00    +0.000 A 
ATOM      6  C   UNL     1      16.699  40.264  43.219  0.00  0.00    +0.000 A 
ATOM      7  C   UNL     1      16.097  41.511  43.376  0.00  0.00    +0.000 A 
ATOM      8  C   UNL     1      15.456  41.821  44.575  0.00  0.00    +0.000 A 
ATOM      9  C   UNL     1      15.417  40.877  45.612  0.00  0.00    +0.000 A 
ATOM     10  C   UNL     1      14.783  41.190  46.902  0.00  0.00    +0.000 A 
ATOM     11  O   UNL     1      14.260  42.298  47.027  0.00  0.00    +0.000 OA
ATOM     12  N   UNL     1      14.868  40.203  47.894  0.00  0.00    +0.000 N 
ATOM     13  H   UNL     1      15.127  38.116  49.509  0.00  0.00    +0.000 HD
ENDROOT
BRANCH   1  17
ATOM     14  N   UNL     1      18.326  36.022  48.897  0.00  0.00    +0.000 N 
ATOM     15  C   UNL     1      17.349  36.929  49.248  0.00  0.00    +0.000 C 
ATOM     16  O   UNL     1      17.355  37.696  50.206  0.00  0.00    +0.000 OA
ATOM     17  N   UNL     1      16.272  36.863  48.369  0.00  0.00    +0.000 N 
ATOM     18  H   UNL     1      18.048  35.335  48.210  0.00  0.00    +0.000 HD
ATOM     19  H   UNL     1      16.511  36.756  47.382  0.00  0.00    +0.000 HD
BRANCH  14  25
ATOM     20  C   UNL     1      22.853  34.160  48.454  0.00  0.00    +0.000 C 
ATOM     21  C   UNL     1      21.850  34.946  49.247  0.00  0.00    +0.000 A 
ATOM     22  C   UNL     1      22.176  35.450  50.509  0.00  0.00    +0.000 A 
ATOM     23  C   UNL     1      21.229  36.161  51.246  0.00  0.00    +0.000 A 
ATOM     24  C   UNL     1      19.944  36.362  50.735  0.00  0.00    +0.000 A 
ATOM     25  C   UNL     1      19.594  35.851  49.486  0.00  0.00    +0.000 A 
ATOM     26  C   UNL     1      20.554  35.144  48.747  0.00  0.00    +0.000 A 
ENDBRANCH  14  25
ENDBRANCH   1  17
BRANCH  12  27
ATOM     27  C   UNL     1      14.413  40.545  49.211  0.00  0.00    +0.000 A 
ATOM     28  C   UNL     1      13.049  40.548  49.512  0.00  0.00    +0.000 A 
ATOM     29  C   UNL     1      12.619  40.895  50.787  0.00  0.00    +0.000 A 
ATOM     30  C   UNL     1      13.549  41.220  51.779  0.00  0.00    +0.000 A 
ATOM     31  C   UNL     1      14.933  41.182  51.542  0.00  0.00    +0.000 A 
ATOM     32  C   UNL     1      15.331  40.849  50.233  0.00  0.00    +0.000 A 
BRANCH  31  33
ATOM     33  N   UNL     1      15.881  41.500  52.529  0.00  0.00    +0.000 N 
ATOM     34  C   UNL     1      15.917  42.900  52.963  0.00  0.00    +0.000 C 
ATOM     35  C   UNL     1      17.179  40.826  52.513  0.00  0.00    +0.000 C 
ENDBRANCH  31  33
ENDBRANCH  12  27
TORSDOF 4
ENDMDL
MODEL 3
REMARK VINA RESULT:    -6.509     12.011     17.675
REMARK INTER + INTRA:          -8.640
REMARK INTER:                  -7.773
REMARK INTRA:                  -0.867
REMARK UNBOUND:                -0.609
REMARK  Name = 
REMARK  7 active torsions:
REMARK  status: ('A' for Active; 'I' for Inactive)
REMARK    1  A    between atoms: C_1  and  C_2
REMARK    2  A    between atoms: C_6  and  N_7
REMARK    3  A    between atoms: N_10  and  N_11
REMARK    4  A    between atoms: N_22  and  C_23
REMARK    5  A    between atoms: C_27  and  N_28
REMARK    6  A    between atoms: N_28  and  C_29
REMARK    7  A    between atoms: N_28  and  C_30
REMARK                            x       y       z     vdW  Elec       q    Type
REMARK                         _______ _______ _______ _____ _____    ______ ____
ROOT
ATOM      1  N   UNL     1      13.559  46.536  44.474  0.00  0.00    +0.000 N 
ATOM      2  C   UNL     1      13.730  47.845  44.906  0.00  0.00    +0.000 A 
ATOM      3  N   UNL     1      14.917  48.376  44.735  0.00  0.00    +0.000 NA
ATOM      4  C   UNL     1      15.124  49.717  45.056  0.00  0.00    +0.000 A 
ATOM      5  C   UNL     1      16.406  50.254  44.905  0.00  0.00    +0.000 A 
ATOM      6  C   UNL     1      16.657  51.600  45.188  0.00  0.00    +0.000 A 
ATOM      7  C   UNL     1      15.622  52.424  45.625  0.00  0.00    +0.000 A 
ATOM      8  C   UNL     1      14.340  51.898  45.781  0.00  0.00    +0.000 A 
ATOM      9  C   UNL     1      14.100  50.546  45.492  0.00  0.00    +0.000 A 
ATOM     10  C   UNL     1      12.766  49.953  45.685  0.00  0.00    +0.000 A 
ATOM     11  O   UNL     1      11.864  50.694  46.077  0.00  0.00    +0.000 OA
ATOM     12  N   UNL     1      12.656  48.578  45.440  0.00  0.00    +0.000 N 
ATOM     13  H   UNL     1      12.761  46.002  44.816  0.00  0.00    +0.000 HD
ENDROOT
BRANCH   1  17
ATOM     14  N   UNL     1      15.736  43.707  44.342  0.00  0.00    +0.000 N 
ATOM     15  C   UNL     1      14.561  44.407  44.177  0.00  0.00    +0.000 C 
ATOM     16  O   UNL     1      13.469  43.961  43.837  0.00  0.00    +0.000 OA
ATOM     17  N   UNL     1      14.754  45.765  44.422  0.00  0.00    +0.000 N 
ATOM     18  H   UNL     1      16.569  44.274  44.413  0.00  0.00    +0.000 HD
ATOM     19  H   UNL     1      15.354  45.990  45.217  0.00  0.00    +0.000 HD
BRANCH  14  25
ATOM     20  C   UNL     1      17.333  39.903  41.671  0.00  0.00    +0.000 C 
ATOM     21  C   UNL     1      16.745  40.430  42.947  0.00  0.00    +0.000 A 
ATOM     22  C   UNL     1      16.391  39.560  43.982  0.00  0.00    +0.000 A 
ATOM     23  C   UNL     1      15.825  40.060  45.154  0.00  0.00    +0.000 A 
ATOM     24  C   UNL     1      15.594  41.431  45.298  0.00  0.00    +0.000 A 
ATOM     25  C   UNL     1      15.924  42.312  44.270  0.00  0.00    +0.000 A 
ATOM     26  C   UNL     1      16.500  41.803  43.096  0.00  0.00    +0.000 A 
ENDBRANCH  14  25
ENDBRANCH   1  17
BRANCH  12  27
ATOM     27  C   UNL     1      11.417  47.940  45.784  0.00  0.00    +0.000 A 
ATOM     28  C   UNL     1      10.339  47.958  44.896  0.00  0.00    +0.000 A 
ATOM     29  C   UNL     1       9.140  47.351  45.245  0.00  0.00    +0.000 A 
ATOM     30  C   UNL     1       9.014  46.698  46.476  0.00  0.00    +0.000 A 
ATOM     31  C   UNL     1      10.083  46.608  47.382  0.00  0.00    +0.000 A 
ATOM     32  C   UNL     1      11.275  47.256  47.005  0.00  0.00    +0.000 A 
BRANCH  31  33
ATOM     33  N   UNL     1       9.975  45.953  48.621  0.00  0.00    +0.000 N 
ATOM     34  C   UNL     1       9.881  44.491  48.572  0.00  0.00    +0.000 C 
ATOM     35  C   UNL     1       9.210  46.585  49.695  0.00  0.00    +0.000 C 
ENDBRANCH  31  33
ENDBRANCH  12  27
TORSDOF 4
ENDMDL
