MODEL 1
REMARK VINA RESULT:    -7.646      0.000      0.000
REMARK INTER + INTRA:          -9.096
REMARK INTER:                  -8.552
REMARK INTRA:                  -0.544
REMARK UNBOUND:                -0.556
REMARK  Name = 
REMARK  4 active torsions:
REMARK  status: ('A' for Active; 'I' for Inactive)
REMARK    1  A    between atoms: C_1  and  C_2
REMARK    2  A    between atoms: C_9  and  N_10
REMARK    3  A    between atoms: C_14  and  C_15
REMARK    4  A    between atoms: N_27  and  C_28
REMARK                            x       y       z     vdW  Elec       q    Type
REMARK                         _______ _______ _______ _____ _____    ______ ____
ROOT
ATOM      1  N   UNL     1      15.229  41.557  42.788  0.00  0.00    +0.000 N 
ATOM      2  C   UNL     1      15.273  41.956  44.125  0.00  0.00    +0.000 C 
ATOM      3  O   UNL     1      15.821  41.385  45.062  0.00  0.00    +0.000 OA
ATOM      4  C   UNL     1      14.572  43.254  44.306  0.00  0.00    +0.000 C 
ATOM      5  C   UNL     1      14.453  43.828  45.512  0.00  0.00    +0.000 C 
ATOM      6  S   UNL     1      13.976  43.828  42.809  0.00  0.00    +0.000 S 
ATOM      7  C   UNL     1      14.512  42.392  41.935  0.00  0.00    +0.000 C 
ATOM      8  S   UNL     1      14.044  42.171  40.343  0.00  0.00    +0.000 S 
ENDROOT
BRANCH   5   9
ATOM      9  C   UNL     1      13.776  45.097  45.801  0.00  0.00    +0.000 A 
ATOM     10  C   UNL     1      12.533  45.120  46.436  0.00  0.00    +0.000 A 
ATOM     11  C   UNL     1      11.878  46.329  46.702  0.00  0.00    +0.000 A 
ATOM     12  C   UNL     1      12.501  47.523  46.306  0.00  0.00    +0.000 A 
ATOM     13  C   UNL     1      13.742  47.529  45.667  0.00  0.00    +0.000 A 
ATOM     14  C   UNL     1      14.383  46.297  45.408  0.00  0.00    +0.000 A 
ATOM     15  C   UNL     1      14.094  48.892  45.417  0.00  0.00    +0.000 A 
ATOM     16  C   UNL     1      15.211  49.515  44.818  0.00  0.00    +0.000 A 
ATOM     17  C   UNL     1      15.265  50.909  44.732  0.00  0.00    +0.000 A 
ATOM     18  C   UNL     1      14.227  51.686  45.234  0.00  0.00    +0.000 A 
ATOM     19  C   UNL     1      13.110  51.096  45.831  0.00  0.00    +0.000 A 
ATOM     20  C   UNL     1      13.062  49.693  45.909  0.00  0.00    +0.000 A 
ATOM     21  N   UNL     1      12.105  48.841  46.427  0.00  0.00    +0.000 N 
ATOM     22  C   UNL     1      10.863  49.276  47.028  0.00  0.00    +0.000 C 
ENDBRANCH   5   9
BRANCH   1  31
ATOM     23  C   UNL     1      17.311  35.355  41.440  0.00  0.00    +0.000 C 
ATOM     24  C   UNL     1      17.908  36.713  41.206  0.00  0.00    +0.000 A 
ATOM     25  C   UNL     1      19.100  36.861  40.611  0.00  0.00    +0.000 A 
ATOM     26  C   UNL     1      19.725  38.168  40.361  0.00  0.00    +0.000 A 
ATOM     27  O   UNL     1      20.821  38.244  39.817  0.00  0.00    +0.000 OA
ATOM     28  O   UNL     1      19.020  39.286  40.768  0.00  0.00    +0.000 OA
ATOM     29  C   UNL     1      17.759  39.166  41.389  0.00  0.00    +0.000 A 
ATOM     30  C   UNL     1      17.137  40.365  41.756  0.00  0.00    +0.000 A 
ATOM     31  C   UNL     1      15.888  40.347  42.385  0.00  0.00    +0.000 A 
ATOM     32  C   UNL     1      15.312  39.094  42.648  0.00  0.00    +0.000 A 
ATOM     33  C   UNL     1      15.946  37.898  42.271  0.00  0.00    +0.000 A 
ATOM     34  C   UNL     1      17.185  37.919  41.629  0.00  0.00    +0.000 A 
ENDBRANCH   1  31
TORSDOF 2
ENDMDL
MODEL 2
REMARK VINA RESULT:    -7.436      1.432      2.014
REMARK INTER + INTRA:          -8.862
REMARK INTER:                  -8.295
REMARK INTRA:                  -0.567
REMARK UNBOUND:                -0.556
REMARK  Name = 
REMARK  4 active torsions:
REMARK  status: ('A' for Active; 'I' for Inactive)
REMARK    1  A    between atoms: C_1  and  C_2
REMARK    2  A    between atoms: C_9  and  N_10
REMARK    3  A    between atoms: C_14  and  C_15
REMARK    4  A    between atoms: N_27  and  C_28
REMARK                            x       y       z     vdW  Elec       q    Type
REMARK                         _______ _______ _______ _____ _____    ______ ____
ROOT
ATOM      1  N   UNL     1      15.176  41.697  42.897  0.00  0.00    +0.000 N 
ATOM      2  C   UNL     1      15.182  42.101  44.233  0.00  0.00    +0.000 C 
ATOM      3  O   UNL     1      15.680  41.521  45.191  0.00  0.00    +0.000 OA
ATOM      4  C   UNL     1      14.508  43.419  44.383  0.00  0.00    +0.000 C 
ATOM      5  C   UNL     1      14.361  44.001  45.581  0.00  0.00    +0.000 C 
ATOM      6  S   UNL     1      13.983  44.000  42.862  0.00  0.00    +0.000 S 
ATOM      7  C   UNL     1      14.512  42.546  42.015  0.00  0.00    +0.000 C 
ATOM      8  S   UNL     1      14.097  42.329  40.407  0.00  0.00    +0.000 S 
ENDROOT
BRANCH   5   9
ATOM      9  C   UNL     1      13.707  45.288  45.840  0.00  0.00    +0.000 A 
ATOM     10  C   UNL     1      12.474  45.351  46.492  0.00  0.00    +0.000 A 
ATOM     11  C   UNL     1      11.842  46.577  46.730  0.00  0.00    +0.000 A 
ATOM     12  C   UNL     1      12.476  47.749  46.287  0.00  0.00    +0.000 A 
ATOM     13  C   UNL     1      13.707  47.716  45.630  0.00  0.00    +0.000 A 
ATOM     14  C   UNL     1      14.325  46.466  45.400  0.00  0.00    +0.000 A 
ATOM     15  C   UNL     1      14.075  49.065  45.331  0.00  0.00    +0.000 A 
ATOM     16  C   UNL     1      15.192  49.651  44.696  0.00  0.00    +0.000 A 
ATOM     17  C   UNL     1      15.265  51.041  44.565  0.00  0.00    +0.000 A 
ATOM     18  C   UNL     1      14.246  51.849  45.059  0.00  0.00    +0.000 A 
ATOM     19  C   UNL     1      13.130  51.295  45.690  0.00  0.00    +0.000 A 
ATOM     20  C   UNL     1      13.062  49.896  45.813  0.00  0.00    +0.000 A 
ATOM     21  N   UNL     1      12.101  49.076  46.372  0.00  0.00    +0.000 N 
ATOM     22  C   UNL     1      10.875  49.548  46.978  0.00  0.00    +0.000 C 
ENDBRANCH   5   9
BRANCH   1  31
ATOM     23  C   UNL     1      19.152  36.709  40.917  0.00  0.00    +0.000 C 
ATOM     24  C   UNL     1      17.717  36.768  41.351  0.00  0.00    +0.000 A 
ATOM     25  C   UNL     1      16.955  35.666  41.402  0.00  0.00    +0.000 A 
ATOM     26  C   UNL     1      15.545  35.672  41.820  0.00  0.00    +0.000 A 
ATOM     27  O   UNL     1      14.893  34.634  41.842  0.00  0.00    +0.000 OA
ATOM     28  O   UNL     1      15.005  36.895  42.178  0.00  0.00    +0.000 OA
ATOM     29  C   UNL     1      15.782  38.072  42.144  0.00  0.00    +0.000 A 
ATOM     30  C   UNL     1      15.131  39.250  42.530  0.00  0.00    +0.000 A 
ATOM     31  C   UNL     1      15.817  40.468  42.522  0.00  0.00    +0.000 A 
ATOM     32  C   UNL     1      17.154  40.458  42.093  0.00  0.00    +0.000 A 
ATOM     33  C   UNL     1      17.796  39.268  41.712  0.00  0.00    +0.000 A 
ATOM     34  C   UNL     1      17.113  38.050  41.735  0.00  0.00    +0.000 A 
ENDBRANCH   1  31
TORSDOF 2
ENDMDL
MODEL 3
REMARK VINA RESULT:    -6.691      8.347     12.723
REMARK INTER + INTRA:          -8.029
REMARK INTER:                  -7.474
REMARK INTRA:                  -0.556
REMARK UNBOUND:                -0.556
REMARK  Name = 
REMARK  4 active torsions:
REMARK  status: ('A' for Active; 'I' for Inactive)
REMARK    1  A    between atoms: C_1  and  C_2
REMARK    2  A    between atoms: C_9  and  N_10
REMARK    3  A    between atoms: C_14  and  C_15
REMARK    4  A    between atoms: N_27  and  C_28
REMARK                            x       y       z     vdW  Elec       q    Type
REMARK                         _______ _______ _______ _____ _____    ______ ____
ROOT
ATOM      1  N   UNL     1      15.606  39.123  48.718  0.00  0.00    +0.000 N 
ATOM      2  C   UNL     1      16.241  39.304  49.948  0.00  0.00    +0.000 C 
ATOM      3  O   UNL     1      16.153  40.264  50.705  0.00  0.00    +0.000 OA
ATOM      4  C   UNL     1      17.063  38.113  50.291  0.00  0.00    +0.000 C 
ATOM      5  C   UNL     1      17.794  38.063  51.413  0.00  0.00    +0.000 C 
ATOM      6  S   UNL     1      16.927  36.919  49.073  0.00  0.00    +0.000 S 
ATOM      7  C   UNL     1      15.907  37.936  48.054  0.00  0.00    +0.000 C 
ATOM      8  S   UNL     1      15.539  37.441  46.498  0.00  0.00    +0.000 S 
ENDROOT
BRANCH   5   9
ATOM      9  C   UNL     1      18.644  36.945  51.840  0.00  0.00    +0.000 A 
ATOM     10  C   UNL     1      18.280  36.134  52.915  0.00  0.00    +0.000 A 
ATOM     11  C   UNL     1      19.094  35.075  53.332  0.00  0.00    +0.000 A 
ATOM     12  C   UNL     1      20.297  34.850  52.644  0.00  0.00    +0.000 A 
ATOM     13  C   UNL     1      20.688  35.648  51.566  0.00  0.00    +0.000 A 
ATOM     14  C   UNL     1      19.850  36.712  51.165  0.00  0.00    +0.000 A 
ATOM     15  C   UNL     1      21.939  35.148  51.088  0.00  0.00    +0.000 A 
ATOM     16  C   UNL     1      22.803  35.530  50.039  0.00  0.00    +0.000 A 
ATOM     17  C   UNL     1      23.981  34.811  49.813  0.00  0.00    +0.000 A 
ATOM     18  C   UNL     1      24.305  33.721  50.614  0.00  0.00    +0.000 A 
ATOM     19  C   UNL     1      23.468  33.322  51.659  0.00  0.00    +0.000 A 
ATOM     20  C   UNL     1      22.288  34.054  51.882  0.00  0.00    +0.000 A 
ATOM     21  N   UNL     1      21.288  33.905  52.823  0.00  0.00    +0.000 N 
ATOM     22  C   UNL     1      21.276  32.884  53.849  0.00  0.00    +0.000 C 
ENDBRANCH   5   9
BRANCH   1  31
ATOM     23  C   UNL     1      10.631  43.266  47.078  0.00  0.00    +0.000 C 
ATOM     24  C   UNL     1      12.069  43.172  46.659  0.00  0.00    +0.000 A 
ATOM     25  C   UNL     1      12.601  44.035  45.782  0.00  0.00    +0.000 A 
ATOM     26  C   UNL     1      14.003  43.983  45.341  0.00  0.00    +0.000 A 
ATOM     27  O   UNL     1      14.435  44.795  44.531  0.00  0.00    +0.000 OA
ATOM     28  O   UNL     1      14.791  42.983  45.881  0.00  0.00    +0.000 OA
ATOM     29  C   UNL     1      14.265  42.064  46.813  0.00  0.00    +0.000 A 
ATOM     30  C   UNL     1      15.156  41.097  47.294  0.00  0.00    +0.000 A 
ATOM     31  C   UNL     1      14.724  40.138  48.216  0.00  0.00    +0.000 A 
ATOM     32  C   UNL     1      13.376  40.176  48.609  0.00  0.00    +0.000 A 
ATOM     33  C   UNL     1      12.494  41.154  48.121  0.00  0.00    +0.000 A 
ATOM     34  C   UNL     1      12.931  42.120  47.212  0.00  0.00    +0.000 A 
ENDBRANCH   1  31
TORSDOF 2
ENDMDL
