MODEL 1
REMARK VINA RESULT:    -6.913      0.000      0.000
REMARK INTER + INTRA:          -8.070
REMARK INTER:                  -7.751
REMARK INTRA:                  -0.320
REMARK UNBOUND:                -0.349
REMARK  Name = 
REMARK  2 active torsions:
REMARK  status: ('A' for Active; 'I' for Inactive)
REMARK    1  A    between atoms: C_6  and  C_7
REMARK    2  A    between atoms: C_7  and  N_8
REMARK                            x       y       z     vdW  Elec       q    Type
REMARK                         _______ _______ _______ _____ _____    ______ ____
ROOT
ATOM      1  N   UNL     1      16.341  38.613  47.826  0.00  0.00    +0.000 NA
ATOM      2  C   UNL     1      16.293  38.131  46.420  0.00  0.00    +0.000 C 
ATOM      3  C   UNL     1      16.615  39.250  45.392  0.00  0.00    +0.000 C 
ATOM      4  C   UNL     1      15.880  40.497  45.740  0.00  0.00    +0.000 A 
ATOM      5  C   UNL     1      15.310  40.652  46.985  0.00  0.00    +0.000 A 
ATOM      6  N   UNL     1      14.731  41.887  47.037  0.00  0.00    +0.000 N 
ATOM      7  C   UNL     1      14.911  42.538  45.833  0.00  0.00    +0.000 A 
ATOM      8  C   UNL     1      14.492  43.811  45.426  0.00  0.00    +0.000 A 
ATOM      9  C   UNL     1      14.826  44.220  44.131  0.00  0.00    +0.000 A 
ATOM     10  C   UNL     1      15.550  43.389  43.279  0.00  0.00    +0.000 A 
ATOM     11  C   UNL     1      15.961  42.118  43.701  0.00  0.00    +0.000 A 
ATOM     12  C   UNL     1      15.636  41.682  44.998  0.00  0.00    +0.000 A 
ATOM     13  C   UNL     1      15.301  39.638  48.075  0.00  0.00    +0.000 C 
ATOM     14  H   UNL     1      14.242  42.278  47.830  0.00  0.00    +0.000 HD
ENDROOT
BRANCH   1  15
ATOM     15  C   UNL     1      16.187  37.509  48.786  0.00  0.00    +0.000 C 
BRANCH  15  21
ATOM     16  C   UNL     1      22.020  35.307  50.826  0.00  0.00    +0.000 A 
ATOM     17  C   UNL     1      21.745  34.777  49.568  0.00  0.00    +0.000 A 
ATOM     18  C   UNL     1      20.550  35.100  48.922  0.00  0.00    +0.000 A 
ATOM     19  C   UNL     1      19.616  35.958  49.527  0.00  0.00    +0.000 A 
ATOM     20  C   UNL     1      18.411  36.292  48.889  0.00  0.00    +0.000 A 
ATOM     21  C   UNL     1      17.473  37.143  49.498  0.00  0.00    +0.000 A 
ATOM     22  C   UNL     1      17.764  37.673  50.759  0.00  0.00    +0.000 A 
ATOM     23  C   UNL     1      18.961  37.351  51.406  0.00  0.00    +0.000 A 
ATOM     24  C   UNL     1      19.896  36.495  50.803  0.00  0.00    +0.000 A 
ATOM     25  C   UNL     1      21.102  36.161  51.439  0.00  0.00    +0.000 A 
ENDBRANCH  15  21
ENDBRANCH   1  15
TORSDOF 2
ENDMDL
MODEL 2
REMARK VINA RESULT:    -6.791      4.785      5.357
REMARK INTER + INTRA:          -7.934
REMARK INTER:                  -7.797
REMARK INTRA:                  -0.137
REMARK UNBOUND:                -0.349
REMARK  Name = 
REMARK  2 active torsions:
REMARK  status: ('A' for Active; 'I' for Inactive)
REMARK    1  A    between atoms: C_6  and  C_7
REMARK    2  A    between atoms: C_7  and  N_8
REMARK                            x       y       z     vdW  Elec       q    Type
REMARK                         _______ _______ _______ _____ _____    ______ ____
ROOT
ATOM      1  N   UNL     1      16.849  38.159  51.572  0.00  0.00    +0.000 NA
ATOM      2  C   UNL     1      17.640  39.230  50.910  0.00  0.00    +0.000 C 
ATOM      3  C   UNL     1      17.617  40.566  51.699  0.00  0.00    +0.000 C 
ATOM      4  C   UNL     1      16.231  40.880  52.143  0.00  0.00    +0.000 A 
ATOM      5  C   UNL     1      15.251  39.911  52.120  0.00  0.00    +0.000 A 
ATOM      6  N   UNL     1      14.098  40.462  52.600  0.00  0.00    +0.000 N 
ATOM      7  C   UNL     1      14.314  41.785  52.929  0.00  0.00    +0.000 A 
ATOM      8  C   UNL     1      13.430  42.740  53.450  0.00  0.00    +0.000 A 
ATOM      9  C   UNL     1      13.933  44.021  53.695  0.00  0.00    +0.000 A 
ATOM     10  C   UNL     1      15.265  44.335  53.431  0.00  0.00    +0.000 A 
ATOM     11  C   UNL     1      16.135  43.369  52.910  0.00  0.00    +0.000 A 
ATOM     12  C   UNL     1      15.654  42.073  52.652  0.00  0.00    +0.000 A 
ATOM     13  C   UNL     1      15.413  38.515  51.630  0.00  0.00    +0.000 C 
ATOM     14  H   UNL     1      13.213  39.985  52.705  0.00  0.00    +0.000 HD
ENDROOT
BRANCH   1  15
ATOM     15  C   UNL     1      17.010  36.863  50.893  0.00  0.00    +0.000 C 
BRANCH  15  21
ATOM     16  C   UNL     1      22.941  34.821  48.972  0.00  0.00    +0.000 A 
ATOM     17  C   UNL     1      22.041  34.670  47.920  0.00  0.00    +0.000 A 
ATOM     18  C   UNL     1      20.704  35.036  48.088  0.00  0.00    +0.000 A 
ATOM     19  C   UNL     1      20.251  35.559  49.311  0.00  0.00    +0.000 A 
ATOM     20  C   UNL     1      18.910  35.932  49.494  0.00  0.00    +0.000 A 
ATOM     21  C   UNL     1      18.455  36.447  50.720  0.00  0.00    +0.000 A 
ATOM     22  C   UNL     1      19.371  36.600  51.767  0.00  0.00    +0.000 A 
ATOM     23  C   UNL     1      20.709  36.235  51.599  0.00  0.00    +0.000 A 
ATOM     24  C   UNL     1      21.164  35.713  50.378  0.00  0.00    +0.000 A 
ATOM     25  C   UNL     1      22.505  35.340  50.193  0.00  0.00    +0.000 A 
ENDBRANCH  15  21
ENDBRANCH   1  15
TORSDOF 2
ENDMDL
MODEL 3
REMARK VINA RESULT:    -6.428      5.247      6.172
REMARK INTER + INTRA:          -7.528
REMARK INTER:                  -7.179
REMARK INTRA:                  -0.349
REMARK UNBOUND:                -0.349
REMARK  Name = 
REMARK  2 active torsions:
REMARK  status: ('A' for Active; 'I' for Inactive)
REMARK    1  A    between atoms: C_6  and  C_7
REMARK    2  A    between atoms: C_7  and  N_8
REMARK                            x       y       z     vdW  Elec       q    Type
REMARK                         _______ _______ _______ _____ _____    ______ ____
ROOT
ATOM      1  N   UNL     1      16.712  38.147  53.116  0.00  0.00    +0.000 NA
ATOM      2  C   UNL     1      15.632  38.171  54.138  0.00  0.00    +0.000 C 
ATOM      3  C   UNL     1      14.622  39.329  53.916  0.00  0.00    +0.000 C 
ATOM      4  C   UNL     1      15.346  40.595  53.620  0.00  0.00    +0.000 A 
ATOM      5  C   UNL     1      16.679  40.576  53.269  0.00  0.00    +0.000 A 
ATOM      6  N   UNL     1      17.074  41.861  53.030  0.00  0.00    +0.000 N 
ATOM      7  C   UNL     1      16.013  42.721  53.230  0.00  0.00    +0.000 A 
ATOM      8  C   UNL     1      15.947  44.115  53.107  0.00  0.00    +0.000 A 
ATOM      9  C   UNL     1      14.719  44.731  53.369  0.00  0.00    +0.000 A 
ATOM     10  C   UNL     1      13.603  43.983  53.737  0.00  0.00    +0.000 A 
ATOM     11  C   UNL     1      13.685  42.590  53.855  0.00  0.00    +0.000 A 
ATOM     12  C   UNL     1      14.909  41.946  53.599  0.00  0.00    +0.000 A 
ATOM     13  C   UNL     1      17.546  39.368  53.192  0.00  0.00    +0.000 C 
ATOM     14  H   UNL     1      17.999  42.152  52.749  0.00  0.00    +0.000 HD
ENDROOT
BRANCH   1  15
ATOM     15  C   UNL     1      17.565  36.956  53.253  0.00  0.00    +0.000 C 
BRANCH  15  21
ATOM     16  C   UNL     1      21.538  35.040  48.397  0.00  0.00    +0.000 A 
ATOM     17  C   UNL     1      22.264  35.109  49.583  0.00  0.00    +0.000 A 
ATOM     18  C   UNL     1      21.633  35.500  50.765  0.00  0.00    +0.000 A 
ATOM     19  C   UNL     1      20.266  35.825  50.776  0.00  0.00    +0.000 A 
ATOM     20  C   UNL     1      19.618  36.219  51.957  0.00  0.00    +0.000 A 
ATOM     21  C   UNL     1      18.253  36.554  51.965  0.00  0.00    +0.000 A 
ATOM     22  C   UNL     1      17.533  36.474  50.768  0.00  0.00    +0.000 A 
ATOM     23  C   UNL     1      18.165  36.082  49.585  0.00  0.00    +0.000 A 
ATOM     24  C   UNL     1      19.530  35.755  49.573  0.00  0.00    +0.000 A 
ATOM     25  C   UNL     1      20.179  35.360  48.392  0.00  0.00    +0.000 A 
ENDBRANCH  15  21
ENDBRANCH   1  15
TORSDOF 2
ENDMDL
