MODEL 1
REMARK VINA RESULT:    -6.738      0.000      0.000
REMARK INTER + INTRA:          -8.291
REMARK INTER:                  -7.856
REMARK INTRA:                  -0.435
REMARK UNBOUND:                -0.372
REMARK  Name = 
REMARK  3 active torsions:
REMARK  status: ('A' for Active; 'I' for Inactive)
REMARK    1  A    between atoms: C_6  and  C_7
REMARK    2  A    between atoms: C_7  and  C_8
REMARK    3  A    between atoms: C_8  and  N_9
REMARK                            x       y       z     vdW  Elec       q    Type
REMARK                         _______ _______ _______ _____ _____    ______ ____
ROOT
ATOM      1  N   UNL     1      14.735  39.165  49.742  0.00  0.00    +0.000 NA
ATOM      2  C   UNL     1      15.901  39.362  50.632  0.00  0.00    +0.000 C 
ATOM      3  C   UNL     1      17.176  38.582  50.235  0.00  0.00    +0.000 C 
ATOM      4  N   UNL     1      16.935  37.120  50.143  0.00  0.00    +0.000 N 
ATOM      5  C   UNL     1      17.873  36.426  49.412  0.00  0.00    +0.000 A 
ATOM      6  N   UNL     1      17.636  35.929  48.199  0.00  0.00    +0.000 NA
ATOM      7  S   UNL     1      18.999  35.208  47.618  0.00  0.00    +0.000 S 
ATOM      8  C   UNL     1      19.980  35.504  48.993  0.00  0.00    +0.000 A 
ATOM      9  C   UNL     1      21.321  35.152  49.222  0.00  0.00    +0.000 A 
ATOM     10  C   UNL     1      21.898  35.494  50.448  0.00  0.00    +0.000 A 
ATOM     11  C   UNL     1      21.158  36.161  51.417  0.00  0.00    +0.000 A 
ATOM     12  C   UNL     1      19.825  36.508  51.174  0.00  0.00    +0.000 A 
ATOM     13  C   UNL     1      19.211  36.191  49.935  0.00  0.00    +0.000 A 
ATOM     14  C   UNL     1      15.513  36.771  49.909  0.00  0.00    +0.000 C 
ATOM     15  C   UNL     1      14.809  37.848  49.061  0.00  0.00    +0.000 C 
ENDROOT
BRANCH   1  16
ATOM     16  C   UNL     1      14.565  40.242  48.751  0.00  0.00    +0.000 C 
BRANCH  16  17
ATOM     17  C   UNL     1      15.116  39.892  47.355  0.00  0.00    +0.000 C 
BRANCH  17  23
ATOM     18  O   UNL     1      13.984  46.374  44.119  0.00  0.00    +0.000 OA
ATOM     19  C   UNL     1      14.270  45.263  44.531  0.00  0.00    +0.000 C 
ATOM     20  C   UNL     1      13.785  44.616  45.835  0.00  0.00    +0.000 C 
ATOM     21  C   UNL     1      14.464  43.280  45.794  0.00  0.00    +0.000 A 
ATOM     22  C   UNL     1      14.414  42.235  46.699  0.00  0.00    +0.000 A 
ATOM     23  C   UNL     1      15.150  41.074  46.414  0.00  0.00    +0.000 A 
ATOM     24  C   UNL     1      15.901  41.003  45.221  0.00  0.00    +0.000 A 
ATOM     25  F   UNL     1      16.593  39.888  44.944  0.00  0.00    +0.000 F 
ATOM     26  C   UNL     1      15.950  42.058  44.312  0.00  0.00    +0.000 A 
ATOM     27  C   UNL     1      15.221  43.181  44.629  0.00  0.00    +0.000 A 
ATOM     28  N   UNL     1      15.103  44.351  43.895  0.00  0.00    +0.000 N 
ATOM     29  H   UNL     1      15.547  44.542  43.010  0.00  0.00    +0.000 HD
ENDBRANCH  17  23
ENDBRANCH  16  17
ENDBRANCH   1  16
TORSDOF 3
ENDMDL
MODEL 2
REMARK VINA RESULT:    -6.622      4.126      7.416
REMARK INTER + INTRA:          -8.155
REMARK INTER:                  -7.783
REMARK INTRA:                  -0.372
REMARK UNBOUND:                -0.372
REMARK  Name = 
REMARK  3 active torsions:
REMARK  status: ('A' for Active; 'I' for Inactive)
REMARK    1  A    between atoms: C_6  and  C_7
REMARK    2  A    between atoms: C_7  and  C_8
REMARK    3  A    between atoms: C_8  and  N_9
REMARK                            x       y       z     vdW  Elec       q    Type
REMARK                         _______ _______ _______ _____ _____    ______ ____
ROOT
ATOM      1  N   UNL     1      16.408  38.286  49.811  0.00  0.00    +0.000 NA
ATOM      2  C   UNL     1      17.165  37.857  48.613  0.00  0.00    +0.000 C 
ATOM      3  C   UNL     1      17.128  38.839  47.420  0.00  0.00    +0.000 C 
ATOM      4  N   UNL     1      15.741  39.137  46.980  0.00  0.00    +0.000 N 
ATOM      5  C   UNL     1      15.607  40.284  46.230  0.00  0.00    +0.000 A 
ATOM      6  N   UNL     1      15.056  41.404  46.694  0.00  0.00    +0.000 NA
ATOM      7  S   UNL     1      15.113  42.573  45.534  0.00  0.00    +0.000 S 
ATOM      8  C   UNL     1      15.864  41.616  44.326  0.00  0.00    +0.000 A 
ATOM      9  C   UNL     1      16.232  41.965  43.015  0.00  0.00    +0.000 A 
ATOM     10  C   UNL     1      16.820  40.988  42.208  0.00  0.00    +0.000 A 
ATOM     11  C   UNL     1      17.030  39.702  42.692  0.00  0.00    +0.000 A 
ATOM     12  C   UNL     1      16.662  39.370  43.999  0.00  0.00    +0.000 A 
ATOM     13  C   UNL     1      16.076  40.340  44.853  0.00  0.00    +0.000 A 
ATOM     14  C   UNL     1      14.726  38.908  48.037  0.00  0.00    +0.000 C 
ATOM     15  C   UNL     1      15.303  39.203  49.435  0.00  0.00    +0.000 C 
ENDROOT
BRANCH   1  16
ATOM     16  C   UNL     1      17.253  38.904  50.849  0.00  0.00    +0.000 C 
BRANCH  16  17
ATOM     17  C   UNL     1      16.640  38.848  52.260  0.00  0.00    +0.000 C 
BRANCH  17  23
ATOM     18  O   UNL     1      14.856  45.822  53.661  0.00  0.00    +0.000 OA
ATOM     19  C   UNL     1      15.002  44.625  53.476  0.00  0.00    +0.000 C 
ATOM     20  C   UNL     1      16.255  43.927  52.935  0.00  0.00    +0.000 C 
ATOM     21  C   UNL     1      15.836  42.487  52.928  0.00  0.00    +0.000 A 
ATOM     22  C   UNL     1      16.543  41.362  52.545  0.00  0.00    +0.000 A 
ATOM     23  C   UNL     1      15.909  40.113  52.645  0.00  0.00    +0.000 A 
ATOM     24  C   UNL     1      14.588  40.042  53.137  0.00  0.00    +0.000 A 
ATOM     25  F   UNL     1      13.988  38.848  53.244  0.00  0.00    +0.000 F 
ATOM     26  C   UNL     1      13.878  41.178  53.521  0.00  0.00    +0.000 A 
ATOM     27  C   UNL     1      14.530  42.384  53.404  0.00  0.00    +0.000 A 
ATOM     28  N   UNL     1      14.048  43.644  53.721  0.00  0.00    +0.000 N 
ATOM     29  H   UNL     1      13.132  43.853  54.087  0.00  0.00    +0.000 HD
ENDBRANCH  17  23
ENDBRANCH  16  17
ENDBRANCH   1  16
TORSDOF 3
ENDMDL
MODEL 3
REMARK VINA RESULT:    -6.522      3.208      5.688
REMARK INTER + INTRA:          -8.037
REMARK INTER:                  -7.495
REMARK INTRA:                  -0.542
REMARK UNBOUND:                -0.372
REMARK  Name = 
REMARK  3 active torsions:
REMARK  status: ('A' for Active; 'I' for Inactive)
REMARK    1  A    between atoms: C_6  and  C_7
REMARK    2  A    between atoms: C_7  and  C_8
REMARK    3  A    between atoms: C_8  and  N_9
REMARK                            x       y       z     vdW  Elec       q    Type
REMARK                         _______ _______ _______ _____ _____    ______ ____
ROOT
ATOM      1  N   UNL     1      15.995  38.618  48.257  0.00  0.00    +0.000 NA
ATOM      2  C   UNL     1      14.601  39.082  48.440  0.00  0.00    +0.000 C 
ATOM      3  C   UNL     1      14.410  40.206  49.484  0.00  0.00    +0.000 C 
ATOM      4  N   UNL     1      14.926  39.823  50.824  0.00  0.00    +0.000 N 
ATOM      5  C   UNL     1      15.170  40.880  51.671  0.00  0.00    +0.000 A 
ATOM      6  N   UNL     1      16.394  41.299  51.987  0.00  0.00    +0.000 NA
ATOM      7  S   UNL     1      16.294  42.608  52.983  0.00  0.00    +0.000 S 
ATOM      8  C   UNL     1      14.582  42.663  53.064  0.00  0.00    +0.000 A 
ATOM      9  C   UNL     1      13.752  43.554  53.766  0.00  0.00    +0.000 A 
ATOM     10  C   UNL     1      12.369  43.376  53.687  0.00  0.00    +0.000 A 
ATOM     11  C   UNL     1      11.830  42.338  52.935  0.00  0.00    +0.000 A 
ATOM     12  C   UNL     1      12.668  41.461  52.239  0.00  0.00    +0.000 A 
ATOM     13  C   UNL     1      14.077  41.620  52.284  0.00  0.00    +0.000 A 
ATOM     14  C   UNL     1      15.953  38.754  50.775  0.00  0.00    +0.000 C 
ATOM     15  C   UNL     1      16.793  38.848  49.487  0.00  0.00    +0.000 C 
ENDROOT
BRANCH   1  16
ATOM     16  C   UNL     1      16.667  39.225  47.093  0.00  0.00    +0.000 C 
BRANCH  16  17
ATOM     17  C   UNL     1      15.775  39.312  45.840  0.00  0.00    +0.000 C 
BRANCH  17  23
ATOM     18  O   UNL     1      14.021  46.350  44.757  0.00  0.00    +0.000 OA
ATOM     19  C   UNL     1      14.399  45.191  44.799  0.00  0.00    +0.000 C 
ATOM     20  C   UNL     1      14.079  44.162  45.891  0.00  0.00    +0.000 C 
ATOM     21  C   UNL     1      14.811  42.948  45.403  0.00  0.00    +0.000 A 
ATOM     22  C   UNL     1      14.901  41.686  45.962  0.00  0.00    +0.000 A 
ATOM     23  C   UNL     1      15.658  40.714  45.288  0.00  0.00    +0.000 A 
ATOM     24  C   UNL     1      16.287  41.045  44.069  0.00  0.00    +0.000 A 
ATOM     25  F   UNL     1      16.998  40.112  43.420  0.00  0.00    +0.000 F 
ATOM     26  C   UNL     1      16.196  42.318  43.510  0.00  0.00    +0.000 A 
ATOM     27  C   UNL     1      15.451  43.245  44.201  0.00  0.00    +0.000 A 
ATOM     28  N   UNL     1      15.205  44.565  43.856  0.00  0.00    +0.000 N 
ATOM     29  H   UNL     1      15.547  45.036  43.033  0.00  0.00    +0.000 HD
ENDBRANCH  17  23
ENDBRANCH  16  17
ENDBRANCH   1  16
TORSDOF 3
ENDMDL
