MODEL 1
REMARK VINA RESULT:    -6.391      0.000      0.000
REMARK INTER + INTRA:          -7.503
REMARK INTER:                  -6.762
REMARK INTRA:                  -0.741
REMARK UNBOUND:                -0.739
REMARK  Name = 
REMARK  1 active torsions:
REMARK  status: ('A' for Active; 'I' for Inactive)
REMARK    1  A    between atoms: C_4  and  C_5
REMARK                            x       y       z     vdW  Elec       q    Type
REMARK                         _______ _______ _______ _____ _____    ______ ____
ROOT
ATOM      1  C   UNL     1      23.871  33.447  52.478  0.00  0.00    +0.000 A 
ATOM      2  N   UNL     1      24.105  33.227  53.783  0.00  0.00    +0.000 NA
ATOM      3  N   UNL     1      23.099  33.650  54.766  0.00  0.00    +0.000 N 
ATOM      4  C   UNL     1      23.399  33.397  56.055  0.00  0.00    +0.000 A 
ATOM      5  C   UNL     1      22.550  33.767  57.083  0.00  0.00    +0.000 A 
ATOM      6  C   UNL     1      21.370  34.413  56.768  0.00  0.00    +0.000 A 
ATOM      7  C   UNL     1      21.074  34.669  55.431  0.00  0.00    +0.000 A 
ATOM      8  C   UNL     1      21.958  34.280  54.369  0.00  0.00    +0.000 A 
ATOM      9  C   UNL     1      21.752  34.481  52.950  0.00  0.00    +0.000 A 
ATOM     10  C   UNL     1      20.603  35.165  52.510  0.00  0.00    +0.000 A 
ATOM     11  C   UNL     1      20.326  35.386  51.167  0.00  0.00    +0.000 A 
ATOM     12  C   UNL     1      21.164  34.895  50.180  0.00  0.00    +0.000 A 
ATOM     13  C   UNL     1      20.801  35.114  48.839  0.00  0.00    +0.000 A 
ATOM     14  C   UNL     1      21.565  34.611  47.797  0.00  0.00    +0.000 A 
ATOM     15  C   UNL     1      22.690  33.867  48.092  0.00  0.00    +0.000 A 
ATOM     16  C   UNL     1      23.056  33.652  49.428  0.00  0.00    +0.000 A 
ATOM     17  C   UNL     1      22.336  34.180  50.537  0.00  0.00    +0.000 A 
ATOM     18  C   UNL     1      22.678  34.021  51.961  0.00  0.00    +0.000 A 
ENDROOT
BRANCH   1  22
ATOM     19  C   UNL     1      27.413  32.431  50.297  0.00  0.00    +0.000 A 
ATOM     20  C   UNL     1      27.142  33.763  50.604  0.00  0.00    +0.000 A 
ATOM     21  C   UNL     1      25.984  34.097  51.308  0.00  0.00    +0.000 A 
ATOM     22  C   UNL     1      25.071  33.101  51.703  0.00  0.00    +0.000 A 
ATOM     23  C   UNL     1      25.370  31.761  51.400  0.00  0.00    +0.000 A 
ATOM     24  C   UNL     1      26.530  31.431  50.696  0.00  0.00    +0.000 A 
ENDBRANCH   1  22
TORSDOF 1
ENDMDL
MODEL 2
REMARK VINA RESULT:    -6.375      1.778      6.448
REMARK INTER + INTRA:          -7.487
REMARK INTER:                  -6.746
REMARK INTRA:                  -0.741
REMARK UNBOUND:                -0.739
REMARK  Name = 
REMARK  1 active torsions:
REMARK  status: ('A' for Active; 'I' for Inactive)
REMARK    1  A    between atoms: C_4  and  C_5
REMARK                            x       y       z     vdW  Elec       q    Type
REMARK                         _______ _______ _______ _____ _____    ______ ____
ROOT
ATOM      1  C   UNL     1      21.846  34.203  51.487  0.00  0.00    +0.000 A 
ATOM      2  N   UNL     1      22.373  33.876  50.295  0.00  0.00    +0.000 NA
ATOM      3  N   UNL     1      23.717  33.288  50.250  0.00  0.00    +0.000 N 
ATOM      4  C   UNL     1      24.181  32.984  49.022  0.00  0.00    +0.000 A 
ATOM      5  C   UNL     1      25.443  32.447  48.836  0.00  0.00    +0.000 A 
ATOM      6  C   UNL     1      26.238  32.225  49.943  0.00  0.00    +0.000 A 
ATOM      7  C   UNL     1      25.745  32.544  51.207  0.00  0.00    +0.000 A 
ATOM      8  C   UNL     1      24.434  33.098  51.393  0.00  0.00    +0.000 A 
ATOM      9  C   UNL     1      23.813  33.457  52.651  0.00  0.00    +0.000 A 
ATOM     10  C   UNL     1      24.542  33.312  53.846  0.00  0.00    +0.000 A 
ATOM     11  C   UNL     1      24.014  33.621  55.093  0.00  0.00    +0.000 A 
ATOM     12  C   UNL     1      22.705  34.052  55.221  0.00  0.00    +0.000 A 
ATOM     13  C   UNL     1      22.219  34.303  56.517  0.00  0.00    +0.000 A 
ATOM     14  C   UNL     1      20.905  34.692  56.727  0.00  0.00    +0.000 A 
ATOM     15  C   UNL     1      20.061  34.814  55.640  0.00  0.00    +0.000 A 
ATOM     16  C   UNL     1      20.546  34.569  54.349  0.00  0.00    +0.000 A 
ATOM     17  C   UNL     1      21.895  34.210  54.068  0.00  0.00    +0.000 A 
ATOM     18  C   UNL     1      22.480  33.969  52.737  0.00  0.00    +0.000 A 
ENDROOT
BRANCH   1  22
ATOM     19  C   UNL     1      18.179  36.304  50.797  0.00  0.00    +0.000 A 
ATOM     20  C   UNL     1      19.344  37.013  51.081  0.00  0.00    +0.000 A 
ATOM     21  C   UNL     1      20.539  36.329  51.314  0.00  0.00    +0.000 A 
ATOM     22  C   UNL     1      20.581  34.922  51.280  0.00  0.00    +0.000 A 
ATOM     23  C   UNL     1      19.398  34.225  50.974  0.00  0.00    +0.000 A 
ATOM     24  C   UNL     1      18.205  34.913  50.742  0.00  0.00    +0.000 A 
ENDBRANCH   1  22
TORSDOF 1
ENDMDL
MODEL 3
REMARK VINA RESULT:    -6.178     13.118     16.567
REMARK INTER + INTRA:          -7.278
REMARK INTER:                  -6.539
REMARK INTRA:                  -0.739
REMARK UNBOUND:                -0.739
REMARK  Name = 
REMARK  1 active torsions:
REMARK  status: ('A' for Active; 'I' for Inactive)
REMARK    1  A    between atoms: C_4  and  C_5
REMARK                            x       y       z     vdW  Elec       q    Type
REMARK                         _______ _______ _______ _____ _____    ______ ____
ROOT
ATOM      1  C   UNL     1      13.781  43.895  42.444  0.00  0.00    +0.000 A 
ATOM      2  N   UNL     1      13.155  45.081  42.523  0.00  0.00    +0.000 NA
ATOM      3  N   UNL     1      13.015  45.724  43.836  0.00  0.00    +0.000 N 
ATOM      4  C   UNL     1      12.379  46.911  43.840  0.00  0.00    +0.000 A 
ATOM      5  C   UNL     1      12.156  47.611  45.013  0.00  0.00    +0.000 A 
ATOM      6  C   UNL     1      12.601  47.068  46.203  0.00  0.00    +0.000 A 
ATOM      7  C   UNL     1      13.257  45.839  46.184  0.00  0.00    +0.000 A 
ATOM      8  C   UNL     1      13.486  45.120  44.963  0.00  0.00    +0.000 A 
ATOM      9  C   UNL     1      14.162  43.847  44.818  0.00  0.00    +0.000 A 
ATOM     10  C   UNL     1      14.625  43.177  45.966  0.00  0.00    +0.000 A 
ATOM     11  C   UNL     1      15.295  41.961  45.911  0.00  0.00    +0.000 A 
ATOM     12  C   UNL     1      15.581  41.365  44.695  0.00  0.00    +0.000 A 
ATOM     13  C   UNL     1      16.302  40.158  44.708  0.00  0.00    +0.000 A 
ATOM     14  C   UNL     1      16.667  39.526  43.528  0.00  0.00    +0.000 A 
ATOM     15  C   UNL     1      16.327  40.112  42.324  0.00  0.00    +0.000 A 
ATOM     16  C   UNL     1      15.604  41.312  42.310  0.00  0.00    +0.000 A 
ATOM     17  C   UNL     1      15.165  41.982  43.488  0.00  0.00    +0.000 A 
ATOM     18  C   UNL     1      14.377  43.226  43.547  0.00  0.00    +0.000 A 
ENDROOT
BRANCH   1  22
ATOM     19  C   UNL     1      13.356  42.424  38.445  0.00  0.00    +0.000 A 
ATOM     20  C   UNL     1      12.524  41.946  39.454  0.00  0.00    +0.000 A 
ATOM     21  C   UNL     1      12.666  42.418  40.760  0.00  0.00    +0.000 A 
ATOM     22  C   UNL     1      13.656  43.368  41.078  0.00  0.00    +0.000 A 
ATOM     23  C   UNL     1      14.475  43.852  40.042  0.00  0.00    +0.000 A 
ATOM     24  C   UNL     1      14.330  43.377  38.736  0.00  0.00    +0.000 A 
ENDBRANCH   1  22
TORSDOF 1
ENDMDL
