MODEL 1
REMARK VINA RESULT:    -7.633      0.000      0.000
REMARK INTER + INTRA:         -10.548
REMARK INTER:                  -9.358
REMARK INTRA:                  -1.189
REMARK UNBOUND:                -1.130
REMARK  Name = 
REMARK  4 active torsions:
REMARK  status: ('A' for Active; 'I' for Inactive)
REMARK    1  A    between atoms: C_5  and  N_6
REMARK    2  A    between atoms: N_17  and  C_18
REMARK    3  A    between atoms: C_18  and  C_19
REMARK    4  A    between atoms: C_19  and  C_20
REMARK                            x       y       z     vdW  Elec       q    Type
REMARK                         _______ _______ _______ _____ _____    ______ ____
ROOT
ATOM      1  N   UNL     1      15.589  41.444  53.718  0.00  0.00    +0.000 N 
ATOM      2  C   UNL     1      15.950  40.687  52.621  0.00  0.00    +0.000 A 
ATOM      3  C   UNL     1      16.547  39.514  53.045  0.00  0.00    +0.000 A 
ATOM      4  C   UNL     1      16.573  39.542  54.463  0.00  0.00    +0.000 A 
ATOM      5  C   UNL     1      17.050  38.643  55.438  0.00  0.00    +0.000 A 
ATOM      6  C   UNL     1      16.963  38.989  56.784  0.00  0.00    +0.000 A 
ATOM      7  F   UNL     1      17.423  38.135  57.710  0.00  0.00    +0.000 F 
ATOM      8  C   UNL     1      16.429  40.202  57.184  0.00  0.00    +0.000 A 
ATOM      9  C   UNL     1      15.943  41.106  56.238  0.00  0.00    +0.000 A 
ATOM     10  C   UNL     1      15.988  40.753  54.871  0.00  0.00    +0.000 A 
ATOM     11  C   UNL     1      17.000  38.424  52.118  0.00  0.00    +0.000 C 
ATOM     12  N   UNL     1      17.057  38.930  50.732  0.00  0.00    +0.000 NA
ATOM     13  C   UNL     1      15.837  39.668  50.353  0.00  0.00    +0.000 C 
ATOM     14  C   UNL     1      15.689  40.974  51.175  0.00  0.00    +0.000 C 
ENDROOT
BRANCH   1  19
ATOM     15  F   UNL     1      12.943  46.323  53.628  0.00  0.00    +0.000 F 
ATOM     16  C   UNL     1      13.580  45.146  53.648  0.00  0.00    +0.000 A 
ATOM     17  C   UNL     1      12.853  43.977  53.845  0.00  0.00    +0.000 A 
ATOM     18  C   UNL     1      13.515  42.747  53.869  0.00  0.00    +0.000 A 
ATOM     19  C   UNL     1      14.904  42.695  53.689  0.00  0.00    +0.000 A 
ATOM     20  C   UNL     1      15.624  43.883  53.490  0.00  0.00    +0.000 A 
ATOM     21  C   UNL     1      14.957  45.110  53.471  0.00  0.00    +0.000 A 
ENDBRANCH   1  19
BRANCH  12  22
ATOM     22  C   UNL     1      17.431  37.882  49.765  0.00  0.00    +0.000 C 
BRANCH  22  23
ATOM     23  C   UNL     1      17.751  36.487  50.338  0.00  0.00    +0.000 C 
BRANCH  23  24
ATOM     24  C   UNL     1      19.217  36.118  50.282  0.00  0.00    +0.000 A 
ATOM     25  C   UNL     1      20.042  36.447  51.354  0.00  0.00    +0.000 A 
ATOM     26  C   UNL     1      21.392  36.123  51.286  0.00  0.00    +0.000 A 
ATOM     27  C   UNL     1      21.896  35.484  50.148  0.00  0.00    +0.000 A 
ATOM     28  C   UNL     1      23.254  35.137  50.032  0.00  0.00    +0.000 A 
ATOM     29  C   UNL     1      23.723  34.501  48.884  0.00  0.00    +0.000 A 
ATOM     30  C   UNL     1      22.840  34.212  47.849  0.00  0.00    +0.000 A 
ATOM     31  C   UNL     1      21.491  34.561  47.968  0.00  0.00    +0.000 A 
ATOM     32  C   UNL     1      20.997  35.194  49.102  0.00  0.00    +0.000 A 
ATOM     33  N   UNL     1      19.690  35.509  49.168  0.00  0.00    +0.000 NA
ENDBRANCH  23  24
ENDBRANCH  22  23
ENDBRANCH  12  22
TORSDOF 4
ENDMDL
MODEL 2
REMARK VINA RESULT:    -7.498      4.565      7.964
REMARK INTER + INTRA:         -10.382
REMARK INTER:                  -9.279
REMARK INTRA:                  -1.103
REMARK UNBOUND:                -1.130
REMARK  Name = 
REMARK  4 active torsions:
REMARK  status: ('A' for Active; 'I' for Inactive)
REMARK    1  A    between atoms: C_5  and  N_6
REMARK    2  A    between atoms: N_17  and  C_18
REMARK    3  A    between atoms: C_18  and  C_19
REMARK    4  A    between atoms: C_19  and  C_20
REMARK                            x       y       z     vdW  Elec       q    Type
REMARK                         _______ _______ _______ _____ _____    ______ ____
ROOT
ATOM      1  N   UNL     1      18.269  37.553  50.937  0.00  0.00    +0.000 N 
ATOM      2  C   UNL     1      17.477  37.581  49.805  0.00  0.00    +0.000 A 
ATOM      3  C   UNL     1      18.041  36.782  48.827  0.00  0.00    +0.000 A 
ATOM      4  C   UNL     1      19.240  36.243  49.361  0.00  0.00    +0.000 A 
ATOM      5  C   UNL     1      20.224  35.377  48.843  0.00  0.00    +0.000 A 
ATOM      6  C   UNL     1      21.332  35.061  49.625  0.00  0.00    +0.000 A 
ATOM      7  F   UNL     1      22.270  34.242  49.128  0.00  0.00    +0.000 F 
ATOM      8  C   UNL     1      21.493  35.587  50.895  0.00  0.00    +0.000 A 
ATOM      9  C   UNL     1      20.528  36.441  51.433  0.00  0.00    +0.000 A 
ATOM     10  C   UNL     1      19.379  36.741  50.667  0.00  0.00    +0.000 A 
ATOM     11  C   UNL     1      17.410  36.526  47.490  0.00  0.00    +0.000 C 
ATOM     12  N   UNL     1      16.334  37.507  47.242  0.00  0.00    +0.000 NA
ATOM     13  C   UNL     1      15.427  37.650  48.396  0.00  0.00    +0.000 C 
ATOM     14  C   UNL     1      16.158  38.263  49.617  0.00  0.00    +0.000 C 
ENDROOT
BRANCH   1  19
ATOM     15  F   UNL     1      17.229  40.122  55.746  0.00  0.00    +0.000 F 
ATOM     16  C   UNL     1      17.478  39.502  54.586  0.00  0.00    +0.000 A 
ATOM     17  C   UNL     1      17.206  38.144  54.463  0.00  0.00    +0.000 A 
ATOM     18  C   UNL     1      17.467  37.494  53.254  0.00  0.00    +0.000 A 
ATOM     19  C   UNL     1      17.994  38.211  52.172  0.00  0.00    +0.000 A 
ATOM     20  C   UNL     1      18.262  39.582  52.310  0.00  0.00    +0.000 A 
ATOM     21  C   UNL     1      18.003  40.226  53.523  0.00  0.00    +0.000 A 
ENDBRANCH   1  19
BRANCH  12  22
ATOM     22  C   UNL     1      15.630  37.262  45.970  0.00  0.00    +0.000 C 
BRANCH  22  23
ATOM     23  C   UNL     1      16.431  37.495  44.674  0.00  0.00    +0.000 C 
BRANCH  23  24
ATOM     24  C   UNL     1      16.387  38.921  44.170  0.00  0.00    +0.000 A 
ATOM     25  C   UNL     1      16.958  39.224  42.937  0.00  0.00    +0.000 A 
ATOM     26  C   UNL     1      16.932  40.541  42.491  0.00  0.00    +0.000 A 
ATOM     27  C   UNL     1      16.343  41.531  43.284  0.00  0.00    +0.000 A 
ATOM     28  C   UNL     1      16.292  42.876  42.875  0.00  0.00    +0.000 A 
ATOM     29  C   UNL     1      15.698  43.838  43.691  0.00  0.00    +0.000 A 
ATOM     30  C   UNL     1      15.155  43.460  44.914  0.00  0.00    +0.000 A 
ATOM     31  C   UNL     1      15.210  42.122  45.317  0.00  0.00    +0.000 A 
ATOM     32  C   UNL     1      15.795  41.143  44.524  0.00  0.00    +0.000 A 
ATOM     33  N   UNL     1      15.822  39.869  44.956  0.00  0.00    +0.000 NA
ENDBRANCH  23  24
ENDBRANCH  22  23
ENDBRANCH  12  22
TORSDOF 4
ENDMDL
MODEL 3
REMARK VINA RESULT:    -7.384      4.399      8.652
REMARK INTER + INTRA:         -10.241
REMARK INTER:                  -9.110
REMARK INTRA:                  -1.130
REMARK UNBOUND:                -1.130
REMARK  Name = 
REMARK  4 active torsions:
REMARK  status: ('A' for Active; 'I' for Inactive)
REMARK    1  A    between atoms: C_5  and  N_6
REMARK    2  A    between atoms: N_17  and  C_18
REMARK    3  A    between atoms: C_18  and  C_19
REMARK    4  A    between atoms: C_19  and  C_20
REMARK                            x       y       z     vdW  Elec       q    Type
REMARK                         _______ _______ _______ _____ _____    ______ ____
ROOT
ATOM      1  N   UNL     1      18.189  37.690  51.246  0.00  0.00    +0.000 N 
ATOM      2  C   UNL     1      17.631  37.668  49.982  0.00  0.00    +0.000 A 
ATOM      3  C   UNL     1      16.869  38.806  49.795  0.00  0.00    +0.000 A 
ATOM      4  C   UNL     1      16.942  39.566  50.990  0.00  0.00    +0.000 A 
ATOM      5  C   UNL     1      16.383  40.797  51.388  0.00  0.00    +0.000 A 
ATOM      6  C   UNL     1      16.617  41.266  52.678  0.00  0.00    +0.000 A 
ATOM      7  F   UNL     1      16.078  42.434  53.057  0.00  0.00    +0.000 F 
ATOM      8  C   UNL     1      17.378  40.545  53.581  0.00  0.00    +0.000 A 
ATOM      9  C   UNL     1      17.950  39.326  53.209  0.00  0.00    +0.000 A 
ATOM     10  C   UNL     1      17.753  38.855  51.891  0.00  0.00    +0.000 A 
ATOM     11  C   UNL     1      16.174  39.144  48.508  0.00  0.00    +0.000 C 
ATOM     12  N   UNL     1      16.114  37.952  47.637  0.00  0.00    +0.000 NA
ATOM     13  C   UNL     1      17.416  37.264  47.536  0.00  0.00    +0.000 C 
ATOM     14  C   UNL     1      17.841  36.658  48.897  0.00  0.00    +0.000 C 
ENDROOT
BRANCH   1  19
ATOM     15  F   UNL     1      21.638  33.907  53.394  0.00  0.00    +0.000 F 
ATOM     16  C   UNL     1      20.806  34.819  52.874  0.00  0.00    +0.000 A 
ATOM     17  C   UNL     1      21.261  35.666  51.870  0.00  0.00    +0.000 A 
ATOM     18  C   UNL     1      20.396  36.620  51.328  0.00  0.00    +0.000 A 
ATOM     19  C   UNL     1      19.076  36.715  51.791  0.00  0.00    +0.000 A 
ATOM     20  C   UNL     1      18.631  35.851  52.804  0.00  0.00    +0.000 A 
ATOM     21  C   UNL     1      19.502  34.902  53.346  0.00  0.00    +0.000 A 
ENDBRANCH   1  19
BRANCH  12  22
ATOM     22  C   UNL     1      15.500  38.241  46.328  0.00  0.00    +0.000 C 
BRANCH  22  23
ATOM     23  C   UNL     1      16.442  38.727  45.210  0.00  0.00    +0.000 C 
BRANCH  23  24
ATOM     24  C   UNL     1      16.135  40.122  44.708  0.00  0.00    +0.000 A 
ATOM     25  C   UNL     1      16.566  40.497  43.439  0.00  0.00    +0.000 A 
ATOM     26  C   UNL     1      16.298  41.787  42.994  0.00  0.00    +0.000 A 
ATOM     27  C   UNL     1      15.613  42.680  43.824  0.00  0.00    +0.000 A 
ATOM     28  C   UNL     1      15.319  43.994  43.419  0.00  0.00    +0.000 A 
ATOM     29  C   UNL     1      14.634  44.858  44.272  0.00  0.00    +0.000 A 
ATOM     30  C   UNL     1      14.243  44.413  45.530  0.00  0.00    +0.000 A 
ATOM     31  C   UNL     1      14.538  43.106  45.930  0.00  0.00    +0.000 A 
ATOM     32  C   UNL     1      15.219  42.224  45.099  0.00  0.00    +0.000 A 
ATOM     33  N   UNL     1      15.479  40.976  45.530  0.00  0.00    +0.000 NA
ENDBRANCH  23  24
ENDBRANCH  22  23
ENDBRANCH  12  22
TORSDOF 4
ENDMDL
