MODEL 1
REMARK VINA RESULT:    -6.971      0.000      0.000
REMARK INTER + INTRA:         -11.720
REMARK INTER:                  -9.181
REMARK INTRA:                  -2.538
REMARK UNBOUND:                -1.693
REMARK  Name = 
REMARK  8 active torsions:
REMARK  status: ('A' for Active; 'I' for Inactive)
REMARK    1  A    between atoms: C_2  and  C_19
REMARK    2  A    between atoms: N_3  and  C_4
REMARK    3  A    between atoms: C_4  and  C_5
REMARK    4  A    between atoms: C_4  and  C_12
REMARK    5  A    between atoms: C_5  and  C_6
REMARK    6  A    between atoms: C_16  and  O_17
REMARK    7  A    between atoms: C_19  and  C_20
REMARK    8  A    between atoms: C_19  and  C_26
REMARK                            x       y       z     vdW  Elec       q    Type
REMARK                         _______ _______ _______ _____ _____    ______ ____
ROOT
ATOM      1  O   UNL     1      13.291  38.918  54.797  0.00  0.00    +0.000 OA
ATOM      2  C   UNL     1      14.026  39.793  54.347  0.00  0.00    +0.000 C 
ATOM      3  N   UNL     1      15.228  40.119  54.955  0.00  0.00    +0.000 N 
ATOM      4  H   UNL     1      15.873  40.719  54.455  0.00  0.00    +0.000 HD
ENDROOT
BRANCH   3   5
ATOM      5  C   UNL     1      15.729  39.384  56.110  0.00  0.00    +0.000 C 
BRANCH   5   6
ATOM      6  C   UNL     1      15.729  40.303  57.322  0.00  0.00    +0.000 A 
ATOM      7  C   UNL     1      14.539  40.514  58.039  0.00  0.00    +0.000 A 
ATOM      8  C   UNL     1      14.518  41.353  59.156  0.00  0.00    +0.000 A 
ATOM      9  C   UNL     1      15.683  41.995  59.572  0.00  0.00    +0.000 A 
ATOM     10  C   UNL     1      16.863  41.791  58.865  0.00  0.00    +0.000 A 
ATOM     11  C   UNL     1      16.895  40.957  57.753  0.00  0.00    +0.000 A 
BRANCH  10  12
ATOM     12  O   UNL     1      18.026  42.397  59.236  0.00  0.00    +0.000 OA
ATOM     13  H   UNL     1      18.000  42.558  60.193  0.00  0.00    +0.000 HD
ENDBRANCH  10  12
ENDBRANCH   5   6
BRANCH   5  14
ATOM     14  C   UNL     1      17.118  38.761  55.827  0.00  0.00    +0.000 C 
BRANCH  14  15
ATOM     15  C   UNL     1      17.460  38.717  54.355  0.00  0.00    +0.000 A 
ATOM     16  C   UNL     1      17.877  39.871  53.681  0.00  0.00    +0.000 A 
ATOM     17  C   UNL     1      18.213  39.816  52.328  0.00  0.00    +0.000 A 
ATOM     18  C   UNL     1      18.137  38.608  51.637  0.00  0.00    +0.000 A 
ATOM     19  C   UNL     1      17.726  37.453  52.299  0.00  0.00    +0.000 A 
ATOM     20  C   UNL     1      17.390  37.506  53.652  0.00  0.00    +0.000 A 
ENDBRANCH  14  15
ENDBRANCH   5  14
ENDBRANCH   3   5
BRANCH   2  21
ATOM     21  C   UNL     1      13.733  40.628  53.081  0.00  0.00    +0.000 C 
BRANCH  21  22
ATOM     22  C   UNL     1      14.175  39.976  51.773  0.00  0.00    +0.000 A 
ATOM     23  C   UNL     1      14.430  40.733  50.618  0.00  0.00    +0.000 A 
ATOM     24  C   UNL     1      14.806  40.111  49.426  0.00  0.00    +0.000 A 
ATOM     25  C   UNL     1      14.931  38.725  49.367  0.00  0.00    +0.000 A 
ATOM     26  C   UNL     1      14.679  37.959  50.502  0.00  0.00    +0.000 A 
ATOM     27  C   UNL     1      14.302  38.578  51.696  0.00  0.00    +0.000 A 
ENDBRANCH  21  22
BRANCH  21  28
ATOM     28  C   UNL     1      14.227  42.070  53.209  0.00  0.00    +0.000 A 
ATOM     29  C   UNL     1      13.331  43.079  53.599  0.00  0.00    +0.000 A 
ATOM     30  C   UNL     1      13.760  44.402  53.722  0.00  0.00    +0.000 A 
ATOM     31  C   UNL     1      15.085  44.735  53.450  0.00  0.00    +0.000 A 
ATOM     32  C   UNL     1      15.982  43.748  53.049  0.00  0.00    +0.000 A 
ATOM     33  C   UNL     1      15.555  42.424  52.924  0.00  0.00    +0.000 A 
ENDBRANCH  21  28
ENDBRANCH   2  21
TORSDOF 8
ENDMDL
MODEL 2
REMARK VINA RESULT:    -6.966      2.912      7.210
REMARK INTER + INTRA:         -11.712
REMARK INTER:                 -10.020
REMARK INTRA:                  -1.693
REMARK UNBOUND:                -1.693
REMARK  Name = 
REMARK  8 active torsions:
REMARK  status: ('A' for Active; 'I' for Inactive)
REMARK    1  A    between atoms: C_2  and  C_19
REMARK    2  A    between atoms: N_3  and  C_4
REMARK    3  A    between atoms: C_4  and  C_5
REMARK    4  A    between atoms: C_4  and  C_12
REMARK    5  A    between atoms: C_5  and  C_6
REMARK    6  A    between atoms: C_16  and  O_17
REMARK    7  A    between atoms: C_19  and  C_20
REMARK    8  A    between atoms: C_19  and  C_26
REMARK                            x       y       z     vdW  Elec       q    Type
REMARK                         _______ _______ _______ _____ _____    ______ ____
ROOT
ATOM      1  O   UNL     1      18.015  40.237  51.748  0.00  0.00    +0.000 OA
ATOM      2  C   UNL     1      16.895  39.747  51.860  0.00  0.00    +0.000 C 
ATOM      3  N   UNL     1      16.384  38.870  50.917  0.00  0.00    +0.000 N 
ATOM      4  H   UNL     1      15.536  38.364  51.139  0.00  0.00    +0.000 HD
ENDROOT
BRANCH   3   5
ATOM      5  C   UNL     1      17.181  38.410  49.785  0.00  0.00    +0.000 C 
BRANCH   5   6
ATOM      6  C   UNL     1      16.537  38.895  48.495  0.00  0.00    +0.000 A 
ATOM      7  C   UNL     1      17.203  38.718  47.271  0.00  0.00    +0.000 A 
ATOM      8  C   UNL     1      16.628  39.155  46.076  0.00  0.00    +0.000 A 
ATOM      9  C   UNL     1      15.382  39.778  46.083  0.00  0.00    +0.000 A 
ATOM     10  C   UNL     1      14.718  39.958  47.293  0.00  0.00    +0.000 A 
ATOM     11  C   UNL     1      15.281  39.525  48.488  0.00  0.00    +0.000 A 
BRANCH  10  12
ATOM     12  O   UNL     1      13.497  40.561  47.349  0.00  0.00    +0.000 OA
ATOM     13  H   UNL     1      12.925  40.165  46.672  0.00  0.00    +0.000 HD
ENDBRANCH  10  12
ENDBRANCH   5   6
BRANCH   5  14
ATOM     14  C   UNL     1      17.381  36.875  49.818  0.00  0.00    +0.000 C 
BRANCH  14  15
ATOM     15  C   UNL     1      18.808  36.468  50.107  0.00  0.00    +0.000 A 
ATOM     16  C   UNL     1      19.523  35.671  49.204  0.00  0.00    +0.000 A 
ATOM     17  C   UNL     1      20.847  35.319  49.469  0.00  0.00    +0.000 A 
ATOM     18  C   UNL     1      21.468  35.762  50.635  0.00  0.00    +0.000 A 
ATOM     19  C   UNL     1      20.767  36.557  51.539  0.00  0.00    +0.000 A 
ATOM     20  C   UNL     1      19.443  36.911  51.276  0.00  0.00    +0.000 A 
ENDBRANCH  14  15
ENDBRANCH   5  14
ENDBRANCH   3   5
BRANCH   2  21
ATOM     21  C   UNL     1      15.923  40.024  53.029  0.00  0.00    +0.000 C 
BRANCH  21  22
ATOM     22  C   UNL     1      15.478  41.478  53.155  0.00  0.00    +0.000 A 
ATOM     23  C   UNL     1      16.362  42.546  52.931  0.00  0.00    +0.000 A 
ATOM     24  C   UNL     1      15.938  43.868  53.080  0.00  0.00    +0.000 A 
ATOM     25  C   UNL     1      14.626  44.144  53.459  0.00  0.00    +0.000 A 
ATOM     26  C   UNL     1      13.737  43.098  53.689  0.00  0.00    +0.000 A 
ATOM     27  C   UNL     1      14.159  41.775  53.541  0.00  0.00    +0.000 A 
ENDBRANCH  21  22
BRANCH  21  28
ATOM     28  C   UNL     1      16.432  39.454  54.355  0.00  0.00    +0.000 A 
ATOM     29  C   UNL     1      16.421  40.258  55.506  0.00  0.00    +0.000 A 
ATOM     30  C   UNL     1      16.881  39.759  56.727  0.00  0.00    +0.000 A 
ATOM     31  C   UNL     1      17.365  38.455  56.810  0.00  0.00    +0.000 A 
ATOM     32  C   UNL     1      17.396  37.651  55.674  0.00  0.00    +0.000 A 
ATOM     33  C   UNL     1      16.937  38.148  54.452  0.00  0.00    +0.000 A 
ENDBRANCH  21  28
ENDBRANCH   2  21
TORSDOF 8
ENDMDL
MODEL 3
REMARK VINA RESULT:    -6.953      8.077     10.785
REMARK INTER + INTRA:         -11.694
REMARK INTER:                  -9.891
REMARK INTRA:                  -1.803
REMARK UNBOUND:                -1.693
REMARK  Name = 
REMARK  8 active torsions:
REMARK  status: ('A' for Active; 'I' for Inactive)
REMARK    1  A    between atoms: C_2  and  C_19
REMARK    2  A    between atoms: N_3  and  C_4
REMARK    3  A    between atoms: C_4  and  C_5
REMARK    4  A    between atoms: C_4  and  C_12
REMARK    5  A    between atoms: C_5  and  C_6
REMARK    6  A    between atoms: C_16  and  O_17
REMARK    7  A    between atoms: C_19  and  C_20
REMARK    8  A    between atoms: C_19  and  C_26
REMARK                            x       y       z     vdW  Elec       q    Type
REMARK                         _______ _______ _______ _____ _____    ______ ____
ROOT
ATOM      1  O   UNL     1      22.471  31.972  50.351  0.00  0.00    +0.000 OA
ATOM      2  C   UNL     1      22.553  33.197  50.339  0.00  0.00    +0.000 C 
ATOM      3  N   UNL     1      23.228  33.892  51.330  0.00  0.00    +0.000 N 
ATOM      4  H   UNL     1      23.415  34.877  51.186  0.00  0.00    +0.000 HD
ENDROOT
BRANCH   3   5
ATOM      5  C   UNL     1      23.951  33.205  52.394  0.00  0.00    +0.000 C 
BRANCH   5   6
ATOM      6  C   UNL     1      23.344  33.588  53.735  0.00  0.00    +0.000 A 
ATOM      7  C   UNL     1      22.005  34.006  53.803  0.00  0.00    +0.000 A 
ATOM      8  C   UNL     1      21.428  34.360  55.025  0.00  0.00    +0.000 A 
ATOM      9  C   UNL     1      22.180  34.305  56.197  0.00  0.00    +0.000 A 
ATOM     10  C   UNL     1      23.507  33.893  56.135  0.00  0.00    +0.000 A 
ATOM     11  C   UNL     1      24.090  33.537  54.925  0.00  0.00    +0.000 A 
BRANCH  10  12
ATOM     12  O   UNL     1      24.280  33.823  57.256  0.00  0.00    +0.000 OA
ATOM     13  H   UNL     1      24.210  34.666  57.733  0.00  0.00    +0.000 HD
ENDBRANCH  10  12
ENDBRANCH   5   6
BRANCH   5  14
ATOM     14  C   UNL     1      25.472  33.486  52.319  0.00  0.00    +0.000 C 
BRANCH  14  15
ATOM     15  C   UNL     1      26.141  32.823  51.137  0.00  0.00    +0.000 A 
ATOM     16  C   UNL     1      27.030  33.537  50.323  0.00  0.00    +0.000 A 
ATOM     17  C   UNL     1      27.659  32.911  49.247  0.00  0.00    +0.000 A 
ATOM     18  C   UNL     1      27.409  31.567  48.975  0.00  0.00    +0.000 A 
ATOM     19  C   UNL     1      26.528  30.847  49.779  0.00  0.00    +0.000 A 
ATOM     20  C   UNL     1      25.897  31.471  50.857  0.00  0.00    +0.000 A 
ENDBRANCH  14  15
ENDBRANCH   5  14
ENDBRANCH   3   5
BRANCH   2  21
ATOM     21  C   UNL     1      21.943  34.113  49.255  0.00  0.00    +0.000 C 
BRANCH  21  22
ATOM     22  C   UNL     1      22.963  34.765  48.325  0.00  0.00    +0.000 A 
ATOM     23  C   UNL     1      24.242  35.136  48.772  0.00  0.00    +0.000 A 
ATOM     24  C   UNL     1      25.148  35.756  47.909  0.00  0.00    +0.000 A 
ATOM     25  C   UNL     1      24.790  36.020  46.589  0.00  0.00    +0.000 A 
ATOM     26  C   UNL     1      23.525  35.662  46.130  0.00  0.00    +0.000 A 
ATOM     27  C   UNL     1      22.617  35.042  46.991  0.00  0.00    +0.000 A 
ENDBRANCH  21  22
BRANCH  21  28
ATOM     28  C   UNL     1      20.958  35.127  49.839  0.00  0.00    +0.000 A 
ATOM     29  C   UNL     1      19.705  35.309  49.231  0.00  0.00    +0.000 A 
ATOM     30  C   UNL     1      18.790  36.229  49.747  0.00  0.00    +0.000 A 
ATOM     31  C   UNL     1      19.118  36.984  50.871  0.00  0.00    +0.000 A 
ATOM     32  C   UNL     1      20.361  36.826  51.477  0.00  0.00    +0.000 A 
ATOM     33  C   UNL     1      21.278  35.907  50.962  0.00  0.00    +0.000 A 
ENDBRANCH  21  28
ENDBRANCH   2  21
TORSDOF 8
ENDMDL
