MODEL 1
REMARK VINA RESULT:    -6.711      0.000      0.000
REMARK INTER + INTRA:          -8.435
REMARK INTER:                  -7.745
REMARK INTRA:                  -0.691
REMARK UNBOUND:                -0.940
REMARK  Name = 
REMARK  4 active torsions:
REMARK  status: ('A' for Active; 'I' for Inactive)
REMARK    1  A    between atoms: C_1  and  C_2
REMARK    2  A    between atoms: C_8  and  C_9
REMARK    3  A    between atoms: C_9  and  C_10
REMARK    4  A    between atoms: C_22  and  C_23
REMARK                            x       y       z     vdW  Elec       q    Type
REMARK                         _______ _______ _______ _____ _____    ______ ____
ROOT
ATOM      1  C   UNL     1      17.398  38.352  48.996  0.00  0.00    +0.000 C 
ATOM      2  C   UNL     1      17.045  37.437  50.183  0.00  0.00    +0.000 C 
ATOM      3  C   UNL     1      16.608  36.052  49.721  0.00  0.00    +0.000 C 
ATOM      4  C   UNL     1      17.791  35.299  49.090  0.00  0.00    +0.000 C 
ATOM      5  C   UNL     1      19.066  35.250  49.980  0.00  0.00    +0.000 C 
ATOM      6  C   UNL     1      19.422  36.615  50.638  0.00  0.00    +0.000 C 
ATOM      7  C   UNL     1      20.493  36.440  51.738  0.00  0.00    +0.000 C 
ATOM      8  C   UNL     1      21.522  35.316  51.496  0.00  0.00    +0.000 C 
ATOM      9  C   UNL     1      21.616  34.977  50.016  0.00  0.00    +0.000 C 
ATOM     10  C   UNL     1      22.807  35.092  49.398  0.00  0.00    +0.000 C 
ATOM     11  C   UNL     1      22.970  34.859  47.946  0.00  0.00    +0.000 C 
ATOM     12  O   UNL     1      24.101  34.836  47.465  0.00  0.00    +0.000 OA
ATOM     13  C   UNL     1      21.742  34.619  47.110  0.00  0.00    +0.000 C 
ATOM     14  C   UNL     1      20.472  35.108  47.801  0.00  0.00    +0.000 C 
ATOM     15  C   UNL     1      20.324  34.611  49.268  0.00  0.00    +0.000 C 
ATOM     16  C   UNL     1      20.155  33.072  49.251  0.00  0.00    +0.000 C 
ATOM     17  C   UNL     1      18.156  37.243  51.231  0.00  0.00    +0.000 C 
ATOM     18  C   UNL     1      18.246  38.594  51.936  0.00  0.00    +0.000 C 
ATOM     19  C   UNL     1      16.770  38.954  52.162  0.00  0.00    +0.000 C 
ATOM     20  C   UNL     1      16.060  38.206  51.046  0.00  0.00    +0.000 C 
ATOM     21  O   UNL     1      14.852  38.246  50.854  0.00  0.00    +0.000 OA
ENDROOT
BRANCH   8  22
ATOM     22  C   UNL     1      21.274  34.060  52.365  0.00  0.00    +0.000 C 
BRANCH  22  23
ATOM     23  C   UNL     1      22.068  34.044  53.652  0.00  0.00    +0.000 A 
ATOM     24  C   UNL     1      23.394  33.590  53.664  0.00  0.00    +0.000 A 
ATOM     25  C   UNL     1      24.129  33.576  54.850  0.00  0.00    +0.000 A 
ATOM     26  C   UNL     1      23.545  34.013  56.037  0.00  0.00    +0.000 A 
ATOM     27  C   UNL     1      22.225  34.461  56.039  0.00  0.00    +0.000 A 
ATOM     28  C   UNL     1      21.489  34.475  54.854  0.00  0.00    +0.000 A 
ENDBRANCH  22  23
ENDBRANCH   8  22
TORSDOF 2
ENDMDL
MODEL 2
REMARK VINA RESULT:    -6.540      8.153     12.815
REMARK INTER + INTRA:          -8.244
REMARK INTER:                  -7.543
REMARK INTRA:                  -0.701
REMARK UNBOUND:                -0.940
REMARK  Name = 
REMARK  4 active torsions:
REMARK  status: ('A' for Active; 'I' for Inactive)
REMARK    1  A    between atoms: C_1  and  C_2
REMARK    2  A    between atoms: C_8  and  C_9
REMARK    3  A    between atoms: C_9  and  C_10
REMARK    4  A    between atoms: C_22  and  C_23
REMARK                            x       y       z     vdW  Elec       q    Type
REMARK                         _______ _______ _______ _____ _____    ______ ____
ROOT
ATOM      1  C   UNL     1      13.711  38.871  46.395  0.00  0.00    +0.000 C 
ATOM      2  C   UNL     1      14.515  39.884  47.231  0.00  0.00    +0.000 C 
ATOM      3  C   UNL     1      15.936  40.050  46.705  0.00  0.00    +0.000 C 
ATOM      4  C   UNL     1      15.922  40.730  45.326  0.00  0.00    +0.000 C 
ATOM      5  C   UNL     1      15.113  42.058  45.275  0.00  0.00    +0.000 C 
ATOM      6  C   UNL     1      13.732  41.977  45.991  0.00  0.00    +0.000 C 
ATOM      7  C   UNL     1      13.121  43.383  46.180  0.00  0.00    +0.000 C 
ATOM      8  C   UNL     1      13.449  44.408  45.073  0.00  0.00    +0.000 C 
ATOM      9  C   UNL     1      13.836  43.706  43.782  0.00  0.00    +0.000 C 
ATOM     10  C   UNL     1      13.119  43.951  42.669  0.00  0.00    +0.000 C 
ATOM     11  C   UNL     1      13.377  43.252  41.391  0.00  0.00    +0.000 C 
ATOM     12  O   UNL     1      12.790  43.620  40.375  0.00  0.00    +0.000 OA
ATOM     13  C   UNL     1      14.384  42.134  41.369  0.00  0.00    +0.000 C 
ATOM     14  C   UNL     1      14.655  41.578  42.764  0.00  0.00    +0.000 C 
ATOM     15  C   UNL     1      14.972  42.671  43.826  0.00  0.00    +0.000 C 
ATOM     16  C   UNL     1      16.308  43.354  43.444  0.00  0.00    +0.000 C 
ATOM     17  C   UNL     1      13.901  41.289  47.351  0.00  0.00    +0.000 C 
ATOM     18  C   UNL     1      12.683  41.091  48.249  0.00  0.00    +0.000 C 
ATOM     19  C   UNL     1      13.231  40.189  49.364  0.00  0.00    +0.000 C 
ATOM     20  C   UNL     1      14.375  39.457  48.682  0.00  0.00    +0.000 C 
ATOM     21  O   UNL     1      15.072  38.613  49.229  0.00  0.00    +0.000 OA
ENDROOT
BRANCH   8  22
ATOM     22  C   UNL     1      14.503  45.457  45.504  0.00  0.00    +0.000 C 
BRANCH  22  23
ATOM     23  C   UNL     1      13.954  46.862  45.615  0.00  0.00    +0.000 A 
ATOM     24  C   UNL     1      12.700  47.091  46.198  0.00  0.00    +0.000 A 
ATOM     25  C   UNL     1      12.193  48.387  46.302  0.00  0.00    +0.000 A 
ATOM     26  C   UNL     1      12.933  49.466  45.824  0.00  0.00    +0.000 A 
ATOM     27  C   UNL     1      14.178  49.250  45.237  0.00  0.00    +0.000 A 
ATOM     28  C   UNL     1      14.686  47.955  45.131  0.00  0.00    +0.000 A 
ENDBRANCH  22  23
ENDBRANCH   8  22
TORSDOF 2
ENDMDL
MODEL 3
REMARK VINA RESULT:    -6.535      8.510     12.811
REMARK INTER + INTRA:          -8.239
REMARK INTER:                  -7.299
REMARK INTRA:                  -0.940
REMARK UNBOUND:                -0.940
REMARK  Name = 
REMARK  4 active torsions:
REMARK  status: ('A' for Active; 'I' for Inactive)
REMARK    1  A    between atoms: C_1  and  C_2
REMARK    2  A    between atoms: C_8  and  C_9
REMARK    3  A    between atoms: C_9  and  C_10
REMARK    4  A    between atoms: C_22  and  C_23
REMARK                            x       y       z     vdW  Elec       q    Type
REMARK                         _______ _______ _______ _____ _____    ______ ____
ROOT
ATOM      1  C   UNL     1      14.502  38.016  43.528  0.00  0.00    +0.000 C 
ATOM      2  C   UNL     1      15.042  38.615  44.840  0.00  0.00    +0.000 C 
ATOM      3  C   UNL     1      16.428  39.224  44.656  0.00  0.00    +0.000 C 
ATOM      4  C   UNL     1      16.352  40.467  43.755  0.00  0.00    +0.000 C 
ATOM      5  C   UNL     1      15.298  41.521  44.204  0.00  0.00    +0.000 C 
ATOM      6  C   UNL     1      13.925  40.901  44.600  0.00  0.00    +0.000 C 
ATOM      7  C   UNL     1      13.036  41.937  45.323  0.00  0.00    +0.000 C 
ATOM      8  C   UNL     1      13.212  43.402  44.868  0.00  0.00    +0.000 C 
ATOM      9  C   UNL     1      13.800  43.467  43.468  0.00  0.00    +0.000 C 
ATOM     10  C   UNL     1      13.109  44.102  42.502  0.00  0.00    +0.000 C 
ATOM     11  C   UNL     1      13.568  44.144  41.097  0.00  0.00    +0.000 C 
ATOM     12  O   UNL     1      12.975  44.858  40.291  0.00  0.00    +0.000 OA
ATOM     13  C   UNL     1      14.779  43.338  40.708  0.00  0.00    +0.000 C 
ATOM     14  C   UNL     1      15.080  42.232  41.715  0.00  0.00    +0.000 C 
ATOM     15  C   UNL     1      15.115  42.721  43.192  0.00  0.00    +0.000 C 
ATOM     16  C   UNL     1      16.307  43.696  43.360  0.00  0.00    +0.000 C 
ATOM     17  C   UNL     1      14.154  39.683  45.502  0.00  0.00    +0.000 C 
ATOM     18  C   UNL     1      12.954  38.901  46.027  0.00  0.00    +0.000 C 
ATOM     19  C   UNL     1      13.611  37.670  46.670  0.00  0.00    +0.000 C 
ATOM     20  C   UNL     1      14.913  37.534  45.898  0.00  0.00    +0.000 C 
ATOM     21  O   UNL     1      15.734  36.647  46.089  0.00  0.00    +0.000 OA
ENDROOT
BRANCH   8  22
ATOM     22  C   UNL     1      14.011  44.264  45.875  0.00  0.00    +0.000 C 
BRANCH  22  23
ATOM     23  C   UNL     1      13.610  45.722  45.881  0.00  0.00    +0.000 A 
ATOM     24  C   UNL     1      14.437  46.690  45.294  0.00  0.00    +0.000 A 
ATOM     25  C   UNL     1      14.067  48.035  45.296  0.00  0.00    +0.000 A 
ATOM     26  C   UNL     1      12.868  48.428  45.887  0.00  0.00    +0.000 A 
ATOM     27  C   UNL     1      12.040  47.476  46.480  0.00  0.00    +0.000 A 
ATOM     28  C   UNL     1      12.409  46.130  46.479  0.00  0.00    +0.000 A 
ENDBRANCH  22  23
ENDBRANCH   8  22
TORSDOF 2
ENDMDL
