MODEL 1
REMARK VINA RESULT:    -6.781      0.000      0.000
REMARK INTER + INTRA:         -11.029
REMARK INTER:                  -9.476
REMARK INTRA:                  -1.553
REMARK UNBOUND:                -1.473
REMARK  Name = 
REMARK  7 active torsions:
REMARK  status: ('A' for Active; 'I' for Inactive)
REMARK    1  A    between atoms: C_2  and  C_3
REMARK    2  A    between atoms: C_3  and  C_4
REMARK    3  A    between atoms: C_4  and  C_5
REMARK    4  A    between atoms: C_4  and  C_11
REMARK    5  A    between atoms: N_17  and  C_18
REMARK    6  A    between atoms: C_20  and  C_21
REMARK    7  A    between atoms: C_26  and  C_27
REMARK                            x       y       z     vdW  Elec       q    Type
REMARK                         _______ _______ _______ _____ _____    ______ ____
ROOT
ATOM      1  O   UNL     1      12.741  41.533  45.297  0.00  0.00    +0.000 OA
ATOM      2  C   UNL     1      13.523  42.327  45.812  0.00  0.00    +0.000 C 
ATOM      3  N   UNL     1      14.851  42.084  46.119  0.00  0.00    +0.000 N 
ATOM      4  H   UNL     1      15.363  42.843  46.550  0.00  0.00    +0.000 HD
ENDROOT
BRANCH   3   5
ATOM      5  C   UNL     1      15.565  40.880  45.949  0.00  0.00    +0.000 A 
ATOM      6  C   UNL     1      15.926  40.533  44.640  0.00  0.00    +0.000 A 
ATOM      7  C   UNL     1      16.631  39.348  44.369  0.00  0.00    +0.000 A 
ATOM      8  C   UNL     1      16.990  38.513  45.436  0.00  0.00    +0.000 A 
ATOM      9  C   UNL     1      16.648  38.847  46.754  0.00  0.00    +0.000 A 
ATOM     10  C   UNL     1      15.930  40.031  46.997  0.00  0.00    +0.000 A 
BRANCH   7  11
ATOM     11  C   UNL     1      17.026  38.998  42.956  0.00  0.00    +0.000 C 
ATOM     12  F   UNL     1      17.421  40.088  42.245  0.00  0.00    +0.000 F 
ATOM     13  F   UNL     1      18.060  38.115  42.898  0.00  0.00    +0.000 F 
ATOM     14  F   UNL     1      16.012  38.431  42.243  0.00  0.00    +0.000 F 
ENDBRANCH   7  11
BRANCH   9  15
ATOM     15  C   UNL     1      17.026  37.954  47.912  0.00  0.00    +0.000 C 
ATOM     16  F   UNL     1      15.994  37.180  48.351  0.00  0.00    +0.000 F 
ATOM     17  F   UNL     1      17.448  38.660  48.997  0.00  0.00    +0.000 F 
ATOM     18  F   UNL     1      18.032  37.092  47.604  0.00  0.00    +0.000 F 
ENDBRANCH   9  15
ENDBRANCH   3   5
BRANCH   2  19
ATOM     19  C   UNL     1      13.084  43.743  46.151  0.00  0.00    +0.000 C 
BRANCH  19  20
ATOM     20  C   UNL     1      14.015  44.781  45.496  0.00  0.00    +0.000 C 
BRANCH  20  21
ATOM     21  C   UNL     1      14.214  44.440  44.019  0.00  0.00    +0.000 A 
ATOM     22  C   UNL     1      15.453  44.013  43.517  0.00  0.00    +0.000 A 
ATOM     23  C   UNL     1      15.612  43.736  42.158  0.00  0.00    +0.000 A 
ATOM     24  C   UNL     1      14.540  43.892  41.283  0.00  0.00    +0.000 A 
ATOM     25  C   UNL     1      13.307  44.322  41.764  0.00  0.00    +0.000 A 
ATOM     26  C   UNL     1      13.143  44.595  43.121  0.00  0.00    +0.000 A 
ENDBRANCH  20  21
BRANCH  20  27
ATOM     27  C   UNL     1      13.590  46.237  45.704  0.00  0.00    +0.000 A 
ATOM     28  C   UNL     1      12.383  46.608  46.319  0.00  0.00    +0.000 A 
ATOM     29  C   UNL     1      12.041  47.955  46.465  0.00  0.00    +0.000 A 
ATOM     30  C   UNL     1      12.892  48.950  45.993  0.00  0.00    +0.000 A 
ATOM     31  C   UNL     1      14.087  48.602  45.375  0.00  0.00    +0.000 A 
ATOM     32  C   UNL     1      14.435  47.258  45.230  0.00  0.00    +0.000 A 
ENDBRANCH  20  27
ENDBRANCH  19  20
ENDBRANCH   2  19
TORSDOF 7
ENDMDL
MODEL 2
REMARK VINA RESULT:    -6.706      4.059      8.125
REMARK INTER + INTRA:         -10.923
REMARK INTER:                  -9.384
REMARK INTRA:                  -1.539
REMARK UNBOUND:                -1.473
REMARK  Name = 
REMARK  7 active torsions:
REMARK  status: ('A' for Active; 'I' for Inactive)
REMARK    1  A    between atoms: C_2  and  C_3
REMARK    2  A    between atoms: C_3  and  C_4
REMARK    3  A    between atoms: C_4  and  C_5
REMARK    4  A    between atoms: C_4  and  C_11
REMARK    5  A    between atoms: N_17  and  C_18
REMARK    6  A    between atoms: C_20  and  C_21
REMARK    7  A    between atoms: C_26  and  C_27
REMARK                            x       y       z     vdW  Elec       q    Type
REMARK                         _______ _______ _______ _____ _____    ______ ____
ROOT
ATOM      1  O   UNL     1      12.953  39.815  47.891  0.00  0.00    +0.000 OA
ATOM      2  C   UNL     1      13.971  40.165  48.483  0.00  0.00    +0.000 C 
ATOM      3  N   UNL     1      15.000  40.930  47.960  0.00  0.00    +0.000 N 
ATOM      4  H   UNL     1      15.777  41.127  48.577  0.00  0.00    +0.000 HD
ENDROOT
BRANCH   3   5
ATOM      5  C   UNL     1      15.117  41.426  46.646  0.00  0.00    +0.000 A 
ATOM      6  C   UNL     1      14.594  42.702  46.397  0.00  0.00    +0.000 A 
ATOM      7  C   UNL     1      14.656  43.278  45.118  0.00  0.00    +0.000 A 
ATOM      8  C   UNL     1      15.270  42.563  44.080  0.00  0.00    +0.000 A 
ATOM      9  C   UNL     1      15.810  41.289  44.310  0.00  0.00    +0.000 A 
ATOM     10  C   UNL     1      15.722  40.729  45.597  0.00  0.00    +0.000 A 
BRANCH   7  11
ATOM     11  C   UNL     1      14.102  44.660  44.871  0.00  0.00    +0.000 C 
ATOM     12  F   UNL     1      12.754  44.650  44.691  0.00  0.00    +0.000 F 
ATOM     13  F   UNL     1      14.339  45.518  45.899  0.00  0.00    +0.000 F 
ATOM     14  F   UNL     1      14.624  45.254  43.761  0.00  0.00    +0.000 F 
ENDBRANCH   7  11
BRANCH   9  15
ATOM     15  C   UNL     1      16.471  40.507  43.200  0.00  0.00    +0.000 C 
ATOM     16  F   UNL     1      17.430  41.217  42.542  0.00  0.00    +0.000 F 
ATOM     17  F   UNL     1      15.587  40.106  42.246  0.00  0.00    +0.000 F 
ATOM     18  F   UNL     1      17.086  39.379  43.648  0.00  0.00    +0.000 F 
ENDBRANCH   9  15
ENDBRANCH   3   5
BRANCH   2  19
ATOM     19  C   UNL     1      14.190  39.790  49.941  0.00  0.00    +0.000 C 
BRANCH  19  20
ATOM     20  C   UNL     1      15.534  40.341  50.455  0.00  0.00    +0.000 C 
BRANCH  20  21
ATOM     21  C   UNL     1      15.292  41.280  51.637  0.00  0.00    +0.000 A 
ATOM     22  C   UNL     1      14.118  41.219  52.403  0.00  0.00    +0.000 A 
ATOM     23  C   UNL     1      13.911  42.108  53.459  0.00  0.00    +0.000 A 
ATOM     24  C   UNL     1      14.868  43.075  53.757  0.00  0.00    +0.000 A 
ATOM     25  C   UNL     1      16.034  43.154  53.002  0.00  0.00    +0.000 A 
ATOM     26  C   UNL     1      16.246  42.264  51.949  0.00  0.00    +0.000 A 
ENDBRANCH  20  21
BRANCH  20  27
ATOM     27  C   UNL     1      16.581  39.269  50.771  0.00  0.00    +0.000 A 
ATOM     28  C   UNL     1      17.249  39.183  52.003  0.00  0.00    +0.000 A 
ATOM     29  C   UNL     1      18.208  38.192  52.227  0.00  0.00    +0.000 A 
ATOM     30  C   UNL     1      18.522  37.279  51.224  0.00  0.00    +0.000 A 
ATOM     31  C   UNL     1      17.876  37.354  49.995  0.00  0.00    +0.000 A 
ATOM     32  C   UNL     1      16.915  38.340  49.768  0.00  0.00    +0.000 A 
ENDBRANCH  20  27
ENDBRANCH  19  20
ENDBRANCH   2  19
TORSDOF 7
ENDMDL
MODEL 3
REMARK VINA RESULT:    -6.692      4.093      8.067
REMARK INTER + INTRA:         -10.904
REMARK INTER:                  -9.431
REMARK INTRA:                  -1.473
REMARK UNBOUND:                -1.473
REMARK  Name = 
REMARK  7 active torsions:
REMARK  status: ('A' for Active; 'I' for Inactive)
REMARK    1  A    between atoms: C_2  and  C_3
REMARK    2  A    between atoms: C_3  and  C_4
REMARK    3  A    between atoms: C_4  and  C_5
REMARK    4  A    between atoms: C_4  and  C_11
REMARK    5  A    between atoms: N_17  and  C_18
REMARK    6  A    between atoms: C_20  and  C_21
REMARK    7  A    between atoms: C_26  and  C_27
REMARK                            x       y       z     vdW  Elec       q    Type
REMARK                         _______ _______ _______ _____ _____    ______ ____
ROOT
ATOM      1  O   UNL     1      12.745  40.725  48.217  0.00  0.00    +0.000 OA
ATOM      2  C   UNL     1      13.914  40.546  48.548  0.00  0.00    +0.000 C 
ATOM      3  N   UNL     1      15.035  40.948  47.841  0.00  0.00    +0.000 N 
ATOM      4  H   UNL     1      15.934  40.717  48.246  0.00  0.00    +0.000 HD
ENDROOT
BRANCH   3   5
ATOM      5  C   UNL     1      15.074  41.600  46.592  0.00  0.00    +0.000 A 
ATOM      6  C   UNL     1      15.682  40.913  45.533  0.00  0.00    +0.000 A 
ATOM      7  C   UNL     1      15.776  41.483  44.253  0.00  0.00    +0.000 A 
ATOM      8  C   UNL     1      15.233  42.758  44.036  0.00  0.00    +0.000 A 
ATOM      9  C   UNL     1      14.611  43.458  45.079  0.00  0.00    +0.000 A 
ATOM     10  C   UNL     1      14.543  42.870  46.354  0.00  0.00    +0.000 A 
BRANCH   7  11
ATOM     11  C   UNL     1      16.420  40.722  43.120  0.00  0.00    +0.000 C 
ATOM     12  F   UNL     1      16.962  39.545  43.532  0.00  0.00    +0.000 F 
ATOM     13  F   UNL     1      15.544  40.408  42.127  0.00  0.00    +0.000 F 
ATOM     14  F   UNL     1      17.431  41.412  42.521  0.00  0.00    +0.000 F 
ENDBRANCH   7  11
BRANCH   9  15
ATOM     15  C   UNL     1      14.025  44.833  44.859  0.00  0.00    +0.000 C 
ATOM     16  F   UNL     1      12.662  44.835  44.829  0.00  0.00    +0.000 F 
ATOM     17  F   UNL     1      14.423  45.386  43.681  0.00  0.00    +0.000 F 
ATOM     18  F   UNL     1      14.377  45.715  45.833  0.00  0.00    +0.000 F 
ENDBRANCH   9  15
ENDBRANCH   3   5
BRANCH   2  19
ATOM     19  C   UNL     1      14.255  39.850  49.857  0.00  0.00    +0.000 C 
BRANCH  19  20
ATOM     20  C   UNL     1      15.576  40.389  50.440  0.00  0.00    +0.000 C 
BRANCH  20  21
ATOM     21  C   UNL     1      15.281  41.310  51.625  0.00  0.00    +0.000 A 
ATOM     22  C   UNL     1      14.086  41.219  52.355  0.00  0.00    +0.000 A 
ATOM     23  C   UNL     1      13.832  42.092  53.414  0.00  0.00    +0.000 A 
ATOM     24  C   UNL     1      14.763  43.071  53.752  0.00  0.00    +0.000 A 
ATOM     25  C   UNL     1      15.950  43.178  53.033  0.00  0.00    +0.000 A 
ATOM     26  C   UNL     1      16.209  42.305  51.977  0.00  0.00    +0.000 A 
ENDBRANCH  20  21
BRANCH  20  27
ATOM     27  C   UNL     1      16.605  39.310  50.785  0.00  0.00    +0.000 A 
ATOM     28  C   UNL     1      17.237  39.218  52.036  0.00  0.00    +0.000 A 
ATOM     29  C   UNL     1      18.182  38.220  52.287  0.00  0.00    +0.000 A 
ATOM     30  C   UNL     1      18.517  37.305  51.293  0.00  0.00    +0.000 A 
ATOM     31  C   UNL     1      17.907  37.384  50.046  0.00  0.00    +0.000 A 
ATOM     32  C   UNL     1      16.960  38.377  49.793  0.00  0.00    +0.000 A 
ENDBRANCH  20  27
ENDBRANCH  19  20
ENDBRANCH   2  19
TORSDOF 7
ENDMDL
