MODEL 1
REMARK VINA RESULT:    -7.486      0.000      0.000
REMARK INTER + INTRA:         -10.361
REMARK INTER:                  -9.661
REMARK INTRA:                  -0.700
REMARK UNBOUND:                -0.687
REMARK  Name = 
REMARK  7 active torsions:
REMARK  status: ('A' for Active; 'I' for Inactive)
REMARK    1  A    between atoms: C_1  and  O_2
REMARK    2  A    between atoms: O_2  and  C_3
REMARK    3  A    between atoms: C_6  and  C_7
REMARK    4  A    between atoms: C_11  and  C_12
REMARK    5  A    between atoms: C_17  and  C_18
REMARK    6  A    between atoms: C_21  and  O_22
REMARK    7  A    between atoms: O_22  and  C_23
REMARK                            x       y       z     vdW  Elec       q    Type
REMARK                         _______ _______ _______ _____ _____    ______ ____
ROOT
ATOM      1  C   UNL     1      15.717  41.556  53.096  0.00  0.00    +0.000 A 
ATOM      2  N   UNL     1      16.439  41.240  52.034  0.00  0.00    +0.000 NA
ATOM      3  C   UNL     1      16.936  39.981  52.263  0.00  0.00    +0.000 A 
ATOM      4  C   UNL     1      17.759  39.180  51.459  0.00  0.00    +0.000 A 
ATOM      5  C   UNL     1      18.148  37.904  51.914  0.00  0.00    +0.000 A 
ATOM      6  C   UNL     1      17.695  37.466  53.174  0.00  0.00    +0.000 A 
ATOM      7  C   UNL     1      16.870  38.252  53.992  0.00  0.00    +0.000 A 
ATOM      8  C   UNL     1      16.516  39.505  53.495  0.00  0.00    +0.000 A 
ATOM      9  N   UNL     1      15.744  40.517  54.000  0.00  0.00    +0.000 N 
ATOM     10  H   UNL     1      15.270  40.500  54.889  0.00  0.00    +0.000 HD
ENDROOT
BRANCH   5  11
ATOM     11  C   UNL     1      19.012  37.046  51.086  0.00  0.00    +0.000 A 
ATOM     12  C   UNL     1      18.534  36.491  49.883  0.00  0.00    +0.000 A 
ATOM     13  C   UNL     1      19.325  35.668  49.068  0.00  0.00    +0.000 A 
ATOM     14  C   UNL     1      20.625  35.424  49.509  0.00  0.00    +0.000 A 
ATOM     15  N   UNL     1      21.656  34.686  48.989  0.00  0.00    +0.000 N 
ATOM     16  C   UNL     1      22.744  34.778  49.829  0.00  0.00    +0.000 A 
ATOM     17  N   UNL     1      22.440  35.542  50.865  0.00  0.00    +0.000 NA
ATOM     18  C   UNL     1      21.142  35.947  50.684  0.00  0.00    +0.000 A 
ATOM     19  C   UNL     1      20.334  36.765  51.486  0.00  0.00    +0.000 A 
ATOM     20  H   UNL     1      21.618  34.156  48.133  0.00  0.00    +0.000 HD
BRANCH  16  21
ATOM     21  C   UNL     1      24.036  34.119  49.601  0.00  0.00    +0.000 A 
ATOM     22  C   UNL     1      25.090  34.354  50.494  0.00  0.00    +0.000 A 
ATOM     23  C   UNL     1      26.335  33.745  50.316  0.00  0.00    +0.000 A 
ATOM     24  C   UNL     1      26.560  32.889  49.238  0.00  0.00    +0.000 A 
ATOM     25  C   UNL     1      25.522  32.649  48.339  0.00  0.00    +0.000 A 
ATOM     26  C   UNL     1      24.271  33.258  48.518  0.00  0.00    +0.000 A 
BRANCH  24  27
ATOM     27  O   UNL     1      27.819  32.361  49.178  0.00  0.00    +0.000 OA
ATOM     28  C   UNL     1      28.150  31.372  50.145  0.00  0.00    +0.000 C 
ENDBRANCH  24  27
ENDBRANCH  16  21
ENDBRANCH   5  11
BRANCH   1  32
ATOM     29  C   UNL     1      13.679  45.299  53.652  0.00  0.00    +0.000 A 
ATOM     30  C   UNL     1      12.974  44.099  53.751  0.00  0.00    +0.000 A 
ATOM     31  C   UNL     1      13.617  42.869  53.573  0.00  0.00    +0.000 A 
ATOM     32  C   UNL     1      14.988  42.816  53.292  0.00  0.00    +0.000 A 
ATOM     33  C   UNL     1      15.688  44.029  53.197  0.00  0.00    +0.000 A 
ATOM     34  C   UNL     1      15.043  45.260  53.374  0.00  0.00    +0.000 A 
BRANCH  29  36
ATOM     35  C   UNL     1      11.553  46.346  53.488  0.00  0.00    +0.000 C 
ATOM     36  O   UNL     1      12.927  46.424  53.847  0.00  0.00    +0.000 OA
ENDBRANCH  29  36
ENDBRANCH   1  32
TORSDOF 5
ENDMDL
MODEL 2
REMARK VINA RESULT:    -7.441      1.388     12.984
REMARK INTER + INTRA:         -10.302
REMARK INTER:                  -9.609
REMARK INTRA:                  -0.693
REMARK UNBOUND:                -0.687
REMARK  Name = 
REMARK  7 active torsions:
REMARK  status: ('A' for Active; 'I' for Inactive)
REMARK    1  A    between atoms: C_1  and  O_2
REMARK    2  A    between atoms: O_2  and  C_3
REMARK    3  A    between atoms: C_6  and  C_7
REMARK    4  A    between atoms: C_11  and  C_12
REMARK    5  A    between atoms: C_17  and  C_18
REMARK    6  A    between atoms: C_21  and  O_22
REMARK    7  A    between atoms: O_22  and  C_23
REMARK                            x       y       z     vdW  Elec       q    Type
REMARK                         _______ _______ _______ _____ _____    ______ ____
ROOT
ATOM      1  C   UNL     1      23.097  33.965  51.367  0.00  0.00    +0.000 A 
ATOM      2  N   UNL     1      22.662  35.061  50.768  0.00  0.00    +0.000 NA
ATOM      3  C   UNL     1      21.453  35.365  51.342  0.00  0.00    +0.000 A 
ATOM      4  C   UNL     1      20.573  36.423  51.078  0.00  0.00    +0.000 A 
ATOM      5  C   UNL     1      19.371  36.527  51.806  0.00  0.00    +0.000 A 
ATOM      6  C   UNL     1      19.085  35.558  52.788  0.00  0.00    +0.000 A 
ATOM      7  C   UNL     1      19.954  34.493  53.068  0.00  0.00    +0.000 A 
ATOM      8  C   UNL     1      21.128  34.437  52.319  0.00  0.00    +0.000 A 
ATOM      9  N   UNL     1      22.184  33.564  52.318  0.00  0.00    +0.000 N 
ATOM     10  H   UNL     1      22.277  32.762  52.919  0.00  0.00    +0.000 HD
ENDROOT
BRANCH   5  11
ATOM     11  C   UNL     1      18.431  37.631  51.544  0.00  0.00    +0.000 A 
ATOM     12  C   UNL     1      17.778  37.740  50.301  0.00  0.00    +0.000 A 
ATOM     13  C   UNL     1      16.878  38.776  50.013  0.00  0.00    +0.000 A 
ATOM     14  C   UNL     1      16.655  39.704  51.028  0.00  0.00    +0.000 A 
ATOM     15  N   UNL     1      15.864  40.821  51.104  0.00  0.00    +0.000 N 
ATOM     16  C   UNL     1      16.010  41.391  52.351  0.00  0.00    +0.000 A 
ATOM     17  N   UNL     1      16.867  40.680  53.065  0.00  0.00    +0.000 NA
ATOM     18  C   UNL     1      17.272  39.641  52.268  0.00  0.00    +0.000 A 
ATOM     19  C   UNL     1      18.171  38.599  52.535  0.00  0.00    +0.000 A 
ATOM     20  H   UNL     1      15.279  41.171  50.363  0.00  0.00    +0.000 HD
BRANCH  16  21
ATOM     21  C   UNL     1      15.319  42.605  52.802  0.00  0.00    +0.000 A 
ATOM     22  C   UNL     1      13.961  42.532  53.142  0.00  0.00    +0.000 A 
ATOM     23  C   UNL     1      13.265  43.663  53.577  0.00  0.00    +0.000 A 
ATOM     24  C   UNL     1      13.907  44.896  53.681  0.00  0.00    +0.000 A 
ATOM     25  C   UNL     1      15.256  44.986  53.342  0.00  0.00    +0.000 A 
ATOM     26  C   UNL     1      15.957  43.850  52.906  0.00  0.00    +0.000 A 
BRANCH  24  27
ATOM     27  O   UNL     1      13.115  45.921  54.117  0.00  0.00    +0.000 OA
ATOM     28  C   UNL     1      11.836  46.050  53.511  0.00  0.00    +0.000 C 
ENDBRANCH  24  27
ENDBRANCH  16  21
ENDBRANCH   5  11
BRANCH   1  32
ATOM     29  C   UNL     1      26.832  32.034  50.475  0.00  0.00    +0.000 A 
ATOM     30  C   UNL     1      25.804  31.317  51.091  0.00  0.00    +0.000 A 
ATOM     31  C   UNL     1      24.580  31.926  51.390  0.00  0.00    +0.000 A 
ATOM     32  C   UNL     1      24.360  33.273  51.076  0.00  0.00    +0.000 A 
ATOM     33  C   UNL     1      25.399  33.984  50.456  0.00  0.00    +0.000 A 
ATOM     34  C   UNL     1      26.624  33.374  50.158  0.00  0.00    +0.000 A 
BRANCH  29  36
ATOM     35  C   UNL     1      28.225  30.938  48.894  0.00  0.00    +0.000 C 
ATOM     36  O   UNL     1      27.971  31.317  50.242  0.00  0.00    +0.000 OA
ENDBRANCH  29  36
ENDBRANCH   1  32
TORSDOF 5
ENDMDL
MODEL 3
REMARK VINA RESULT:    -7.352      0.374     13.066
REMARK INTER + INTRA:         -10.188
REMARK INTER:                  -9.501
REMARK INTRA:                  -0.687
REMARK UNBOUND:                -0.687
REMARK  Name = 
REMARK  7 active torsions:
REMARK  status: ('A' for Active; 'I' for Inactive)
REMARK    1  A    between atoms: C_1  and  O_2
REMARK    2  A    between atoms: O_2  and  C_3
REMARK    3  A    between atoms: C_6  and  C_7
REMARK    4  A    between atoms: C_11  and  C_12
REMARK    5  A    between atoms: C_17  and  C_18
REMARK    6  A    between atoms: C_21  and  O_22
REMARK    7  A    between atoms: O_22  and  C_23
REMARK                            x       y       z     vdW  Elec       q    Type
REMARK                         _______ _______ _______ _____ _____    ______ ____
ROOT
ATOM      1  C   UNL     1      22.478  34.722  49.893  0.00  0.00    +0.000 A 
ATOM      2  N   UNL     1      22.193  35.467  50.948  0.00  0.00    +0.000 NA
ATOM      3  C   UNL     1      20.926  35.954  50.748  0.00  0.00    +0.000 A 
ATOM      4  C   UNL     1      20.147  36.792  51.559  0.00  0.00    +0.000 A 
ATOM      5  C   UNL     1      18.855  37.166  51.136  0.00  0.00    +0.000 A 
ATOM      6  C   UNL     1      18.379  36.682  49.902  0.00  0.00    +0.000 A 
ATOM      7  C   UNL     1      19.141  35.842  49.078  0.00  0.00    +0.000 A 
ATOM      8  C   UNL     1      20.411  35.504  49.543  0.00  0.00    +0.000 A 
ATOM      9  N   UNL     1      21.411  34.724  49.023  0.00  0.00    +0.000 N 
ATOM     10  H   UNL     1      21.366  34.230  48.146  0.00  0.00    +0.000 HD
ENDROOT
BRANCH   5  11
ATOM     11  C   UNL     1      18.020  38.046  51.972  0.00  0.00    +0.000 A 
ATOM     12  C   UNL     1      17.631  37.651  53.266  0.00  0.00    +0.000 A 
ATOM     13  C   UNL     1      16.835  38.460  54.092  0.00  0.00    +0.000 A 
ATOM     14  C   UNL     1      16.445  39.690  53.564  0.00  0.00    +0.000 A 
ATOM     15  N   UNL     1      15.685  40.713  54.067  0.00  0.00    +0.000 N 
ATOM     16  C   UNL     1      15.604  41.717  53.126  0.00  0.00    +0.000 A 
ATOM     17  N   UNL     1      16.280  41.366  52.045  0.00  0.00    +0.000 NA
ATOM     18  C   UNL     1      16.802  40.123  52.297  0.00  0.00    +0.000 A 
ATOM     19  C   UNL     1      17.596  39.299  51.487  0.00  0.00    +0.000 A 
ATOM     20  H   UNL     1      15.250  40.723  54.975  0.00  0.00    +0.000 HD
BRANCH  16  21
ATOM     21  C   UNL     1      14.871  42.976  53.307  0.00  0.00    +0.000 A 
ATOM     22  C   UNL     1      15.569  44.189  53.234  0.00  0.00    +0.000 A 
ATOM     23  C   UNL     1      14.910  45.411  53.398  0.00  0.00    +0.000 A 
ATOM     24  C   UNL     1      13.538  45.451  53.644  0.00  0.00    +0.000 A 
ATOM     25  C   UNL     1      12.831  44.252  53.724  0.00  0.00    +0.000 A 
ATOM     26  C   UNL     1      13.491  43.025  53.557  0.00  0.00    +0.000 A 
BRANCH  24  27
ATOM     27  O   UNL     1      13.017  46.706  53.786  0.00  0.00    +0.000 OA
ATOM     28  C   UNL     1      11.607  46.838  53.652  0.00  0.00    +0.000 C 
ENDBRANCH  24  27
ENDBRANCH  16  21
ENDBRANCH   5  11
BRANCH   1  32
ATOM     29  C   UNL     1      26.210  32.676  49.293  0.00  0.00    +0.000 A 
ATOM     30  C   UNL     1      25.012  32.068  48.915  0.00  0.00    +0.000 A 
ATOM     31  C   UNL     1      23.785  32.717  49.101  0.00  0.00    +0.000 A 
ATOM     32  C   UNL     1      23.735  33.994  49.673  0.00  0.00    +0.000 A 
ATOM     33  C   UNL     1      24.945  34.596  50.048  0.00  0.00    +0.000 A 
ATOM     34  C   UNL     1      26.173  33.946  49.862  0.00  0.00    +0.000 A 
BRANCH  29  36
ATOM     35  C   UNL     1      28.223  31.748  50.147  0.00  0.00    +0.000 C 
ATOM     36  O   UNL     1      27.331  31.931  49.054  0.00  0.00    +0.000 OA
ENDBRANCH  29  36
ENDBRANCH   1  32
TORSDOF 5
ENDMDL
