MODEL 1
REMARK VINA RESULT:    -7.014      0.000      0.000
REMARK INTER + INTRA:         -10.278
REMARK INTER:                  -9.489
REMARK INTRA:                  -0.789
REMARK UNBOUND:                -0.804
REMARK  Name = 
REMARK  7 active torsions:
REMARK  status: ('A' for Active; 'I' for Inactive)
REMARK    1  A    between atoms: C_1  and  C_2
REMARK    2  A    between atoms: C_4  and  C_5
REMARK    3  A    between atoms: C_12  and  C_13
REMARK    4  A    between atoms: C_14  and  C_15
REMARK    5  A    between atoms: C_15  and  C_17
REMARK    6  A    between atoms: C_20  and  C_21
REMARK    7  A    between atoms: C_21  and  C_22
REMARK                            x       y       z     vdW  Elec       q    Type
REMARK                         _______ _______ _______ _____ _____    ______ ____
ROOT
ATOM      1  C   UNL     1      12.595  43.505  46.351  0.00  0.00    +0.000 C 
ATOM      2  O   UNL     1      11.550  43.179  46.908  0.00  0.00    +0.000 OA
ENDROOT
BRANCH   1   3
ATOM      3  C   UNL     1      12.919  44.941  46.169  0.00  0.00    +0.000 A 
ATOM      4  C   UNL     1      11.996  45.889  46.619  0.00  0.00    +0.000 A 
ATOM      5  C   UNL     1      12.254  47.251  46.457  0.00  0.00    +0.000 A 
ATOM      6  C   UNL     1      13.432  47.681  45.830  0.00  0.00    +0.000 A 
ATOM      7  C   UNL     1      14.342  46.724  45.358  0.00  0.00    +0.000 A 
ATOM      8  C   UNL     1      14.085  45.360  45.520  0.00  0.00    +0.000 A 
BRANCH   6   9
ATOM      9  C   UNL     1      13.716  49.157  45.670  0.00  0.00    +0.000 C 
BRANCH   9  10
ATOM     10  C   UNL     1      14.332  49.515  44.317  0.00  0.00    +0.000 C 
ATOM     11  S   UNL     1      13.504  50.919  43.490  0.00  0.00    +0.000 S 
ATOM     12  C   UNL     1      14.983  51.824  43.318  0.00  0.00    +0.000 C 
ATOM     13  O   UNL     1      15.045  52.946  42.849  0.00  0.00    +0.000 OA
ATOM     14  N   UNL     1      16.027  51.121  43.812  0.00  0.00    +0.000 N 
ATOM     15  C   UNL     1      15.768  49.966  44.486  0.00  0.00    +0.000 C 
ATOM     16  O   UNL     1      16.616  49.375  45.143  0.00  0.00    +0.000 OA
ATOM     17  H   UNL     1      16.936  51.553  43.869  0.00  0.00    +0.000 HD
ENDBRANCH   9  10
ENDBRANCH   6   9
ENDBRANCH   1   3
BRANCH   1  19
ATOM     18  C   UNL     1      14.526  41.931  46.579  0.00  0.00    +0.000 C 
ATOM     19  C   UNL     1      13.513  42.443  45.864  0.00  0.00    +0.000 C 
BRANCH  18  25
ATOM     20  C   UNL     1      15.895  41.118  43.587  0.00  0.00    +0.000 C 
ATOM     21  C   UNL     1      15.966  40.585  44.959  0.00  0.00    +0.000 A 
ATOM     22  O   UNL     1      16.763  39.485  45.141  0.00  0.00    +0.000 OA
ATOM     23  C   UNL     1      16.645  39.189  46.475  0.00  0.00    +0.000 A 
ATOM     24  N   UNL     1      15.848  40.009  47.135  0.00  0.00    +0.000 NA
ATOM     25  C   UNL     1      15.417  40.896  46.182  0.00  0.00    +0.000 A 
BRANCH  23  26
ATOM     26  C   UNL     1      17.399  38.039  46.968  0.00  0.00    +0.000 A 
ATOM     27  C   UNL     1      17.280  37.659  48.313  0.00  0.00    +0.000 A 
ATOM     28  C   UNL     1      17.989  36.563  48.812  0.00  0.00    +0.000 A 
ATOM     29  C   UNL     1      18.826  35.833  47.972  0.00  0.00    +0.000 A 
ATOM     30  C   UNL     1      18.955  36.197  46.633  0.00  0.00    +0.000 A 
ATOM     31  C   UNL     1      18.246  37.293  46.134  0.00  0.00    +0.000 A 
ENDBRANCH  23  26
ENDBRANCH  18  25
ENDBRANCH   1  19
TORSDOF 6
ENDMDL
MODEL 2
REMARK VINA RESULT:    -6.876      1.695      2.928
REMARK INTER + INTRA:         -10.091
REMARK INTER:                  -9.287
REMARK INTRA:                  -0.804
REMARK UNBOUND:                -0.804
REMARK  Name = 
REMARK  7 active torsions:
REMARK  status: ('A' for Active; 'I' for Inactive)
REMARK    1  A    between atoms: C_1  and  C_2
REMARK    2  A    between atoms: C_4  and  C_5
REMARK    3  A    between atoms: C_12  and  C_13
REMARK    4  A    between atoms: C_14  and  C_15
REMARK    5  A    between atoms: C_15  and  C_17
REMARK    6  A    between atoms: C_20  and  C_21
REMARK    7  A    between atoms: C_21  and  C_22
REMARK                            x       y       z     vdW  Elec       q    Type
REMARK                         _______ _______ _______ _____ _____    ______ ____
ROOT
ATOM      1  C   UNL     1      12.523  43.861  46.463  0.00  0.00    +0.000 C 
ATOM      2  O   UNL     1      11.513  43.525  47.077  0.00  0.00    +0.000 OA
ENDROOT
BRANCH   1   3
ATOM      3  C   UNL     1      12.808  45.300  46.244  0.00  0.00    +0.000 A 
ATOM      4  C   UNL     1      14.026  45.650  45.654  0.00  0.00    +0.000 A 
ATOM      5  C   UNL     1      14.342  46.993  45.440  0.00  0.00    +0.000 A 
ATOM      6  C   UNL     1      13.450  48.002  45.828  0.00  0.00    +0.000 A 
ATOM      7  C   UNL     1      12.241  47.645  46.443  0.00  0.00    +0.000 A 
ATOM      8  C   UNL     1      11.923  46.301  46.657  0.00  0.00    +0.000 A 
BRANCH   6   9
ATOM      9  C   UNL     1      13.787  49.455  45.582  0.00  0.00    +0.000 C 
BRANCH   9  10
ATOM     10  C   UNL     1      14.471  49.702  44.236  0.00  0.00    +0.000 C 
ATOM     11  S   UNL     1      13.776  51.121  43.317  0.00  0.00    +0.000 S 
ATOM     12  C   UNL     1      15.324  51.905  43.156  0.00  0.00    +0.000 C 
ATOM     13  O   UNL     1      15.484  52.997  42.638  0.00  0.00    +0.000 OA
ATOM     14  N   UNL     1      16.296  51.153  43.718  0.00  0.00    +0.000 N 
ATOM     15  C   UNL     1      15.931  50.054  44.435  0.00  0.00    +0.000 C 
ATOM     16  O   UNL     1      16.711  49.435  45.148  0.00  0.00    +0.000 OA
ATOM     17  H   UNL     1      17.232  51.520  43.788  0.00  0.00    +0.000 HD
ENDBRANCH   9  10
ENDBRANCH   6   9
ENDBRANCH   1   3
BRANCH   1  19
ATOM     18  C   UNL     1      14.127  41.959  46.720  0.00  0.00    +0.000 C 
ATOM     19  C   UNL     1      13.436  42.809  45.946  0.00  0.00    +0.000 C 
BRANCH  18  25
ATOM     20  C   UNL     1      15.558  39.355  48.350  0.00  0.00    +0.000 C 
ATOM     21  C   UNL     1      15.559  39.862  46.967  0.00  0.00    +0.000 A 
ATOM     22  O   UNL     1      16.308  39.155  46.062  0.00  0.00    +0.000 OA
ATOM     23  C   UNL     1      16.151  39.831  44.879  0.00  0.00    +0.000 A 
ATOM     24  N   UNL     1      15.371  40.891  44.970  0.00  0.00    +0.000 NA
ATOM     25  C   UNL     1      14.990  40.916  46.288  0.00  0.00    +0.000 A 
BRANCH  23  26
ATOM     26  C   UNL     1      16.849  39.296  43.714  0.00  0.00    +0.000 A 
ATOM     27  C   UNL     1      16.986  40.089  42.565  0.00  0.00    +0.000 A 
ATOM     28  C   UNL     1      17.649  39.603  41.434  0.00  0.00    +0.000 A 
ATOM     29  C   UNL     1      18.185  38.318  41.439  0.00  0.00    +0.000 A 
ATOM     30  C   UNL     1      18.059  37.516  42.572  0.00  0.00    +0.000 A 
ATOM     31  C   UNL     1      17.395  38.003  43.703  0.00  0.00    +0.000 A 
ENDBRANCH  23  26
ENDBRANCH  18  25
ENDBRANCH   1  19
TORSDOF 6
ENDMDL
MODEL 3
REMARK VINA RESULT:    -6.712      5.272     11.054
REMARK INTER + INTRA:          -9.870
REMARK INTER:                  -9.017
REMARK INTRA:                  -0.853
REMARK UNBOUND:                -0.804
REMARK  Name = 
REMARK  7 active torsions:
REMARK  status: ('A' for Active; 'I' for Inactive)
REMARK    1  A    between atoms: C_1  and  C_2
REMARK    2  A    between atoms: C_4  and  C_5
REMARK    3  A    between atoms: C_12  and  C_13
REMARK    4  A    between atoms: C_14  and  C_15
REMARK    5  A    between atoms: C_15  and  C_17
REMARK    6  A    between atoms: C_20  and  C_21
REMARK    7  A    between atoms: C_21  and  C_22
REMARK                            x       y       z     vdW  Elec       q    Type
REMARK                         _______ _______ _______ _____ _____    ______ ____
ROOT
ATOM      1  C   UNL     1      16.606  38.269  47.050  0.00  0.00    +0.000 C 
ATOM      2  O   UNL     1      16.369  37.283  46.356  0.00  0.00    +0.000 OA
ENDROOT
BRANCH   1   3
ATOM      3  C   UNL     1      17.002  38.096  48.468  0.00  0.00    +0.000 A 
ATOM      4  C   UNL     1      16.578  39.053  49.395  0.00  0.00    +0.000 A 
ATOM      5  C   UNL     1      16.939  38.936  50.738  0.00  0.00    +0.000 A 
ATOM      6  C   UNL     1      17.741  37.870  51.168  0.00  0.00    +0.000 A 
ATOM      7  C   UNL     1      18.184  36.929  50.228  0.00  0.00    +0.000 A 
ATOM      8  C   UNL     1      17.824  37.043  48.884  0.00  0.00    +0.000 A 
BRANCH   6   9
ATOM      9  C   UNL     1      18.117  37.738  52.626  0.00  0.00    +0.000 C 
BRANCH   9  10
ATOM     10  C   UNL     1      17.077  38.328  53.580  0.00  0.00    +0.000 C 
ATOM     11  S   UNL     1      16.645  37.213  54.963  0.00  0.00    +0.000 S 
ATOM     12  C   UNL     1      17.021  38.406  56.176  0.00  0.00    +0.000 C 
ATOM     13  O   UNL     1      16.968  38.199  57.375  0.00  0.00    +0.000 OA
ATOM     14  N   UNL     1      17.412  39.563  55.596  0.00  0.00    +0.000 N 
ATOM     15  C   UNL     1      17.613  39.576  54.250  0.00  0.00    +0.000 C 
ATOM     16  O   UNL     1      18.161  40.504  53.668  0.00  0.00    +0.000 OA
ATOM     17  H   UNL     1      17.754  40.317  56.171  0.00  0.00    +0.000 HD
ENDBRANCH   9  10
ENDBRANCH   6   9
ENDBRANCH   1   3
BRANCH   1  19
ATOM     18  C   UNL     1      15.317  40.201  46.119  0.00  0.00    +0.000 C 
ATOM     19  C   UNL     1      16.482  39.621  46.446  0.00  0.00    +0.000 C 
BRANCH  18  25
ATOM     20  C   UNL     1      16.352  41.622  43.222  0.00  0.00    +0.000 C 
ATOM     21  C   UNL     1      15.559  42.056  44.384  0.00  0.00    +0.000 A 
ATOM     22  O   UNL     1      15.094  43.346  44.354  0.00  0.00    +0.000 OA
ATOM     23  C   UNL     1      14.412  43.496  45.534  0.00  0.00    +0.000 A 
ATOM     24  N   UNL     1      14.411  42.414  46.291  0.00  0.00    +0.000 NA
ATOM     25  C   UNL     1      15.131  41.499  45.568  0.00  0.00    +0.000 A 
BRANCH  23  26
ATOM     26  C   UNL     1      13.797  44.797  45.782  0.00  0.00    +0.000 A 
ATOM     27  C   UNL     1      14.438  45.962  45.335  0.00  0.00    +0.000 A 
ATOM     28  C   UNL     1      13.873  47.221  45.558  0.00  0.00    +0.000 A 
ATOM     29  C   UNL     1      12.659  47.330  46.231  0.00  0.00    +0.000 A 
ATOM     30  C   UNL     1      12.008  46.183  46.682  0.00  0.00    +0.000 A 
ATOM     31  C   UNL     1      12.574  44.924  46.459  0.00  0.00    +0.000 A 
ENDBRANCH  23  26
ENDBRANCH  18  25
ENDBRANCH   1  19
TORSDOF 6
ENDMDL
