MODEL 1
REMARK VINA RESULT:    -6.739      0.000      0.000
REMARK INTER + INTRA:          -9.401
REMARK INTER:                  -8.559
REMARK INTRA:                  -0.842
REMARK UNBOUND:                -1.086
REMARK  Name = 
REMARK  4 active torsions:
REMARK  status: ('A' for Active; 'I' for Inactive)
REMARK    1  A    between atoms: C_2  and  C_19
REMARK    2  A    between atoms: N_3  and  C_4
REMARK    3  A    between atoms: N_7  and  C_8
REMARK    4  A    between atoms: C_8  and  C_9
REMARK                            x       y       z     vdW  Elec       q    Type
REMARK                         _______ _______ _______ _____ _____    ______ ____
ROOT
ATOM      1  O   UNL     1      13.350  46.035  43.396  0.00  0.00    +0.000 OA
ATOM      2  C   UNL     1      13.971  45.717  44.410  0.00  0.00    +0.000 C 
ATOM      3  N   UNL     1      14.818  44.625  44.464  0.00  0.00    +0.000 N 
ATOM      4  H   UNL     1      15.129  44.319  45.380  0.00  0.00    +0.000 HD
ENDROOT
BRANCH   2   5
ATOM      5  C   UNL     1      13.815  46.500  45.723  0.00  0.00    +0.000 C 
ATOM      6  C   UNL     1      12.482  46.235  46.388  0.00  0.00    +0.000 A 
ATOM      7  C   UNL     1      12.182  44.968  46.917  0.00  0.00    +0.000 A 
ATOM      8  C   UNL     1      10.939  44.733  47.507  0.00  0.00    +0.000 A 
ATOM      9 BR   UNL     1      10.545  43.026  48.217  0.00  0.00    +0.000 Br
ATOM     10  C   UNL     1       9.985  45.746  47.574  0.00  0.00    +0.000 A 
ATOM     11  C   UNL     1      10.278  47.005  47.048  0.00  0.00    +0.000 A 
ATOM     12  C   UNL     1      11.523  47.249  46.464  0.00  0.00    +0.000 A 
ATOM     13  O   UNL     1      11.726  48.518  45.978  0.00  0.00    +0.000 OA
ATOM     14  C   UNL     1      13.000  48.883  45.617  0.00  0.00    +0.000 A 
ATOM     15  C   UNL     1      13.203  50.243  45.365  0.00  0.00    +0.000 A 
ATOM     16  C   UNL     1      14.467  50.706  44.999  0.00  0.00    +0.000 A 
ATOM     17  C   UNL     1      15.524  49.805  44.884  0.00  0.00    +0.000 A 
ATOM     18 BR   UNL     1      17.238  50.430  44.388  0.00  0.00    +0.000 Br
ATOM     19  C   UNL     1      15.326  48.447  45.126  0.00  0.00    +0.000 A 
ATOM     20  C   UNL     1      14.054  47.975  45.494  0.00  0.00    +0.000 A 
ENDBRANCH   2   5
BRANCH   3  21
ATOM     21  C   UNL     1      14.936  43.686  43.354  0.00  0.00    +0.000 C 
ATOM     22  C   UNL     1      16.149  42.782  43.543  0.00  0.00    +0.000 C 
ATOM     23  C   UNL     1      16.299  41.806  42.367  0.00  0.00    +0.000 C 
ATOM     24  N   UNL     1      15.030  41.434  41.732  0.00  0.00    +0.000 NA
ATOM     25  C   UNL     1      13.931  41.427  42.700  0.00  0.00    +0.000 C 
ATOM     26  C   UNL     1      13.657  42.849  43.205  0.00  0.00    +0.000 C 
BRANCH  24  27
ATOM     27  C   UNL     1      15.088  40.180  40.956  0.00  0.00    +0.000 C 
BRANCH  27  28
ATOM     28  C   UNL     1      16.342  39.300  41.263  0.00  0.00    +0.000 C 
ATOM     29  C   UNL     1      16.117  38.425  42.527  0.00  0.00    +0.000 C 
ATOM     30  C   UNL     1      17.370  38.215  43.382  0.00  0.00    +0.000 C 
ATOM     31  C   UNL     1      18.128  36.911  43.136  0.00  0.00    +0.000 C 
ATOM     32  C   UNL     1      18.475  36.566  41.689  0.00  0.00    +0.000 C 
ATOM     33  C   UNL     1      19.045  37.733  40.889  0.00  0.00    +0.000 C 
ATOM     34  C   UNL     1      18.152  38.197  39.741  0.00  0.00    +0.000 C 
ATOM     35  C   UNL     1      16.661  38.409  40.034  0.00  0.00    +0.000 C 
ENDBRANCH  27  28
ENDBRANCH  24  27
ENDBRANCH   3  21
TORSDOF 4
ENDMDL
MODEL 2
REMARK VINA RESULT:    -6.474      7.331     10.133
REMARK INTER + INTRA:          -9.074
REMARK INTER:                  -8.075
REMARK INTRA:                  -0.999
REMARK UNBOUND:                -1.086
REMARK  Name = 
REMARK  4 active torsions:
REMARK  status: ('A' for Active; 'I' for Inactive)
REMARK    1  A    between atoms: C_2  and  C_19
REMARK    2  A    between atoms: N_3  and  C_4
REMARK    3  A    between atoms: N_7  and  C_8
REMARK    4  A    between atoms: C_8  and  C_9
REMARK                            x       y       z     vdW  Elec       q    Type
REMARK                         _______ _______ _______ _____ _____    ______ ____
ROOT
ATOM      1  O   UNL     1      15.952  37.704  50.146  0.00  0.00    +0.000 OA
ATOM      2  C   UNL     1      16.907  38.469  50.016  0.00  0.00    +0.000 C 
ATOM      3  N   UNL     1      17.132  39.206  48.868  0.00  0.00    +0.000 N 
ATOM      4  H   UNL     1      18.037  39.651  48.767  0.00  0.00    +0.000 HD
ENDROOT
BRANCH   2   5
ATOM      5  C   UNL     1      17.958  38.633  51.125  0.00  0.00    +0.000 C 
ATOM      6  C   UNL     1      18.526  37.304  51.572  0.00  0.00    +0.000 A 
ATOM      7  C   UNL     1      19.320  36.533  50.706  0.00  0.00    +0.000 A 
ATOM      8  C   UNL     1      19.817  35.298  51.125  0.00  0.00    +0.000 A 
ATOM      9 BR   UNL     1      20.887  34.270  49.954  0.00  0.00    +0.000 Br
ATOM     10  C   UNL     1      19.528  34.816  52.400  0.00  0.00    +0.000 A 
ATOM     11  C   UNL     1      18.737  35.577  53.263  0.00  0.00    +0.000 A 
ATOM     12  C   UNL     1      18.245  36.817  52.852  0.00  0.00    +0.000 A 
ATOM     13  O   UNL     1      17.480  37.498  53.768  0.00  0.00    +0.000 OA
ATOM     14  C   UNL     1      17.175  38.814  53.514  0.00  0.00    +0.000 A 
ATOM     15  C   UNL     1      16.613  39.531  54.573  0.00  0.00    +0.000 A 
ATOM     16  C   UNL     1      16.277  40.875  54.410  0.00  0.00    +0.000 A 
ATOM     17  C   UNL     1      16.502  41.496  53.182  0.00  0.00    +0.000 A 
ATOM     18 BR   UNL     1      16.048  43.317  52.956  0.00  0.00    +0.000 Br
ATOM     19  C   UNL     1      17.055  40.783  52.119  0.00  0.00    +0.000 A 
ATOM     20  C   UNL     1      17.394  39.429  52.279  0.00  0.00    +0.000 A 
ENDBRANCH   2   5
BRANCH   3  21
ATOM     21  C   UNL     1      16.322  39.028  47.667  0.00  0.00    +0.000 C 
ATOM     22  C   UNL     1      15.558  40.305  47.340  0.00  0.00    +0.000 C 
ATOM     23  C   UNL     1      14.681  40.122  46.094  0.00  0.00    +0.000 C 
ATOM     24  N   UNL     1      15.214  39.157  45.125  0.00  0.00    +0.000 NA
ATOM     25  C   UNL     1      16.677  39.141  45.137  0.00  0.00    +0.000 C 
ATOM     26  C   UNL     1      17.193  38.600  46.477  0.00  0.00    +0.000 C 
BRANCH  24  27
ATOM     27  C   UNL     1      14.676  39.314  43.759  0.00  0.00    +0.000 C 
BRANCH  27  28
ATOM     28  C   UNL     1      14.416  40.798  43.345  0.00  0.00    +0.000 C 
ATOM     29  C   UNL     1      15.654  41.407  42.632  0.00  0.00    +0.000 C 
ATOM     30  C   UNL     1      15.889  42.890  42.927  0.00  0.00    +0.000 C 
ATOM     31  C   UNL     1      15.342  43.868  41.887  0.00  0.00    +0.000 C 
ATOM     32  C   UNL     1      13.886  43.691  41.460  0.00  0.00    +0.000 C 
ATOM     33  C   UNL     1      12.919  43.469  42.619  0.00  0.00    +0.000 C 
ATOM     34  C   UNL     1      12.265  42.090  42.627  0.00  0.00    +0.000 C 
ATOM     35  C   UNL     1      13.169  40.866  42.426  0.00  0.00    +0.000 C 
ENDBRANCH  27  28
ENDBRANCH  24  27
ENDBRANCH   3  21
TORSDOF 4
ENDMDL
MODEL 3
REMARK VINA RESULT:    -6.315      6.395      8.769
REMARK INTER + INTRA:          -8.877
REMARK INTER:                  -7.791
REMARK INTRA:                  -1.086
REMARK UNBOUND:                -1.086
REMARK  Name = 
REMARK  4 active torsions:
REMARK  status: ('A' for Active; 'I' for Inactive)
REMARK    1  A    between atoms: C_2  and  C_19
REMARK    2  A    between atoms: N_3  and  C_4
REMARK    3  A    between atoms: N_7  and  C_8
REMARK    4  A    between atoms: C_8  and  C_9
REMARK                            x       y       z     vdW  Elec       q    Type
REMARK                         _______ _______ _______ _____ _____    ______ ____
ROOT
ATOM      1  O   UNL     1      12.885  39.656  50.527  0.00  0.00    +0.000 OA
ATOM      2  C   UNL     1      14.026  40.074  50.721  0.00  0.00    +0.000 C 
ATOM      3  N   UNL     1      14.879  40.442  49.697  0.00  0.00    +0.000 N 
ATOM      4  H   UNL     1      15.857  40.581  49.929  0.00  0.00    +0.000 HD
ENDROOT
BRANCH   2   5
ATOM      5  C   UNL     1      14.609  40.181  52.140  0.00  0.00    +0.000 C 
ATOM      6  C   UNL     1      14.583  41.601  52.659  0.00  0.00    +0.000 A 
ATOM      7  C   UNL     1      13.363  42.243  52.935  0.00  0.00    +0.000 A 
ATOM      8  C   UNL     1      13.355  43.562  53.392  0.00  0.00    +0.000 A 
ATOM      9 BR   UNL     1      11.710  44.417  53.762  0.00  0.00    +0.000 Br
ATOM     10  C   UNL     1      14.551  44.254  53.575  0.00  0.00    +0.000 A 
ATOM     11  C   UNL     1      15.763  43.621  53.301  0.00  0.00    +0.000 A 
ATOM     12  C   UNL     1      15.778  42.299  52.851  0.00  0.00    +0.000 A 
ATOM     13  O   UNL     1      17.017  41.755  52.611  0.00  0.00    +0.000 OA
ATOM     14  C   UNL     1      17.106  40.400  52.404  0.00  0.00    +0.000 A 
ATOM     15  C   UNL     1      18.395  39.860  52.410  0.00  0.00    +0.000 A 
ATOM     16  C   UNL     1      18.581  38.491  52.215  0.00  0.00    +0.000 A 
ATOM     17  C   UNL     1      17.475  37.668  52.011  0.00  0.00    +0.000 A 
ATOM     18 BR   UNL     1      17.725  35.812  51.746  0.00  0.00    +0.000 Br
ATOM     19  C   UNL     1      16.188  38.202  51.996  0.00  0.00    +0.000 A 
ATOM     20  C   UNL     1      15.995  39.580  52.191  0.00  0.00    +0.000 A 
ENDBRANCH   2   5
BRANCH   3  21
ATOM     21  C   UNL     1      14.535  40.234  48.295  0.00  0.00    +0.000 C 
ATOM     22  C   UNL     1      14.560  41.554  47.534  0.00  0.00    +0.000 C 
ATOM     23  C   UNL     1      14.172  41.352  46.063  0.00  0.00    +0.000 C 
ATOM     24  N   UNL     1      14.530  40.034  45.526  0.00  0.00    +0.000 NA
ATOM     25  C   UNL     1      15.741  39.510  46.159  0.00  0.00    +0.000 C 
ATOM     26  C   UNL     1      15.482  39.217  47.642  0.00  0.00    +0.000 C 
BRANCH  24  27
ATOM     27  C   UNL     1      14.613  39.985  44.053  0.00  0.00    +0.000 C 
BRANCH  27  28
ATOM     28  C   UNL     1      14.281  41.341  43.351  0.00  0.00    +0.000 C 
ATOM     29  C   UNL     1      15.499  41.869  42.545  0.00  0.00    +0.000 C 
ATOM     30  C   UNL     1      15.646  43.393  42.544  0.00  0.00    +0.000 C 
ATOM     31  C   UNL     1      15.069  44.113  41.326  0.00  0.00    +0.000 C 
ATOM     32  C   UNL     1      13.635  43.772  40.927  0.00  0.00    +0.000 C 
ATOM     33  C   UNL     1      12.656  43.726  42.097  0.00  0.00    +0.000 C 
ATOM     34  C   UNL     1      12.079  42.339  42.371  0.00  0.00    +0.000 C 
ATOM     35  C   UNL     1      13.053  41.155  42.423  0.00  0.00    +0.000 C 
ENDBRANCH  27  28
ENDBRANCH  24  27
ENDBRANCH   3  21
TORSDOF 4
ENDMDL
