MODEL 1
REMARK VINA RESULT:    -6.984      0.000      0.000
REMARK INTER + INTRA:         -10.701
REMARK INTER:                  -9.764
REMARK INTRA:                  -0.936
REMARK UNBOUND:                -1.267
REMARK  Name = 
REMARK  7 active torsions:
REMARK  status: ('A' for Active; 'I' for Inactive)
REMARK    1  A    between atoms: C_1  and  C_2
REMARK    2  A    between atoms: N_4  and  C_5
REMARK    3  A    between atoms: C_9  and  N_10
REMARK    4  A    between atoms: C_18  and  O_19
REMARK    5  A    between atoms: O_19  and  C_20
REMARK    6  A    between atoms: C_20  and  C_21
REMARK    7  A    between atoms: C_21  and  C_22
REMARK                            x       y       z     vdW  Elec       q    Type
REMARK                         _______ _______ _______ _____ _____    ______ ____
ROOT
ATOM      1  C   UNL     1      16.092  41.516  42.200  0.00  0.00    +0.000 C 
ATOM      2  C   UNL     1      15.560  41.939  43.519  0.00  0.00    +0.000 A 
ATOM      3  N   UNL     1      14.947  43.123  43.662  0.00  0.00    +0.000 NA
ATOM      4  N   UNL     1      14.587  43.195  44.979  0.00  0.00    +0.000 N 
ATOM      5  C   UNL     1      14.982  42.050  45.648  0.00  0.00    +0.000 A 
ATOM      6  O   UNL     1      14.791  41.786  46.942  0.00  0.00    +0.000 OA
ATOM      7  C   UNL     1      15.269  40.572  47.403  0.00  0.00    +0.000 A 
ATOM      8  C   UNL     1      15.075  40.285  48.752  0.00  0.00    +0.000 A 
ATOM      9  C   UNL     1      15.533  39.076  49.287  0.00  0.00    +0.000 A 
ATOM     10  C   UNL     1      16.187  38.156  48.460  0.00  0.00    +0.000 A 
ATOM     11  C   UNL     1      16.385  38.437  47.103  0.00  0.00    +0.000 A 
ATOM     12  C   UNL     1      15.927  39.645  46.572  0.00  0.00    +0.000 A 
ATOM     13  C   UNL     1      16.131  39.960  45.129  0.00  0.00    +0.000 A 
ATOM     14  O   UNL     1      16.696  39.189  44.365  0.00  0.00    +0.000 OA
ATOM     15  C   UNL     1      15.604  41.239  44.731  0.00  0.00    +0.000 A 
ENDROOT
BRANCH   4  16
ATOM     16  C   UNL     1      13.903  44.354  45.462  0.00  0.00    +0.000 A 
ATOM     17  C   UNL     1      12.705  44.186  46.182  0.00  0.00    +0.000 A 
ATOM     18  C   UNL     1      11.999  45.288  46.674  0.00  0.00    +0.000 A 
ATOM     19  C   UNL     1      12.478  46.577  46.455  0.00  0.00    +0.000 A 
ATOM     20  C   UNL     1      13.667  46.754  45.739  0.00  0.00    +0.000 A 
ATOM     21  C   UNL     1      14.384  45.652  45.241  0.00  0.00    +0.000 A 
BRANCH  20  22
ATOM     22  N   UNL     1      14.175  48.114  45.506  0.00  0.00    +0.000 N 
ATOM     23  O   UNL     1      15.377  48.242  45.232  0.00  0.00    +0.000 OA
ATOM     24  O   UNL     1      13.372  49.053  45.598  0.00  0.00    +0.000 OA
ENDBRANCH  20  22
ENDBRANCH   4  16
BRANCH   9  25
ATOM     25  O   UNL     1      15.280  38.917  50.621  0.00  0.00    +0.000 OA
BRANCH  25  26
ATOM     26  C   UNL     1      15.755  39.937  51.504  0.00  0.00    +0.000 C 
BRANCH  26  27
ATOM     27  C   UNL     1      14.573  40.422  52.343  0.00  0.00    +0.000 C 
BRANCH  27  28
ATOM     28  C   UNL     1      14.724  41.866  52.746  0.00  0.00    +0.000 A 
ATOM     29  C   UNL     1      15.957  42.517  52.603  0.00  0.00    +0.000 A 
ATOM     30  C   UNL     1      16.102  43.848  52.997  0.00  0.00    +0.000 A 
ATOM     31  C   UNL     1      15.020  44.538  53.541  0.00  0.00    +0.000 A 
ATOM     32  C   UNL     1      13.791  43.898  53.690  0.00  0.00    +0.000 A 
ATOM     33  C   UNL     1      13.643  42.567  53.296  0.00  0.00    +0.000 A 
ENDBRANCH  27  28
ENDBRANCH  26  27
ENDBRANCH  25  26
ENDBRANCH   9  25
TORSDOF 6
ENDMDL
MODEL 2
REMARK VINA RESULT:    -6.754      4.842      8.644
REMARK INTER + INTRA:         -10.390
REMARK INTER:                  -9.123
REMARK INTRA:                  -1.267
REMARK UNBOUND:                -1.267
REMARK  Name = 
REMARK  7 active torsions:
REMARK  status: ('A' for Active; 'I' for Inactive)
REMARK    1  A    between atoms: C_1  and  C_2
REMARK    2  A    between atoms: N_4  and  C_5
REMARK    3  A    between atoms: C_9  and  N_10
REMARK    4  A    between atoms: C_18  and  O_19
REMARK    5  A    between atoms: O_19  and  C_20
REMARK    6  A    between atoms: C_20  and  C_21
REMARK    7  A    between atoms: C_21  and  C_22
REMARK                            x       y       z     vdW  Elec       q    Type
REMARK                         _______ _______ _______ _____ _____    ______ ____
ROOT
ATOM      1  C   UNL     1      10.547  49.679  47.310  0.00  0.00    +0.000 C 
ATOM      2  C   UNL     1      11.764  49.351  46.528  0.00  0.00    +0.000 A 
ATOM      3  N   UNL     1      12.480  50.318  45.939  0.00  0.00    +0.000 NA
ATOM      4  N   UNL     1      13.516  49.681  45.313  0.00  0.00    +0.000 N 
ATOM      5  C   UNL     1      13.434  48.316  45.518  0.00  0.00    +0.000 A 
ATOM      6  O   UNL     1      14.279  47.395  45.053  0.00  0.00    +0.000 OA
ATOM      7  C   UNL     1      14.004  46.079  45.383  0.00  0.00    +0.000 A 
ATOM      8  C   UNL     1      14.881  45.109  44.903  0.00  0.00    +0.000 A 
ATOM      9  C   UNL     1      14.664  43.758  45.197  0.00  0.00    +0.000 A 
ATOM     10  C   UNL     1      13.564  43.386  45.978  0.00  0.00    +0.000 A 
ATOM     11  C   UNL     1      12.679  44.356  46.464  0.00  0.00    +0.000 A 
ATOM     12  C   UNL     1      12.898  45.703  46.168  0.00  0.00    +0.000 A 
ATOM     13  C   UNL     1      11.965  46.749  46.678  0.00  0.00    +0.000 A 
ATOM     14  O   UNL     1      10.989  46.475  47.364  0.00  0.00    +0.000 OA
ATOM     15  C   UNL     1      12.322  48.088  46.291  0.00  0.00    +0.000 A 
ENDROOT
BRANCH   4  16
ATOM     16  C   UNL     1      14.478  50.446  44.582  0.00  0.00    +0.000 A 
ATOM     17  C   UNL     1      14.035  51.265  43.526  0.00  0.00    +0.000 A 
ATOM     18  C   UNL     1      14.936  52.031  42.780  0.00  0.00    +0.000 A 
ATOM     19  C   UNL     1      16.296  51.993  43.079  0.00  0.00    +0.000 A 
ATOM     20  C   UNL     1      16.745  51.181  44.126  0.00  0.00    +0.000 A 
ATOM     21  C   UNL     1      15.846  50.408  44.881  0.00  0.00    +0.000 A 
BRANCH  20  22
ATOM     22  N   UNL     1      18.180  51.139  44.443  0.00  0.00    +0.000 N 
ATOM     23  O   UNL     1      18.750  50.039  44.394  0.00  0.00    +0.000 OA
ATOM     24  O   UNL     1      18.736  52.205  44.741  0.00  0.00    +0.000 OA
ENDBRANCH  20  22
ENDBRANCH   4  16
BRANCH   9  25
ATOM     25  O   UNL     1      15.595  42.908  44.667  0.00  0.00    +0.000 OA
BRANCH  25  26
ATOM     26  C   UNL     1      16.135  43.244  43.387  0.00  0.00    +0.000 C 
BRANCH  26  27
ATOM     27  C   UNL     1      15.650  42.202  42.380  0.00  0.00    +0.000 C 
BRANCH  27  28
ATOM     28  C   UNL     1      14.813  42.818  41.290  0.00  0.00    +0.000 A 
ATOM     29  C   UNL     1      14.535  44.192  41.299  0.00  0.00    +0.000 A 
ATOM     30  C   UNL     1      13.740  44.758  40.301  0.00  0.00    +0.000 A 
ATOM     31  C   UNL     1      13.213  43.958  39.289  0.00  0.00    +0.000 A 
ATOM     32  C   UNL     1      13.481  42.591  39.273  0.00  0.00    +0.000 A 
ATOM     33  C   UNL     1      14.276  42.021  40.270  0.00  0.00    +0.000 A 
ENDBRANCH  27  28
ENDBRANCH  26  27
ENDBRANCH  25  26
ENDBRANCH   9  25
TORSDOF 6
ENDMDL
MODEL 3
REMARK VINA RESULT:    -6.745      1.646      1.958
REMARK INTER + INTRA:         -10.378
REMARK INTER:                  -9.620
REMARK INTRA:                  -0.758
REMARK UNBOUND:                -1.267
REMARK  Name = 
REMARK  7 active torsions:
REMARK  status: ('A' for Active; 'I' for Inactive)
REMARK    1  A    between atoms: C_1  and  C_2
REMARK    2  A    between atoms: N_4  and  C_5
REMARK    3  A    between atoms: C_9  and  N_10
REMARK    4  A    between atoms: C_18  and  O_19
REMARK    5  A    between atoms: O_19  and  C_20
REMARK    6  A    between atoms: C_20  and  C_21
REMARK    7  A    between atoms: C_21  and  C_22
REMARK                            x       y       z     vdW  Elec       q    Type
REMARK                         _______ _______ _______ _____ _____    ______ ____
ROOT
ATOM      1  C   UNL     1      16.316  42.104  42.489  0.00  0.00    +0.000 C 
ATOM      2  C   UNL     1      15.642  42.520  43.743  0.00  0.00    +0.000 A 
ATOM      3  N   UNL     1      15.063  43.724  43.842  0.00  0.00    +0.000 NA
ATOM      4  N   UNL     1      14.547  43.783  45.107  0.00  0.00    +0.000 N 
ATOM      5  C   UNL     1      14.812  42.608  45.789  0.00  0.00    +0.000 A 
ATOM      6  O   UNL     1      14.455  42.324  47.042  0.00  0.00    +0.000 OA
ATOM      7  C   UNL     1      14.826  41.082  47.526  0.00  0.00    +0.000 A 
ATOM      8  C   UNL     1      14.457  40.774  48.833  0.00  0.00    +0.000 A 
ATOM      9  C   UNL     1      14.800  39.535  49.387  0.00  0.00    +0.000 A 
ATOM     10  C   UNL     1      15.515  38.607  48.622  0.00  0.00    +0.000 A 
ATOM     11  C   UNL     1      15.889  38.910  47.307  0.00  0.00    +0.000 A 
ATOM     12  C   UNL     1      15.545  40.147  46.757  0.00  0.00    +0.000 A 
ATOM     13  C   UNL     1      15.936  40.485  45.358  0.00  0.00    +0.000 A 
ATOM     14  O   UNL     1      16.561  39.708  44.648  0.00  0.00    +0.000 OA
ATOM     15  C   UNL     1      15.511  41.792  44.933  0.00  0.00    +0.000 A 
ENDROOT
BRANCH   4  16
ATOM     16  C   UNL     1      13.853  44.958  45.534  0.00  0.00    +0.000 A 
ATOM     17  C   UNL     1      14.430  46.217  45.282  0.00  0.00    +0.000 A 
ATOM     18  C   UNL     1      13.790  47.396  45.680  0.00  0.00    +0.000 A 
ATOM     19  C   UNL     1      12.563  47.336  46.336  0.00  0.00    +0.000 A 
ATOM     20  C   UNL     1      11.984  46.088  46.592  0.00  0.00    +0.000 A 
ATOM     21  C   UNL     1      12.619  44.898  46.195  0.00  0.00    +0.000 A 
BRANCH  20  22
ATOM     22  N   UNL     1      10.689  46.021  47.285  0.00  0.00    +0.000 N 
ATOM     23  O   UNL     1      10.504  46.791  48.239  0.00  0.00    +0.000 OA
ATOM     24  O   UNL     1       9.858  45.199  46.876  0.00  0.00    +0.000 OA
ENDBRANCH  20  22
ENDBRANCH   4  16
BRANCH   9  25
ATOM     25  O   UNL     1      14.380  39.358  50.676  0.00  0.00    +0.000 OA
BRANCH  25  26
ATOM     26  C   UNL     1      15.378  39.383  51.700  0.00  0.00    +0.000 C 
BRANCH  26  27
ATOM     27  C   UNL     1      16.157  40.691  51.568  0.00  0.00    +0.000 C 
BRANCH  27  28
ATOM     28  C   UNL     1      15.475  41.828  52.282  0.00  0.00    +0.000 A 
ATOM     29  C   UNL     1      16.201  42.964  52.664  0.00  0.00    +0.000 A 
ATOM     30  C   UNL     1      15.572  44.008  53.346  0.00  0.00    +0.000 A 
ATOM     31  C   UNL     1      14.216  43.924  53.655  0.00  0.00    +0.000 A 
ATOM     32  C   UNL     1      13.486  42.797  53.282  0.00  0.00    +0.000 A 
ATOM     33  C   UNL     1      14.112  41.752  52.600  0.00  0.00    +0.000 A 
ENDBRANCH  27  28
ENDBRANCH  26  27
ENDBRANCH  25  26
ENDBRANCH   9  25
TORSDOF 6
ENDMDL
