REMARK SMILES Cc1ccc(OCC(=O)Nc2nc(-c3ccccn3)cs2)c(C)c1
REMARK SMILES IDX 7 1 6 2 5 3 2 4 3 5 24 6 4 7 22 8 1 9 23 10 8 11 9 12 10 13
REMARK SMILES IDX 11 15 12 16 21 17 13 18 20 19 14 20 15 21 19 22 16 23 18 24
REMARK SMILES IDX 17 25
REMARK H PARENT 10 14
ROOT
ATOM      1  C   UNL     1      -1.974   3.550  -0.634  1.00  0.00     0.329 C 
ENDROOT
BRANCH   1   2
ATOM      2  O   UNL     1      -3.069   2.892   0.003  1.00  0.00    -0.483 OA
BRANCH   2   3
ATOM      3  C   UNL     1      -2.662   1.917   0.875  1.00  0.00     0.123 A 
ATOM      4  C   UNL     1      -1.749  -0.085   2.602  1.00  0.00    -0.051 A 
ATOM      5  C   UNL     1      -1.553   1.263   2.921  1.00  0.00     0.007 A 
ATOM      6  C   UNL     1      -2.425  -0.419   1.417  1.00  0.00     0.010 A 
ATOM      7  C   UNL     1      -2.021   2.262   2.068  1.00  0.00     0.047 A 
ATOM      8  C   UNL     1      -2.914   0.576   0.557  1.00  0.00    -0.009 A 
ATOM      9  C   UNL     1      -1.214  -1.171   3.490  1.00  0.00     0.044 C 
ATOM     10  C   UNL     1      -3.615   0.184  -0.714  1.00  0.00     0.048 C 
ENDBRANCH   2   3
ENDBRANCH   1   2
BRANCH   1  11
ATOM     11  C   UNL     1      -1.224   2.702  -1.675  1.00  0.00     0.264 C 
ATOM     12  O   UNL     1      -1.509   2.777  -2.866  1.00  0.00    -0.271 OA
ATOM     13  N   UNL     1      -0.250   1.910  -1.103  1.00  0.00    -0.299 N 
ATOM     14  H   UNL     1      -0.142   1.904  -0.097  1.00  0.00     0.172 HD
BRANCH  13  15
ATOM     15  C   UNL     1       0.539   0.978  -1.720  1.00  0.00     0.190 A 
ATOM     16  N   UNL     1       1.381   0.253  -1.020  1.00  0.00    -0.218 NA
ATOM     17  S   UNL     1       0.497   0.674  -3.393  1.00  0.00    -0.105 S 
ATOM     18  C   UNL     1       2.049  -0.633  -1.861  1.00  0.00     0.102 A 
ATOM     19  C   UNL     1       1.690  -0.540  -3.193  1.00  0.00     0.099 A 
BRANCH  18  20
ATOM     20  C   UNL     1       3.045  -1.578  -1.357  1.00  0.00     0.090 A 
ATOM     21  C   UNL     1       3.327  -1.643   0.006  1.00  0.00     0.031 A 
ATOM     22  N   UNL     1       3.663  -2.370  -2.271  1.00  0.00    -0.255 NA
ATOM     23  C   UNL     1       4.281  -2.553   0.453  1.00  0.00     0.004 A 
ATOM     24  C   UNL     1       4.585  -3.242  -1.806  1.00  0.00     0.112 A 
ATOM     25  C   UNL     1       4.925  -3.369  -0.469  1.00  0.00     0.020 A 
ENDBRANCH  18  20
ENDBRANCH  13  15
ENDBRANCH   1  11
TORSDOF 5
