REMARK SMILES O=S(=O)(NCc1ccccc1)c1ccc(-n2cccn2)cc1
REMARK SMILES IDX 1 1 2 2 3 3 4 4 5 6 6 7 7 8 11 9 8 10 10 11 9 12 12 13 13 14
REMARK SMILES IDX 22 15 14 16 21 17 15 18 16 19 17 20 20 21 18 22 19 23
REMARK H PARENT 4 5
ROOT
ATOM      1  O   UNL     1      -0.448  -3.418   1.621  1.00  0.00    -0.207 OA
ATOM      2  S   UNL     1      -0.558  -2.688   0.378  1.00  0.00     0.240 S 
ATOM      3  O   UNL     1      -0.753  -3.357  -0.889  1.00  0.00    -0.207 OA
ENDROOT
BRANCH   2   4
ATOM      4  N   UNL     1      -1.793  -1.584   0.574  1.00  0.00    -0.207 NA
ATOM      5  H   UNL     1      -2.016  -1.340   1.536  1.00  0.00     0.141 HD
BRANCH   4   6
ATOM      6  C   UNL     1      -2.050  -0.601  -0.470  1.00  0.00     0.134 C 
BRANCH   6   7
ATOM      7  C   UNL     1      -3.377   0.082  -0.247  1.00  0.00    -0.033 A 
ATOM      8  C   UNL     1      -3.438   1.413   0.190  1.00  0.00     0.005 A 
ATOM      9  C   UNL     1      -4.573  -0.622  -0.450  1.00  0.00     0.005 A 
ATOM     10  C   UNL     1      -4.671   2.030   0.406  1.00  0.00     0.000 A 
ATOM     11  C   UNL     1      -5.805  -0.003  -0.233  1.00  0.00     0.000 A 
ATOM     12  C   UNL     1      -5.853   1.322   0.194  1.00  0.00     0.000 A 
ENDBRANCH   6   7
ENDBRANCH   4   6
ENDBRANCH   2   4
BRANCH   2  13
ATOM     13  C   UNL     1       0.875  -1.647   0.238  1.00  0.00     0.082 A 
ATOM     14  C   UNL     1       1.385  -1.032   1.383  1.00  0.00     0.024 A 
ATOM     15  C   UNL     1       1.493  -1.470  -1.003  1.00  0.00     0.024 A 
ATOM     16  C   UNL     1       2.510  -0.211   1.279  1.00  0.00     0.030 A 
ATOM     17  C   UNL     1       2.622  -0.650  -1.106  1.00  0.00     0.030 A 
ATOM     18  C   UNL     1       3.134  -0.012   0.035  1.00  0.00     0.065 A 
BRANCH  18  19
ATOM     19  N   UNL     1       4.281   0.830  -0.043  1.00  0.00    -0.241 N 
ATOM     20  C   UNL     1       5.041   1.138  -1.152  1.00  0.00     0.115 A 
ATOM     21  N   UNL     1       4.757   1.462   1.063  1.00  0.00    -0.177 NA
ATOM     22  C   UNL     1       6.038   1.989  -0.739  1.00  0.00     0.042 A 
ATOM     23  C   UNL     1       5.813   2.152   0.634  1.00  0.00     0.135 A 
ENDBRANCH  18  19
ENDBRANCH   2  13
TORSDOF 5
