REMARK SMILES O=c1cc(-c2ccc(O)cc2)oc2cc(O)cc(O)c12
REMARK SMILES IDX 4 1 3 2 2 3 1 4 20 5 18 6 17 7 15 8 14 9 13 10 12 11 5 12
REMARK SMILES IDX 6 13 7 14 8 15 11 16 10 17 9 18 19 20 16 22
REMARK H PARENT 9 19 19 21 16 23
ROOT
ATOM      1  C   UNL     1      -0.555  -0.351   0.252  1.00  0.00     0.138 C 
ATOM      2  C   UNL     1      -0.171  -1.289   1.131  1.00  0.00     0.100 C 
ATOM      3  C   UNL     1       1.263  -1.486   1.382  1.00  0.00     0.197 C 
ATOM      4  O   UNL     1       1.669  -2.333   2.171  1.00  0.00    -0.289 OA
ATOM      5  C   UNL     1       2.195  -0.624   0.647  1.00  0.00     0.107 A 
ATOM      6  C   UNL     1       3.581  -0.730   0.812  1.00  0.00     0.134 A 
ATOM      7  C   UNL     1       4.438   0.104   0.099  1.00  0.00     0.093 A 
ATOM      8  C   UNL     1       3.898   1.043  -0.776  1.00  0.00     0.123 A 
ATOM      9  C   UNL     1       2.521   1.158  -0.948  1.00  0.00     0.094 A 
ATOM     10  C   UNL     1       1.668   0.319  -0.232  1.00  0.00     0.146 A 
ATOM     11  O   UNL     1       0.320   0.475  -0.438  1.00  0.00    -0.456 OA
ENDROOT
BRANCH   1  12
ATOM     12  C   UNL     1      -1.980  -0.096  -0.037  1.00  0.00     0.018 A 
ATOM     13  C   UNL     1      -2.445   1.224  -0.158  1.00  0.00     0.016 A 
ATOM     14  C   UNL     1      -3.789   1.489  -0.440  1.00  0.00     0.047 A 
ATOM     15  C   UNL     1      -4.672   0.430  -0.610  1.00  0.00     0.115 A 
ATOM     16  C   UNL     1      -2.891  -1.147  -0.223  1.00  0.00     0.016 A 
ATOM     17  C   UNL     1      -4.234  -0.884  -0.506  1.00  0.00     0.047 A 
BRANCH  15  18
ATOM     18  O   UNL     1      -5.990   0.639  -0.888  1.00  0.00    -0.508 OA
ATOM     19  H   UNL     1      -6.149   1.596  -0.939  1.00  0.00     0.293 HD
ENDBRANCH  15  18
ENDBRANCH   1  12
BRANCH   6  20
ATOM     20  O   UNL     1       4.163  -1.634   1.659  1.00  0.00    -0.507 OA
ATOM     21  H   UNL     1       3.448  -2.153   2.094  1.00  0.00     0.293 HD
ENDBRANCH   6  20
BRANCH   8  22
ATOM     22  O   UNL     1       4.697   1.882  -1.495  1.00  0.00    -0.508 OA
ATOM     23  H   UNL     1       5.627   1.689  -1.283  1.00  0.00     0.293 HD
ENDBRANCH   8  22
TORSDOF 4
