REMARK SMILES Cc1ccccc1-c1nc(-c2cccnc2)no1
REMARK SMILES IDX 1 1 2 2 3 3 4 4 5 5 6 6 7 7 8 8 9 9 18 10 10 11 17 12 11 13
REMARK SMILES IDX 12 14 16 15 13 16 15 17 14 18
REMARK H PARENT
ROOT
ATOM      1  C   UNL     1      -2.942   1.941  -0.733  1.00  0.00     0.045 C 
ATOM      2  C   UNL     1      -3.062   0.592  -0.074  1.00  0.00    -0.038 A 
ATOM      3  C   UNL     1      -4.351   0.156   0.291  1.00  0.00     0.004 A 
ATOM      4  C   UNL     1      -4.546  -1.071   0.924  1.00  0.00     0.000 A 
ATOM      5  C   UNL     1      -3.457  -1.884   1.203  1.00  0.00     0.001 A 
ATOM      6  C   UNL     1      -2.175  -1.473   0.838  1.00  0.00     0.014 A 
ATOM      7  C   UNL     1      -1.951  -0.243   0.185  1.00  0.00     0.043 A 
ENDROOT
BRANCH   7   8
ATOM      8  C   UNL     1      -0.568   0.080  -0.166  1.00  0.00     0.258 A 
ATOM      9  N   UNL     1       0.552  -0.402   0.329  1.00  0.00    -0.187 NA
ATOM     10  O   UNL     1      -0.354   0.958  -1.189  1.00  0.00    -0.334 OA
ATOM     11  C   UNL     1       1.519   0.238  -0.415  1.00  0.00     0.204 A 
ATOM     12  N   UNL     1       1.025   1.072  -1.345  1.00  0.00    -0.057 NA
BRANCH  11  13
ATOM     13  C   UNL     1       2.938   0.014  -0.199  1.00  0.00     0.041 A 
ATOM     14  C   UNL     1       3.919   0.654  -0.964  1.00  0.00     0.015 A 
ATOM     15  C   UNL     1       3.377  -0.859   0.791  1.00  0.00     0.123 A 
ATOM     16  C   UNL     1       5.268   0.402  -0.715  1.00  0.00     0.021 A 
ATOM     17  N   UNL     1       4.682  -1.124   1.056  1.00  0.00    -0.264 NA
ATOM     18  C   UNL     1       5.596  -0.486   0.295  1.00  0.00     0.111 A 
ENDBRANCH  11  13
ENDBRANCH   7   8
TORSDOF 2
