REMARK SMILES O=c1[nH]nc(SCc2ccccc2Cl)c(=O)[nH]1
REMARK SMILES IDX 6 1 5 2 1 3 2 4 3 5 17 6 4 7 15 8 16 9 7 12 8 13 9 14 13 15
REMARK SMILES IDX 10 16 12 17 11 18 14 19
REMARK H PARENT 3 10 17 11
ROOT
ATOM      1  S   UNL     1      -0.631   0.365  -1.135  1.00  0.00    -0.094 SA
ENDROOT
BRANCH   1   2
ATOM      2  C   UNL     1      -2.196   0.008  -0.516  1.00  0.00     0.182 C 
ATOM      3  O   UNL     1      -5.847  -0.195   0.999  1.00  0.00    -0.246 OA
ATOM      4  C   UNL     1      -4.733  -0.071   0.499  1.00  0.00     0.342 C 
ATOM      5  N   UNL     1      -4.156  -1.066  -0.254  1.00  0.00    -0.227 N 
ATOM      6  N   UNL     1      -3.988   1.054   0.695  1.00  0.00    -0.271 N 
ATOM      7  N   UNL     1      -2.911  -1.023  -0.826  1.00  0.00    -0.159 NA
ATOM      8  C   UNL     1      -2.644   1.101   0.437  1.00  0.00     0.286 C 
ATOM      9  O   UNL     1      -1.892   1.890   0.987  1.00  0.00    -0.266 OA
ATOM     10  H   UNL     1      -4.715  -1.894  -0.442  1.00  0.00     0.195 HD
ATOM     11  H   UNL     1      -4.353   1.716   1.362  1.00  0.00     0.175 HD
ENDBRANCH   1   2
BRANCH   1  12
ATOM     12  C   UNL     1       0.347  -0.429   0.170  1.00  0.00     0.113 C 
BRANCH  12  13
ATOM     13  C   UNL     1       1.827  -0.232  -0.047  1.00  0.00    -0.019 A 
ATOM     14  C   UNL     1       2.440   0.922   0.477  1.00  0.00     0.006 A 
ATOM     15  C   UNL     1       2.619  -1.134  -0.776  1.00  0.00     0.045 A 
ATOM     16  C   UNL     1       3.803   1.158   0.292  1.00  0.00     0.000 A 
ATOM     17  C   UNL     1       3.985  -0.895  -0.958  1.00  0.00     0.021 A 
ATOM     18  C   UNL     1       4.577   0.249  -0.423  1.00  0.00     0.002 A 
ATOM     19  Cl  UNL     1       1.961  -2.570  -1.478  1.00  0.00    -0.084 Cl
ENDBRANCH  12  13
ENDBRANCH   1  12
TORSDOF 3
