REMARK SMILES O=c1c(-c2ccc(O)cc2)coc2cc(O)cc(O)c12
REMARK SMILES IDX 3 1 11 2 12 3 13 4 14 5 15 6 17 7 18 8 20 9 2 10 1 11 4 12
REMARK SMILES IDX 5 13 6 14 7 15 10 16 9 17 8 18 19 20 16 22
REMARK H PARENT 8 19 19 21 16 23
ROOT
ATOM      1  C   UNL     1      -0.506  -0.290  -0.299  1.00  0.00     0.065 C 
ATOM      2  C   UNL     1      -0.036  -1.192  -1.175  1.00  0.00     0.208 C 
ATOM      3  O   UNL     1       1.282  -1.482  -1.432  1.00  0.00    -0.463 OA
ATOM      4  C   UNL     1       2.237  -0.795  -0.726  1.00  0.00     0.145 A 
ATOM      5  C   UNL     1       3.570  -1.101  -1.000  1.00  0.00     0.094 A 
ATOM      6  C   UNL     1       4.581  -0.435  -0.313  1.00  0.00     0.123 A 
ATOM      7  C   UNL     1       4.283   0.531   0.644  1.00  0.00     0.093 A 
ATOM      8  C   UNL     1       2.949   0.831   0.912  1.00  0.00     0.134 A 
ATOM      9  C   UNL     1       1.921   0.169   0.228  1.00  0.00     0.107 A 
ATOM     10  C   UNL     1       0.504   0.466   0.491  1.00  0.00     0.204 C 
ATOM     11  O   UNL     1       0.208   1.310   1.332  1.00  0.00    -0.288 OA
ENDROOT
BRANCH   1  12
ATOM     12  C   UNL     1      -1.956  -0.097  -0.122  1.00  0.00    -0.011 A 
ATOM     13  C   UNL     1      -2.528  -0.150   1.157  1.00  0.00     0.013 A 
ATOM     14  C   UNL     1      -3.904   0.024   1.329  1.00  0.00     0.047 A 
ATOM     15  C   UNL     1      -4.712   0.256   0.224  1.00  0.00     0.115 A 
ATOM     16  C   UNL     1      -2.792   0.145  -1.224  1.00  0.00     0.013 A 
ATOM     17  C   UNL     1      -4.169   0.320  -1.053  1.00  0.00     0.047 A 
BRANCH  15  18
ATOM     18  O   UNL     1      -6.048   0.420   0.438  1.00  0.00    -0.508 OA
ATOM     19  H   UNL     1      -6.480   0.604  -0.412  1.00  0.00     0.293 HD
ENDBRANCH  15  18
ENDBRANCH   1  12
BRANCH   8  20
ATOM     20  O   UNL     1       2.716   1.790   1.862  1.00  0.00    -0.507 OA
ATOM     21  H   UNL     1       1.742   1.905   1.947  1.00  0.00     0.293 HD
ENDBRANCH   8  20
BRANCH   6  22
ATOM     22  O   UNL     1       5.871  -0.763  -0.610  1.00  0.00    -0.508 OA
ATOM     23  H   UNL     1       6.466  -0.227  -0.058  1.00  0.00     0.293 HD
ENDBRANCH   6  22
TORSDOF 4
