REMARK SMILES O=c1cc(-c2ccccc2)oc2cc(O)cc(O)c12
REMARK SMILES IDX 4 1 3 2 2 3 1 4 19 5 17 6 16 7 14 8 13 9 12 10 11 11 5 12
REMARK SMILES IDX 8 13 7 14 9 15 6 16 10 17 18 18 15 20
REMARK H PARENT 18 19 15 21
ROOT
ATOM      1  C   UNL     1      -0.774  -0.278  -0.294  1.00  0.00     0.138 C 
ATOM      2  C   UNL     1      -0.385  -1.189  -1.199  1.00  0.00     0.100 C 
ATOM      3  C   UNL     1       1.049  -1.359  -1.467  1.00  0.00     0.197 C 
ATOM      4  O   UNL     1       1.459  -2.172  -2.288  1.00  0.00    -0.289 OA
ATOM      5  C   UNL     1       1.977  -0.512  -0.709  1.00  0.00     0.107 A 
ATOM      6  C   UNL     1       3.362  -0.594  -0.888  1.00  0.00     0.134 A 
ATOM      7  C   UNL     1       4.214   0.225  -0.152  1.00  0.00     0.093 A 
ATOM      8  C   UNL     1       3.670   1.123   0.763  1.00  0.00     0.123 A 
ATOM      9  C   UNL     1       2.293   1.213   0.950  1.00  0.00     0.094 A 
ATOM     10  C   UNL     1       1.445   0.390   0.209  1.00  0.00     0.146 A 
ATOM     11  O   UNL     1       0.097   0.519   0.433  1.00  0.00    -0.456 OA
ENDROOT
BRANCH   1  12
ATOM     12  C   UNL     1      -2.199  -0.067   0.028  1.00  0.00     0.017 A 
ATOM     13  C   UNL     1      -4.901   0.363   0.680  1.00  0.00     0.000 A 
ATOM     14  C   UNL     1      -3.941   0.309   1.687  1.00  0.00     0.001 A 
ATOM     15  C   UNL     1      -4.521   0.211  -0.651  1.00  0.00     0.001 A 
ATOM     16  C   UNL     1      -2.598   0.099   1.363  1.00  0.00     0.012 A 
ATOM     17  C   UNL     1      -3.178   0.000  -0.976  1.00  0.00     0.012 A 
ENDBRANCH   1  12
BRANCH   6  18
ATOM     18  O   UNL     1       3.949  -1.458  -1.773  1.00  0.00    -0.507 OA
ATOM     19  H   UNL     1       3.236  -1.971  -2.219  1.00  0.00     0.293 HD
ENDBRANCH   6  18
BRANCH   8  20
ATOM     20  O   UNL     1       4.464   1.944   1.507  1.00  0.00    -0.508 OA
ATOM     21  H   UNL     1       5.393   1.779   1.274  1.00  0.00     0.293 HD
ENDBRANCH   8  20
TORSDOF 3
