REMARK SMILES Nc1ccccc1Nc1c(F)c(F)nc(F)c1Cl
REMARK SMILES IDX 2 1 3 2 4 3 5 4 6 5 7 6 1 7 8 10 9 12 10 13 17 14 12 15
REMARK SMILES IDX 15 16 14 17 11 18 18 19 13 20 16 21
REMARK H PARENT 1 8 1 9 8 11
ROOT
ATOM      1  C   UNL     1      -2.112   0.614   0.620  1.00  0.00     0.055 A 
ATOM      2  C   UNL     1      -3.237  -0.160   0.918  1.00  0.00     0.028 A 
ATOM      3  C   UNL     1      -3.145  -1.551   0.953  1.00  0.00     0.002 A 
ATOM      4  C   UNL     1      -1.938  -2.175   0.649  1.00  0.00     0.002 A 
ATOM      5  C   UNL     1      -0.826  -1.413   0.281  1.00  0.00     0.028 A 
ATOM      6  C   UNL     1      -0.906  -0.018   0.227  1.00  0.00     0.062 A 
ENDROOT
BRANCH   1   7
ATOM      7  N   UNL     1      -2.236   2.021   0.513  1.00  0.00    -0.397 N 
ATOM      8  H   UNL     1      -1.355   2.471   0.755  1.00  0.00     0.156 HD
ATOM      9  H   UNL     1      -2.997   2.384   1.080  1.00  0.00     0.156 HD
ENDBRANCH   1   7
BRANCH   6  10
ATOM     10  N   UNL     1       0.165   0.816  -0.195  1.00  0.00    -0.350 N 
ATOM     11  H   UNL     1      -0.227   1.526  -0.821  1.00  0.00     0.167 HD
BRANCH  10  12
ATOM     12  C   UNL     1       1.516   0.507  -0.479  1.00  0.00     0.103 A 
ATOM     13  C   UNL     1       2.292  -0.319   0.342  1.00  0.00     0.203 A 
ATOM     14  C   UNL     1       2.150   1.060  -1.605  1.00  0.00     0.122 A 
ATOM     15  C   UNL     1       3.614  -0.575   0.004  1.00  0.00     0.253 A 
ATOM     16  C   UNL     1       3.482   0.740  -1.858  1.00  0.00     0.236 A 
ATOM     17  N   UNL     1       4.232  -0.071  -1.083  1.00  0.00    -0.187 NA
ATOM     18  F   UNL     1       1.792  -0.839   1.474  1.00  0.00    -0.200 F 
ATOM     19  Cl  UNL     1       1.297   2.121  -2.671  1.00  0.00    -0.077 Cl
ATOM     20  F   UNL     1       4.341  -1.369   0.804  1.00  0.00    -0.181 F 
ATOM     21  F   UNL     1       4.088   1.260  -2.937  1.00  0.00    -0.183 F 
ENDBRANCH  10  12
ENDBRANCH   6  10
TORSDOF 3
