REMARK SMILES CCn1c(=O)c(C(=O)Nc2cccnc2)c(O)c2ccccc21
REMARK SMILES IDX 3 1 4 2 5 3 6 4 16 5 18 6 19 7 20 8 21 9 22 10 23 11 2 12
REMARK SMILES IDX 1 13 7 14 8 15 9 16 10 18 11 19 15 20 12 21 14 22 13 23
REMARK SMILES IDX 17 24
REMARK H PARENT 9 17 17 25
ROOT
ATOM      1  N   UNL     1      -2.241  -0.792   0.514  1.00  0.00    -0.308 N 
ATOM      2  C   UNL     1      -0.946  -1.260   0.272  1.00  0.00     0.267 C 
ATOM      3  O   UNL     1      -0.638  -2.442   0.420  1.00  0.00    -0.268 OA
ATOM      4  C   UNL     1       0.082  -0.271  -0.149  1.00  0.00     0.147 C 
ATOM      5  C   UNL     1      -0.223   1.035  -0.233  1.00  0.00     0.143 C 
ATOM      6  C   UNL     1      -1.571   1.524   0.098  1.00  0.00     0.041 A 
ATOM      7  C   UNL     1      -1.874   2.899   0.100  1.00  0.00     0.014 A 
ATOM      8  C   UNL     1      -3.166   3.349   0.363  1.00  0.00     0.001 A 
ATOM      9  C   UNL     1      -4.171   2.431   0.631  1.00  0.00     0.002 A 
ATOM     10  C   UNL     1      -3.879   1.065   0.662  1.00  0.00     0.027 A 
ATOM     11  C   UNL     1      -2.577   0.594   0.419  1.00  0.00     0.055 A 
ENDROOT
BRANCH   1  12
ATOM     12  C   UNL     1      -3.249  -1.789   0.882  1.00  0.00     0.122 C 
ATOM     13  C   UNL     1      -4.014  -2.299  -0.331  1.00  0.00     0.028 C 
ENDBRANCH   1  12
BRANCH   4  14
ATOM     14  C   UNL     1       1.431  -0.754  -0.574  1.00  0.00     0.265 C 
ATOM     15  O   UNL     1       1.530  -1.654  -1.400  1.00  0.00    -0.269 OA
ATOM     16  N   UNL     1       2.476  -0.080   0.030  1.00  0.00    -0.320 N 
ATOM     17  H   UNL     1       2.222   0.732   0.582  1.00  0.00     0.170 HD
BRANCH  16  18
ATOM     18  C   UNL     1       3.856  -0.324  -0.127  1.00  0.00     0.059 A 
ATOM     19  C   UNL     1       4.392  -1.391  -0.843  1.00  0.00     0.029 A 
ATOM     20  C   UNL     1       4.762   0.546   0.480  1.00  0.00     0.137 A 
ATOM     21  C   UNL     1       5.777  -1.541  -0.930  1.00  0.00     0.022 A 
ATOM     22  N   UNL     1       6.111   0.429   0.416  1.00  0.00    -0.263 NA
ATOM     23  C   UNL     1       6.586  -0.616  -0.292  1.00  0.00     0.111 A 
ENDBRANCH  16  18
ENDBRANCH   4  14
BRANCH   5  24
ATOM     24  O   UNL     1       0.700   1.970  -0.671  1.00  0.00    -0.506 OA
ATOM     25  H   UNL     1       0.255   2.540  -1.326  1.00  0.00     0.293 HD
ENDBRANCH   5  24
TORSDOF 4
