REMARK SMILES COC(=O)C1=C(c2ccc(-c3ccccc3)c(F)c2)C[C@@H]2CC[C@H]1N2C(=O)NC(C)C
REMARK SMILES IDX 5 1 6 2 20 3 21 4 22 5 23 6 24 7 25 8 3 9 4 10 2 11 1 12
REMARK SMILES IDX 7 13 8 14 19 15 9 16 17 17 10 18 18 19 11 20 12 21 16 22
REMARK SMILES IDX 13 23 15 24 14 25 26 26 27 27 28 28 29 30 30 31 31 32
REMARK H PARENT 28 29
ROOT
ATOM      1  C   UNL     1      -1.040  -1.394   0.246  1.00  0.00     0.064 C 
ATOM      2  C   UNL     1      -0.283  -0.577   1.023  1.00  0.00    -0.026 C 
ATOM      3  C   UNL     1      -0.839  -0.046   2.347  1.00  0.00     0.062 C 
ATOM      4  C   UNL     1      -2.247  -0.618   2.662  1.00  0.00     0.092 C 
ATOM      5  C   UNL     1      -2.177  -2.108   3.039  1.00  0.00     0.028 C 
ATOM      6  C   UNL     1      -2.408  -2.864   1.717  1.00  0.00     0.032 C 
ATOM      7  C   UNL     1      -2.459  -1.762   0.653  1.00  0.00     0.125 C 
ATOM      8  N   UNL     1      -3.000  -0.644   1.418  1.00  0.00    -0.314 N 
ENDROOT
BRANCH   1   9
ATOM      9  C   UNL     1      -0.621  -1.992  -1.045  1.00  0.00     0.336 C 
ATOM     10  O   UNL     1      -1.374  -2.115  -1.999  1.00  0.00    -0.247 OA
BRANCH   9  11
ATOM     11  O   UNL     1       0.650  -2.455  -0.971  1.00  0.00    -0.466 OA
ATOM     12  C   UNL     1       1.129  -3.039  -2.182  1.00  0.00     0.282 C 
ENDBRANCH   9  11
ENDBRANCH   1   9
BRANCH   2  13
ATOM     13  C   UNL     1       1.059  -0.095   0.662  1.00  0.00    -0.019 A 
ATOM     14  C   UNL     1       2.177  -0.472   1.413  1.00  0.00     0.009 A 
ATOM     15  C   UNL     1       1.234   0.752  -0.435  1.00  0.00     0.048 A 
ATOM     16  C   UNL     1       3.454  -0.016   1.063  1.00  0.00     0.012 A 
ATOM     17  C   UNL     1       2.510   1.201  -0.776  1.00  0.00     0.131 A 
ATOM     18  C   UNL     1       3.648   0.830  -0.043  1.00  0.00     0.017 A 
ATOM     19  F   UNL     1       2.626   2.002  -1.847  1.00  0.00    -0.206 F 
BRANCH  18  20
ATOM     20  C   UNL     1       4.997   1.302  -0.404  1.00  0.00    -0.015 A 
ATOM     21  C   UNL     1       6.072   0.403  -0.527  1.00  0.00     0.009 A 
ATOM     22  C   UNL     1       5.256   2.665  -0.629  1.00  0.00     0.009 A 
ATOM     23  C   UNL     1       7.354   0.849  -0.861  1.00  0.00     0.001 A 
ATOM     24  C   UNL     1       6.538   3.113  -0.962  1.00  0.00     0.001 A 
ATOM     25  C   UNL     1       7.586   2.205  -1.077  1.00  0.00     0.000 A 
ENDBRANCH  18  20
ENDBRANCH   2  13
BRANCH   8  26
ATOM     26  C   UNL     1      -3.563   0.510   0.924  1.00  0.00     0.318 C 
ATOM     27  O   UNL     1      -3.626   1.543   1.584  1.00  0.00    -0.249 OA
ATOM     28  N   UNL     1      -4.019   0.420  -0.364  1.00  0.00    -0.336 N 
ATOM     29  H   UNL     1      -4.332  -0.493  -0.652  1.00  0.00     0.165 HD
BRANCH  28  30
ATOM     30  C   UNL     1      -4.663   1.551  -1.019  1.00  0.00     0.077 C 
ATOM     31  C   UNL     1      -4.564   1.394  -2.533  1.00  0.00     0.030 C 
ATOM     32  C   UNL     1      -6.121   1.677  -0.582  1.00  0.00     0.030 C 
ENDBRANCH  28  30
ENDBRANCH   8  26
TORSDOF 6
