MODEL 1
REMARK VINA RESULT:     0.000      0.000      0.000
REMARK INTER + INTRA:          -0.240
REMARK INTER:                   0.000
REMARK INTRA:                  -0.240
REMARK UNBOUND:                -0.240
REMARK  Name = 
REMARK  3 active torsions:
REMARK  status: ('A' for Active; 'I' for Inactive)
REMARK    1  A    between atoms: C_1  and  C_2
REMARK    2  A    between atoms: N_6  and  C_14
REMARK    3  A    between atoms: N_7  and  C_8
REMARK                            x       y       z     vdW  Elec       q    Type
REMARK                         _______ _______ _______ _____ _____    ______ ____
ROOT
ATOM      1  C   UNL     1      10.747   6.515  18.343  0.00  0.00    +0.000 C 
ATOM      2  C   UNL     1      10.394   5.059  18.604  0.00  0.00    +0.000 A 
ATOM      3  C   UNL     1      10.110   4.177  17.502  0.00  0.00    +0.000 A 
ATOM      4  C   UNL     1      10.160   4.674  16.150  0.00  0.00    +0.000 A 
ATOM      5  O   UNL     1       9.909   3.896  15.177  0.00  0.00    +0.000 OA
ATOM      6  N   UNL     1      10.482   6.009  15.911  0.00  0.00    +0.000 N 
ATOM      7  N   UNL     1      10.346   4.577  19.911  0.00  0.00    +0.000 N 
ATOM      8  C   UNL     1      10.533   6.516  14.533  0.00  0.00    +0.000 C 
ENDROOT
BRANCH   7   9
ATOM      9  C   UNL     1      10.636   5.478  21.036  0.00  0.00    +0.000 A 
ATOM     10  C   UNL     1       9.559   6.157  21.710  0.00  0.00    +0.000 A 
ATOM     11  C   UNL     1       8.199   5.954  21.281  0.00  0.00    +0.000 A 
ATOM     12  C   UNL     1       7.123   6.634  21.955  0.00  0.00    +0.000 A 
ATOM     13  C   UNL     1       5.763   6.430  21.526  0.00  0.00    +0.000 A 
ATOM     14  C   UNL     1      11.995   5.681  21.466  0.00  0.00    +0.000 A 
ENDBRANCH   7   9
TORSDOF 1
ENDMDL
MODEL 2
REMARK VINA RESULT:     0.000     10.441     13.459
REMARK INTER + INTRA:          -0.240
REMARK INTER:                   0.000
REMARK INTRA:                  -0.240
REMARK UNBOUND:                -0.240
REMARK  Name = 
REMARK  3 active torsions:
REMARK  status: ('A' for Active; 'I' for Inactive)
REMARK    1  A    between atoms: C_1  and  C_2
REMARK    2  A    between atoms: N_6  and  C_14
REMARK    3  A    between atoms: N_7  and  C_8
REMARK                            x       y       z     vdW  Elec       q    Type
REMARK                         _______ _______ _______ _____ _____    ______ ____
ROOT
ATOM      1  C   UNL     1      16.418   4.900   8.109  0.00  0.00    +0.000 C 
ATOM      2  C   UNL     1      15.951   3.627   8.798  0.00  0.00    +0.000 A 
ATOM      3  C   UNL     1      14.963   3.694   9.843  0.00  0.00    +0.000 A 
ATOM      4  C   UNL     1      14.417   4.968  10.238  0.00  0.00    +0.000 A 
ATOM      5  O   UNL     1      13.546   5.028  11.160  0.00  0.00    +0.000 OA
ATOM      6  N   UNL     1      14.846   6.134   9.607  0.00  0.00    +0.000 N 
ATOM      7  N   UNL     1      16.478   2.395   8.416  0.00  0.00    +0.000 N 
ATOM      8  C   UNL     1      14.290   7.434  10.009  0.00  0.00    +0.000 C 
ENDROOT
BRANCH   7   9
ATOM      9  C   UNL     1      17.487   2.326   7.349  0.00  0.00    +0.000 A 
ATOM     10  C   UNL     1      18.888   2.332   7.682  0.00  0.00    +0.000 A 
ATOM     11  C   UNL     1      19.301   2.405   9.060  0.00  0.00    +0.000 A 
ATOM     12  C   UNL     1      20.702   2.411   9.392  0.00  0.00    +0.000 A 
ATOM     13  C   UNL     1      21.115   2.484  10.770  0.00  0.00    +0.000 A 
ATOM     14  C   UNL     1      17.074   2.253   5.971  0.00  0.00    +0.000 A 
ENDBRANCH   7   9
TORSDOF 1
ENDMDL
MODEL 3
REMARK VINA RESULT:     0.000      5.349      6.748
REMARK INTER + INTRA:          -0.240
REMARK INTER:                   0.000
REMARK INTRA:                  -0.240
REMARK UNBOUND:                -0.240
REMARK  Name = 
REMARK  3 active torsions:
REMARK  status: ('A' for Active; 'I' for Inactive)
REMARK    1  A    between atoms: C_1  and  C_2
REMARK    2  A    between atoms: N_6  and  C_14
REMARK    3  A    between atoms: N_7  and  C_8
REMARK                            x       y       z     vdW  Elec       q    Type
REMARK                         _______ _______ _______ _____ _____    ______ ____
ROOT
ATOM      1  C   UNL     1      14.400   6.336  15.989  0.00  0.00    +0.000 C 
ATOM      2  C   UNL     1      13.057   6.558  15.311  0.00  0.00    +0.000 A 
ATOM      3  C   UNL     1      12.231   7.672  15.695  0.00  0.00    +0.000 A 
ATOM      4  C   UNL     1      12.676   8.578  16.724  0.00  0.00    +0.000 A 
ATOM      5  O   UNL     1      11.947   9.561  17.064  0.00  0.00    +0.000 OA
ATOM      6  N   UNL     1      13.906   8.374  17.346  0.00  0.00    +0.000 N 
ATOM      7  N   UNL     1      12.627   5.682  14.316  0.00  0.00    +0.000 N 
ATOM      8  C   UNL     1      14.360   9.298  18.395  0.00  0.00    +0.000 C 
ENDROOT
BRANCH   7   9
ATOM      9  C   UNL     1      13.471   4.544  13.923  0.00  0.00    +0.000 A 
ATOM     10  C   UNL     1      13.271   3.256  14.536  0.00  0.00    +0.000 A 
ATOM     11  C   UNL     1      12.245   3.083  15.532  0.00  0.00    +0.000 A 
ATOM     12  C   UNL     1      12.047   1.794  16.144  0.00  0.00    +0.000 A 
ATOM     13  C   UNL     1      11.021   1.621  17.140  0.00  0.00    +0.000 A 
ATOM     14  C   UNL     1      14.496   4.717  12.927  0.00  0.00    +0.000 A 
ENDBRANCH   7   9
TORSDOF 1
ENDMDL
MODEL 4
REMARK VINA RESULT:     0.000      2.487      3.503
REMARK INTER + INTRA:          -0.240
REMARK INTER:                   0.000
REMARK INTRA:                  -0.240
REMARK UNBOUND:                -0.240
REMARK  Name = 
REMARK  3 active torsions:
REMARK  status: ('A' for Active; 'I' for Inactive)
REMARK    1  A    between atoms: C_1  and  C_2
REMARK    2  A    between atoms: N_6  and  C_14
REMARK    3  A    between atoms: N_7  and  C_8
REMARK                            x       y       z     vdW  Elec       q    Type
REMARK                         _______ _______ _______ _____ _____    ______ ____
ROOT
ATOM      1  C   UNL     1      10.102   2.646  18.545  0.00  0.00    +0.000 C 
ATOM      2  C   UNL     1       9.058   3.392  17.729  0.00  0.00    +0.000 A 
ATOM      3  C   UNL     1       9.132   3.390  16.291  0.00  0.00    +0.000 A 
ATOM      4  C   UNL     1      10.195   2.683  15.625  0.00  0.00    +0.000 A 
ATOM      5  O   UNL     1      10.260   2.682  14.356  0.00  0.00    +0.000 OA
ATOM      6  N   UNL     1      11.152   2.000  16.373  0.00  0.00    +0.000 N 
ATOM      7  N   UNL     1       8.030   4.076  18.373  0.00  0.00    +0.000 N 
ATOM      8  C   UNL     1      12.237   1.278  15.693  0.00  0.00    +0.000 C 
ENDROOT
BRANCH   7   9
ATOM      9  C   UNL     1       7.955   4.077  19.842  0.00  0.00    +0.000 A 
ATOM     10  C   UNL     1       8.552   5.152  20.592  0.00  0.00    +0.000 A 
ATOM     11  C   UNL     1       9.222   6.225  19.904  0.00  0.00    +0.000 A 
ATOM     12  C   UNL     1       9.819   7.299  20.654  0.00  0.00    +0.000 A 
ATOM     13  C   UNL     1      10.488   8.373  19.966  0.00  0.00    +0.000 A 
ATOM     14  C   UNL     1       7.285   3.004  20.530  0.00  0.00    +0.000 A 
ENDBRANCH   7   9
TORSDOF 1
ENDMDL
MODEL 5
REMARK VINA RESULT:     0.000      6.663     10.894
REMARK INTER + INTRA:          -0.240
REMARK INTER:                   0.000
REMARK INTRA:                  -0.240
REMARK UNBOUND:                -0.240
REMARK  Name = 
REMARK  3 active torsions:
REMARK  status: ('A' for Active; 'I' for Inactive)
REMARK    1  A    between atoms: C_1  and  C_2
REMARK    2  A    between atoms: N_6  and  C_14
REMARK    3  A    between atoms: N_7  and  C_8
REMARK                            x       y       z     vdW  Elec       q    Type
REMARK                         _______ _______ _______ _____ _____    ______ ____
ROOT
ATOM      1  C   UNL     1       9.651  10.515  11.293  0.00  0.00    +0.000 C 
ATOM      2  C   UNL     1       9.176   9.162  10.788  0.00  0.00    +0.000 A 
ATOM      3  C   UNL     1       8.684   8.179  11.717  0.00  0.00    +0.000 A 
ATOM      4  C   UNL     1       8.641   8.477  13.126  0.00  0.00    +0.000 A 
ATOM      5  O   UNL     1       8.207   7.609  13.946  0.00  0.00    +0.000 OA
ATOM      6  N   UNL     1       9.077   9.717  13.589  0.00  0.00    +0.000 N 
ATOM      7  N   UNL     1       9.217   8.873   9.426  0.00  0.00    +0.000 N 
ATOM      8  C   UNL     1       9.034  10.021  15.026  0.00  0.00    +0.000 C 
ENDROOT
BRANCH   7   9
ATOM      9  C   UNL     1       9.721   9.878   8.477  0.00  0.00    +0.000 A 
ATOM     10  C   UNL     1      11.104   9.861   8.078  0.00  0.00    +0.000 A 
ATOM     11  C   UNL     1      11.995   8.861   8.609  0.00  0.00    +0.000 A 
ATOM     12  C   UNL     1      13.378   8.846   8.210  0.00  0.00    +0.000 A 
ATOM     13  C   UNL     1      14.269   7.845   8.740  0.00  0.00    +0.000 A 
ATOM     14  C   UNL     1       8.830  10.878   7.946  0.00  0.00    +0.000 A 
ENDBRANCH   7   9
TORSDOF 1
ENDMDL
