MODEL 1
REMARK VINA RESULT:     0.000      0.000      0.000
REMARK INTER + INTRA:           0.000
REMARK INTER:                   0.000
REMARK INTRA:                   0.000
REMARK UNBOUND:                 0.000
REMARK  Name = 
REMARK  3 active torsions:
REMARK  status: ('A' for Active; 'I' for Inactive)
REMARK    1  A    between atoms: C_1  and  C_2
REMARK    2  A    between atoms: C_6  and  C_13
REMARK    3  A    between atoms: C_9  and  N_12
REMARK                            x       y       z     vdW  Elec       q    Type
REMARK                         _______ _______ _______ _____ _____    ______ ____
ROOT
ATOM      1  C   UNL     1      13.486   4.730   8.447  0.00  0.00    +0.000 C 
ATOM      2  C   UNL     1      14.306   3.678   7.715  0.00  0.00    +0.000 C 
ATOM      3  C   UNL     1      15.709   4.209   7.471  0.00  0.00    +0.000 C 
ATOM      4  C   UNL     1      15.633   5.471   6.627  0.00  0.00    +0.000 C 
ATOM      5  C   UNL     1      17.036   6.002   6.382  0.00  0.00    +0.000 C 
ATOM      6  C   UNL     1      17.855   4.951   5.651  0.00  0.00    +0.000 C 
ATOM      7  C   UNL     1      14.381   2.416   8.560  0.00  0.00    +0.000 C 
ATOM      8  C   UNL     1      19.258   5.483   5.407  0.00  0.00    +0.000 C 
ATOM      9  C   UNL     1      19.918   5.803   6.738  0.00  0.00    +0.000 C 
ATOM     10  C   UNL     1      14.814   6.522   7.358  0.00  0.00    +0.000 C 
ATOM     11  C   UNL     1      13.647   3.358   6.383  0.00  0.00    +0.000 C 
ATOM     12  C   UNL     1      17.931   3.690   6.496  0.00  0.00    +0.000 C 
ENDROOT
BRANCH   9  13
ATOM     13  N   UNL     1      19.125   6.819   7.446  0.00  0.00    +0.000 NA
ATOM     14  H   UNL     1      18.219   6.920   6.991  0.00  0.00    +0.000 HD
ATOM     15  H   UNL     1      18.990   6.530   8.415  0.00  0.00    +0.000 HD
ENDBRANCH   9  13
TORSDOF 1
ENDMDL
MODEL 2
REMARK VINA RESULT:     0.000     12.087     14.705
REMARK INTER + INTRA:           0.000
REMARK INTER:                   0.000
REMARK INTRA:                   0.000
REMARK UNBOUND:                 0.000
REMARK  Name = 
REMARK  3 active torsions:
REMARK  status: ('A' for Active; 'I' for Inactive)
REMARK    1  A    between atoms: C_1  and  C_2
REMARK    2  A    between atoms: C_6  and  C_13
REMARK    3  A    between atoms: C_9  and  N_12
REMARK                            x       y       z     vdW  Elec       q    Type
REMARK                         _______ _______ _______ _____ _____    ______ ____
ROOT
ATOM      1  C   UNL     1      12.195   5.004  17.591  0.00  0.00    +0.000 C 
ATOM      2  C   UNL     1      11.738   5.619  18.904  0.00  0.00    +0.000 C 
ATOM      3  C   UNL     1      10.235   5.447  19.048  0.00  0.00    +0.000 C 
ATOM      4  C   UNL     1       9.533   6.141  17.892  0.00  0.00    +0.000 C 
ATOM      5  C   UNL     1       8.029   5.969  18.035  0.00  0.00    +0.000 C 
ATOM      6  C   UNL     1       7.573   6.584  19.348  0.00  0.00    +0.000 C 
ATOM      7  C   UNL     1      12.440   4.924  20.060  0.00  0.00    +0.000 C 
ATOM      8  C   UNL     1       6.069   6.413  19.492  0.00  0.00    +0.000 C 
ATOM      9  C   UNL     1       5.724   4.932  19.478  0.00  0.00    +0.000 C 
ATOM     10  C   UNL     1       9.990   5.526  16.579  0.00  0.00    +0.000 C 
ATOM     11  C   UNL     1      12.082   7.099  18.918  0.00  0.00    +0.000 C 
ATOM     12  C   UNL     1       8.274   5.890  20.504  0.00  0.00    +0.000 C 
ENDROOT
BRANCH   9  13
ATOM     13  N   UNL     1       6.166   4.338  18.209  0.00  0.00    +0.000 NA
ATOM     14  H   UNL     1       7.086   4.703  17.965  0.00  0.00    +0.000 HD
ATOM     15  H   UNL     1       6.218   3.324  18.308  0.00  0.00    +0.000 HD
ENDBRANCH   9  13
TORSDOF 1
ENDMDL
MODEL 3
REMARK VINA RESULT:     0.000     14.382     16.495
REMARK INTER + INTRA:           0.000
REMARK INTER:                   0.000
REMARK INTRA:                   0.000
REMARK UNBOUND:                 0.000
REMARK  Name = 
REMARK  3 active torsions:
REMARK  status: ('A' for Active; 'I' for Inactive)
REMARK    1  A    between atoms: C_1  and  C_2
REMARK    2  A    between atoms: C_6  and  C_13
REMARK    3  A    between atoms: C_9  and  N_12
REMARK                            x       y       z     vdW  Elec       q    Type
REMARK                         _______ _______ _______ _____ _____    ______ ____
ROOT
ATOM      1  C   UNL     1       6.102  13.214  20.629  0.00  0.00    +0.000 C 
ATOM      2  C   UNL     1       7.376  12.595  20.074  0.00  0.00    +0.000 C 
ATOM      3  C   UNL     1       7.658  13.167  18.695  0.00  0.00    +0.000 C 
ATOM      4  C   UNL     1       6.496  12.851  17.768  0.00  0.00    +0.000 C 
ATOM      5  C   UNL     1       6.779  13.423  16.388  0.00  0.00    +0.000 C 
ATOM      6  C   UNL     1       8.052  12.805  15.834  0.00  0.00    +0.000 C 
ATOM      7  C   UNL     1       8.538  12.911  21.002  0.00  0.00    +0.000 C 
ATOM      8  C   UNL     1       8.334  13.377  14.455  0.00  0.00    +0.000 C 
ATOM      9  C   UNL     1       8.506  14.884  14.556  0.00  0.00    +0.000 C 
ATOM     10  C   UNL     1       5.223  13.470  18.321  0.00  0.00    +0.000 C 
ATOM     11  C   UNL     1       7.204  11.088  19.972  0.00  0.00    +0.000 C 
ATOM     12  C   UNL     1       9.214  13.121  16.762  0.00  0.00    +0.000 C 
ENDROOT
BRANCH   9  13
ATOM     13  N   UNL     1       7.275  15.482  15.093  0.00  0.00    +0.000 NA
ATOM     14  H   UNL     1       7.253  15.367  16.105  0.00  0.00    +0.000 HD
ATOM     15  H   UNL     1       7.251  16.476  14.863  0.00  0.00    +0.000 HD
ENDBRANCH   9  13
TORSDOF 1
ENDMDL
MODEL 4
REMARK VINA RESULT:     0.000     18.873     20.093
REMARK INTER + INTRA:           0.000
REMARK INTER:                   0.000
REMARK INTRA:                   0.000
REMARK UNBOUND:                 0.000
REMARK  Name = 
REMARK  3 active torsions:
REMARK  status: ('A' for Active; 'I' for Inactive)
REMARK    1  A    between atoms: C_1  and  C_2
REMARK    2  A    between atoms: C_6  and  C_13
REMARK    3  A    between atoms: C_9  and  N_12
REMARK                            x       y       z     vdW  Elec       q    Type
REMARK                         _______ _______ _______ _____ _____    ______ ____
ROOT
ATOM      1  C   UNL     1       5.988   7.702  22.228  0.00  0.00    +0.000 C 
ATOM      2  C   UNL     1       4.478   7.879  22.276  0.00  0.00    +0.000 C 
ATOM      3  C   UNL     1       4.094   9.149  21.534  0.00  0.00    +0.000 C 
ATOM      4  C   UNL     1       4.765  10.343  22.194  0.00  0.00    +0.000 C 
ATOM      5  C   UNL     1       4.380  11.613  21.453  0.00  0.00    +0.000 C 
ATOM      6  C   UNL     1       2.872  11.790  21.500  0.00  0.00    +0.000 C 
ATOM      7  C   UNL     1       3.807   6.685  21.616  0.00  0.00    +0.000 C 
ATOM      8  C   UNL     1       2.487  13.061  20.759  0.00  0.00    +0.000 C 
ATOM      9  C   UNL     1       2.941  12.960  19.311  0.00  0.00    +0.000 C 
ATOM     10  C   UNL     1       6.274  10.166  22.146  0.00  0.00    +0.000 C 
ATOM     11  C   UNL     1       4.025   7.980  23.723  0.00  0.00    +0.000 C 
ATOM     12  C   UNL     1       2.201  10.596  20.840  0.00  0.00    +0.000 C 
ENDROOT
BRANCH   9  13
ATOM     13  N   UNL     1       4.400  12.788  19.266  0.00  0.00    +0.000 NA
ATOM     14  H   UNL     1       4.700  12.690  18.297  0.00  0.00    +0.000 HD
ATOM     15  H   UNL     1       4.851  13.603  19.681  0.00  0.00    +0.000 HD
ENDBRANCH   9  13
TORSDOF 1
ENDMDL
