MODEL 1
REMARK VINA RESULT:    -0.000      0.000      0.000
REMARK INTER + INTRA:           4.183
REMARK INTER:                   0.000
REMARK INTRA:                   4.183
REMARK UNBOUND:                 4.183
REMARK  Name = 
REMARK  8 active torsions:
REMARK  status: ('A' for Active; 'I' for Inactive)
REMARK    1  A    between atoms: C_1  and  N_2
REMARK    2  A    between atoms: N_2  and  C_3
REMARK    3  A    between atoms: N_2  and  C_4
REMARK    4  A    between atoms: C_7  and  O_10
REMARK    5  A    between atoms: C_17  and  O_24
REMARK    6  A    between atoms: C_20  and  N_21
REMARK    7  A    between atoms: N_21  and  C_22
REMARK    8  A    between atoms: N_21  and  C_23
REMARK                            x       y       z     vdW  Elec       q    Type
REMARK                         _______ _______ _______ _____ _____    ______ ____
ROOT
ATOM      1  C   UNL     1       8.849  12.345   8.398  0.00  0.00    +0.000 A 
ATOM      2  C   UNL     1       9.049  10.921   8.316  0.00  0.00    +0.000 A 
ATOM      3  C   UNL     1       9.610  10.206   9.433  0.00  0.00    +0.000 A 
ATOM      4  C   UNL     1       9.972  10.915  10.633  0.00  0.00    +0.000 A 
ATOM      5  C   UNL     1      10.533  10.201  11.750  0.00  0.00    +0.000 A 
ATOM      6  C   UNL     1       9.212  13.054   9.598  0.00  0.00    +0.000 A 
ATOM      7  C   UNL     1       9.820   8.703   9.346  0.00  0.00    +0.000 C 
ATOM      8  O   UNL     1       9.500   8.077   8.287  0.00  0.00    +0.000 OA
ATOM      9  C   UNL     1      10.412   7.950  10.526  0.00  0.00    +0.000 A 
ATOM     10  C   UNL     1      10.611   6.525  10.443  0.00  0.00    +0.000 A 
ATOM     11  C   UNL     1       8.666  10.172   7.049  0.00  0.00    +0.000 C 
ATOM     12  O   UNL     1       8.171  10.803   6.063  0.00  0.00    +0.000 OA
ATOM     13  C   UNL     1      11.172   5.811  11.560  0.00  0.00    +0.000 A 
ATOM     14  C   UNL     1      11.535   6.520  12.760  0.00  0.00    +0.000 A 
ATOM     15  C   UNL     1      12.096   5.805  13.877  0.00  0.00    +0.000 A 
ATOM     16  C   UNL     1      10.774   8.658  11.726  0.00  0.00    +0.000 A 
ENDROOT
BRANCH   1  18
ATOM     17  C   UNL     1       9.159  13.630   6.222  0.00  0.00    +0.000 C 
ATOM     18  N   UNL     1       8.276  13.074   7.258  0.00  0.00    +0.000 N 
ATOM     19  C   UNL     1       6.820  13.249   7.154  0.00  0.00    +0.000 C 
ENDBRANCH   1  18
BRANCH  16  20
ATOM     20  N   UNL     1      10.571  10.112  11.810  0.00  0.00    +0.000 N 
ATOM     21  C   UNL     1       9.300  10.648  12.319  0.00  0.00    +0.000 C 
ATOM     22  C   UNL     1      11.638  11.029  11.387  0.00  0.00    +0.000 C 
ENDBRANCH  16  20
BRANCH   4  23
ATOM     23  O   UNL     1       9.776  12.319  10.715  0.00  0.00    +0.000 OA
ATOM     24  H   UNL     1      10.508  12.943  10.443  0.00  0.00    +0.000 HD
ENDBRANCH   4  23
BRANCH  13  25
ATOM     25  O   UNL     1      11.369   4.407  11.478  0.00  0.00    +0.000 OA
ATOM     26  H   UNL     1      12.096   3.972  12.009  0.00  0.00    +0.000 HD
ENDBRANCH  13  25
TORSDOF 4
ENDMDL
MODEL 2
REMARK VINA RESULT:     0.000      3.927      6.582
REMARK INTER + INTRA:           4.183
REMARK INTER:                   0.000
REMARK INTRA:                   4.183
REMARK UNBOUND:                 4.183
REMARK  Name = 
REMARK  8 active torsions:
REMARK  status: ('A' for Active; 'I' for Inactive)
REMARK    1  A    between atoms: C_1  and  N_2
REMARK    2  A    between atoms: N_2  and  C_3
REMARK    3  A    between atoms: N_2  and  C_4
REMARK    4  A    between atoms: C_7  and  O_10
REMARK    5  A    between atoms: C_17  and  O_24
REMARK    6  A    between atoms: C_20  and  N_21
REMARK    7  A    between atoms: N_21  and  C_22
REMARK    8  A    between atoms: N_21  and  C_23
REMARK                            x       y       z     vdW  Elec       q    Type
REMARK                         _______ _______ _______ _____ _____    ______ ____
ROOT
ATOM      1  C   UNL     1       9.441  10.015  14.669  0.00  0.00    +0.000 A 
ATOM      2  C   UNL     1      10.109   9.844  13.404  0.00  0.00    +0.000 A 
ATOM      3  C   UNL     1      10.921  10.906  12.868  0.00  0.00    +0.000 A 
ATOM      4  C   UNL     1      11.065  12.140  13.597  0.00  0.00    +0.000 A 
ATOM      5  C   UNL     1      11.876  13.203  13.061  0.00  0.00    +0.000 A 
ATOM      6  C   UNL     1       9.585  11.250  15.397  0.00  0.00    +0.000 A 
ATOM      7  C   UNL     1      11.625  10.725  11.533  0.00  0.00    +0.000 C 
ATOM      8  O   UNL     1      11.499   9.636  10.891  0.00  0.00    +0.000 OA
ATOM      9  C   UNL     1      12.482  11.846  10.969  0.00  0.00    +0.000 A 
ATOM     10  C   UNL     1      13.150  11.674   9.704  0.00  0.00    +0.000 A 
ATOM     11  C   UNL     1       9.958   8.541  12.635  0.00  0.00    +0.000 C 
ATOM     12  O   UNL     1       9.242   7.604  13.108  0.00  0.00    +0.000 OA
ATOM     13  C   UNL     1      13.961  12.736   9.168  0.00  0.00    +0.000 A 
ATOM     14  C   UNL     1      14.105  13.971   9.897  0.00  0.00    +0.000 A 
ATOM     15  C   UNL     1      14.916  15.033   9.360  0.00  0.00    +0.000 A 
ATOM     16  C   UNL     1      12.626  13.080  11.696  0.00  0.00    +0.000 A 
ENDROOT
BRANCH   1  18
ATOM     17  C   UNL     1       7.182   8.863  14.888  0.00  0.00    +0.000 C 
ATOM     18  N   UNL     1       8.613   8.932  15.216  0.00  0.00    +0.000 N 
ATOM     19  C   UNL     1       9.216   7.916  16.092  0.00  0.00    +0.000 C 
ENDBRANCH   1  18
BRANCH  16  20
ATOM     20  N   UNL     1      11.944  13.256  12.987  0.00  0.00    +0.000 N 
ATOM     21  C   UNL     1      12.622  12.871  14.234  0.00  0.00    +0.000 C 
ATOM     22  C   UNL     1      10.587  13.817  13.031  0.00  0.00    +0.000 C 
ENDBRANCH  16  20
BRANCH   4  23
ATOM     23  O   UNL     1      10.406  12.310  14.843  0.00  0.00    +0.000 OA
ATOM     24  H   UNL     1       9.610  12.911  14.910  0.00  0.00    +0.000 HD
ENDBRANCH   4  23
BRANCH  13  25
ATOM     25  O   UNL     1      14.620  12.567   7.921  0.00  0.00    +0.000 OA
ATOM     26  H   UNL     1      15.378  11.921   7.840  0.00  0.00    +0.000 HD
ENDBRANCH  13  25
TORSDOF 4
ENDMDL
MODEL 3
REMARK VINA RESULT:     0.000      8.289     11.525
REMARK INTER + INTRA:           4.183
REMARK INTER:                   0.000
REMARK INTRA:                   4.183
REMARK UNBOUND:                 4.183
REMARK  Name = 
REMARK  8 active torsions:
REMARK  status: ('A' for Active; 'I' for Inactive)
REMARK    1  A    between atoms: C_1  and  N_2
REMARK    2  A    between atoms: N_2  and  C_3
REMARK    3  A    between atoms: N_2  and  C_4
REMARK    4  A    between atoms: C_7  and  O_10
REMARK    5  A    between atoms: C_17  and  O_24
REMARK    6  A    between atoms: C_20  and  N_21
REMARK    7  A    between atoms: N_21  and  C_22
REMARK    8  A    between atoms: N_21  and  C_23
REMARK                            x       y       z     vdW  Elec       q    Type
REMARK                         _______ _______ _______ _____ _____    ______ ____
ROOT
ATOM      1  C   UNL     1       6.797   9.056  17.135  0.00  0.00    +0.000 A 
ATOM      2  C   UNL     1       6.942  10.336  17.780  0.00  0.00    +0.000 A 
ATOM      3  C   UNL     1       5.783  11.156  18.024  0.00  0.00    +0.000 A 
ATOM      4  C   UNL     1       4.479  10.696  17.622  0.00  0.00    +0.000 A 
ATOM      5  C   UNL     1       3.320  11.515  17.864  0.00  0.00    +0.000 A 
ATOM      6  C   UNL     1       5.492   8.596  16.733  0.00  0.00    +0.000 A 
ATOM      7  C   UNL     1       5.937  12.506  18.703  0.00  0.00    +0.000 C 
ATOM      8  O   UNL     1       7.088  12.912  19.059  0.00  0.00    +0.000 OA
ATOM      9  C   UNL     1       4.713  13.370  18.960  0.00  0.00    +0.000 A 
ATOM     10  C   UNL     1       4.859  14.650  19.606  0.00  0.00    +0.000 A 
ATOM     11  C   UNL     1       8.319  10.821  18.204  0.00  0.00    +0.000 C 
ATOM     12  O   UNL     1       9.341  10.098  17.989  0.00  0.00    +0.000 OA
ATOM     13  C   UNL     1       3.700  15.469  19.849  0.00  0.00    +0.000 A 
ATOM     14  C   UNL     1       2.395  15.010  19.447  0.00  0.00    +0.000 A 
ATOM     15  C   UNL     1       1.237  15.830  19.690  0.00  0.00    +0.000 A 
ATOM     16  C   UNL     1       3.409  12.911  18.559  0.00  0.00    +0.000 A 
ENDROOT
BRANCH   1  18
ATOM     17  C   UNL     1       8.725   8.355  15.628  0.00  0.00    +0.000 C 
ATOM     18  N   UNL     1       7.980   8.219  16.887  0.00  0.00    +0.000 N 
ATOM     19  C   UNL     1       8.416   7.245  17.898  0.00  0.00    +0.000 C 
ENDBRANCH   1  18
BRANCH  16  20
ATOM     20  N   UNL     1       3.260  11.605  17.900  0.00  0.00    +0.000 N 
ATOM     21  C   UNL     1       3.030  10.397  18.707  0.00  0.00    +0.000 C 
ATOM     22  C   UNL     1       3.340  11.507  16.437  0.00  0.00    +0.000 C 
ENDBRANCH  16  20
BRANCH   4  23
ATOM     23  O   UNL     1       4.335   9.435  16.985  0.00  0.00    +0.000 OA
ATOM     24  H   UNL     1       4.056   9.386  16.027  0.00  0.00    +0.000 HD
ENDBRANCH   4  23
BRANCH  13  25
ATOM     25  O   UNL     1       3.844  16.732  20.484  0.00  0.00    +0.000 OA
ATOM     26  H   UNL     1       4.365  16.807  21.334  0.00  0.00    +0.000 HD
ENDBRANCH  13  25
TORSDOF 4
ENDMDL
MODEL 4
REMARK VINA RESULT:     0.000      6.343     10.794
REMARK INTER + INTRA:           4.183
REMARK INTER:                   0.000
REMARK INTRA:                   4.183
REMARK UNBOUND:                 4.183
REMARK  Name = 
REMARK  8 active torsions:
REMARK  status: ('A' for Active; 'I' for Inactive)
REMARK    1  A    between atoms: C_1  and  N_2
REMARK    2  A    between atoms: N_2  and  C_3
REMARK    3  A    between atoms: N_2  and  C_4
REMARK    4  A    between atoms: C_7  and  O_10
REMARK    5  A    between atoms: C_17  and  O_24
REMARK    6  A    between atoms: C_20  and  N_21
REMARK    7  A    between atoms: N_21  and  C_22
REMARK    8  A    between atoms: N_21  and  C_23
REMARK                            x       y       z     vdW  Elec       q    Type
REMARK                         _______ _______ _______ _____ _____    ______ ____
ROOT
ATOM      1  C   UNL     1      17.206   3.763  15.966  0.00  0.00    +0.000 A 
ATOM      2  C   UNL     1      17.069   3.435  14.571  0.00  0.00    +0.000 A 
ATOM      3  C   UNL     1      16.502   4.393  13.657  0.00  0.00    +0.000 A 
ATOM      4  C   UNL     1      16.071   5.680  14.140  0.00  0.00    +0.000 A 
ATOM      5  C   UNL     1      15.503   6.638  13.228  0.00  0.00    +0.000 A 
ATOM      6  C   UNL     1      16.775   5.050  16.449  0.00  0.00    +0.000 A 
ATOM      7  C   UNL     1      16.357   4.046  12.185  0.00  0.00    +0.000 C 
ATOM      8  O   UNL     1      16.738   2.911  11.759  0.00  0.00    +0.000 OA
ATOM      9  C   UNL     1      15.758   5.058  11.222  0.00  0.00    +0.000 A 
ATOM     10  C   UNL     1      15.622   4.729   9.826  0.00  0.00    +0.000 A 
ATOM     11  C   UNL     1      17.524   2.076  14.061  0.00  0.00    +0.000 C 
ATOM     12  O   UNL     1      18.025   1.231  14.867  0.00  0.00    +0.000 OA
ATOM     13  C   UNL     1      15.054   5.688   8.913  0.00  0.00    +0.000 A 
ATOM     14  C   UNL     1      14.622   6.975   9.396  0.00  0.00    +0.000 A 
ATOM     15  C   UNL     1      14.054   7.932   8.482  0.00  0.00    +0.000 A 
ATOM     16  C   UNL     1      15.327   6.345  11.703  0.00  0.00    +0.000 A 
ENDROOT
BRANCH   1  18
ATOM     17  C   UNL     1      16.916   1.823  17.589  0.00  0.00    +0.000 C 
ATOM     18  N   UNL     1      17.786   2.785  16.898  0.00  0.00    +0.000 N 
ATOM     19  C   UNL     1      19.236   2.770  17.140  0.00  0.00    +0.000 C 
ENDBRANCH   1  18
BRANCH  16  20
ATOM     20  N   UNL     1      15.467   6.680  13.128  0.00  0.00    +0.000 N 
ATOM     21  C   UNL     1      16.697   7.322  13.615  0.00  0.00    +0.000 C 
ATOM     22  C   UNL     1      14.377   6.375  14.065  0.00  0.00    +0.000 C 
ENDBRANCH  16  20
BRANCH   4  23
ATOM     23  O   UNL     1      16.205   6.004  15.516  0.00  0.00    +0.000 OA
ATOM     24  H   UNL     1      16.751   6.794  15.793  0.00  0.00    +0.000 HD
ENDBRANCH   4  23
BRANCH  13  25
ATOM     25  O   UNL     1      14.918   5.363   7.537  0.00  0.00    +0.000 OA
ATOM     26  H   UNL     1      14.559   6.042   6.897  0.00  0.00    +0.000 HD
ENDBRANCH  13  25
TORSDOF 4
ENDMDL
MODEL 5
REMARK VINA RESULT:     0.000      9.905     12.810
REMARK INTER + INTRA:           4.183
REMARK INTER:                   0.000
REMARK INTRA:                   4.183
REMARK UNBOUND:                 4.183
REMARK  Name = 
REMARK  8 active torsions:
REMARK  status: ('A' for Active; 'I' for Inactive)
REMARK    1  A    between atoms: C_1  and  N_2
REMARK    2  A    between atoms: N_2  and  C_3
REMARK    3  A    between atoms: N_2  and  C_4
REMARK    4  A    between atoms: C_7  and  O_10
REMARK    5  A    between atoms: C_17  and  O_24
REMARK    6  A    between atoms: C_20  and  N_21
REMARK    7  A    between atoms: N_21  and  C_22
REMARK    8  A    between atoms: N_21  and  C_23
REMARK                            x       y       z     vdW  Elec       q    Type
REMARK                         _______ _______ _______ _____ _____    ______ ____
ROOT
ATOM      1  C   UNL     1      13.978   3.232  17.849  0.00  0.00    +0.000 A 
ATOM      2  C   UNL     1      15.125   3.651  18.613  0.00  0.00    +0.000 A 
ATOM      3  C   UNL     1      16.148   4.455  17.996  0.00  0.00    +0.000 A 
ATOM      4  C   UNL     1      16.024   4.841  16.614  0.00  0.00    +0.000 A 
ATOM      5  C   UNL     1      17.047   5.644  15.996  0.00  0.00    +0.000 A 
ATOM      6  C   UNL     1      13.855   3.618  16.466  0.00  0.00    +0.000 A 
ATOM      7  C   UNL     1      17.358   4.896  18.803  0.00  0.00    +0.000 C 
ATOM      8  O   UNL     1      17.467   4.556  20.023  0.00  0.00    +0.000 OA
ATOM      9  C   UNL     1      18.437   5.745  18.151  0.00  0.00    +0.000 A 
ATOM     10  C   UNL     1      19.583   6.163  18.916  0.00  0.00    +0.000 A 
ATOM     11  C   UNL     1      15.255   3.243  20.072  0.00  0.00    +0.000 C 
ATOM     12  O   UNL     1      14.352   2.534  20.617  0.00  0.00    +0.000 OA
ATOM     13  C   UNL     1      20.606   6.967  18.299  0.00  0.00    +0.000 A 
ATOM     14  C   UNL     1      20.483   7.353  16.916  0.00  0.00    +0.000 A 
ATOM     15  C   UNL     1      21.506   8.157  16.300  0.00  0.00    +0.000 A 
ATOM     16  C   UNL     1      18.314   6.131  16.769  0.00  0.00    +0.000 A 
ENDROOT
BRANCH   1  18
ATOM     17  C   UNL     1      13.030   0.945  18.444  0.00  0.00    +0.000 C 
ATOM     18  N   UNL     1      12.934   2.412  18.479  0.00  0.00    +0.000 N 
ATOM     19  C   UNL     1      11.792   3.058  19.143  0.00  0.00    +0.000 C 
ENDBRANCH   1  18
BRANCH  16  20
ATOM     20  N   UNL     1      17.143   5.704  15.988  0.00  0.00    +0.000 N 
ATOM     21  C   UNL     1      15.940   6.548  15.947  0.00  0.00    +0.000 C 
ATOM     22  C   UNL     1      17.177   4.435  15.248  0.00  0.00    +0.000 C 
ENDBRANCH  16  20
BRANCH   4  23
ATOM     23  O   UNL     1      14.894   4.428  15.860  0.00  0.00    +0.000 OA
ATOM     24  H   UNL     1      14.787   4.729  14.913  0.00  0.00    +0.000 HD
ENDBRANCH   4  23
BRANCH  13  25
ATOM     25  O   UNL     1      21.737   7.379  19.053  0.00  0.00    +0.000 OA
ATOM     26  H   UNL     1      22.406   6.703  19.360  0.00  0.00    +0.000 HD
ENDBRANCH  13  25
TORSDOF 4
ENDMDL
