MODEL 1
REMARK VINA RESULT:     0.000      0.000      0.000
REMARK INTER + INTRA:          -0.322
REMARK INTER:                   0.000
REMARK INTRA:                  -0.322
REMARK UNBOUND:                -0.322
REMARK  Name = 
REMARK  3 active torsions:
REMARK  status: ('A' for Active; 'I' for Inactive)
REMARK    1  A    between atoms: C_1  and  N_2
REMARK    2  A    between atoms: N_2  and  C_3
REMARK    3  A    between atoms: C_4  and  N_6
REMARK                            x       y       z     vdW  Elec       q    Type
REMARK                         _______ _______ _______ _____ _____    ______ ____
ROOT
ATOM      1  N   UNL     1      14.035  14.971  14.771  0.00  0.00    +0.000 NA
ATOM      2  C   UNL     1      12.977  14.189  14.816  0.00  0.00    +0.000 C 
ATOM      3  N   UNL     1      12.207  13.923  13.593  0.00  0.00    +0.000 N 
ATOM      4  N   UNL     1      12.566  13.583  16.091  0.00  0.00    +0.000 N 
ATOM      5  H   UNL     1      11.388  13.317  13.627  0.00  0.00    +0.000 HD
ATOM      6  H   UNL     1      12.493  14.344  12.708  0.00  0.00    +0.000 HD
ATOM      7  H   UNL     1      13.100  13.768  16.939  0.00  0.00    +0.000 HD
ATOM      8  H   UNL     1      11.746  12.978  16.126  0.00  0.00    +0.000 HD
ENDROOT
BRANCH   1  12
ATOM      9  C   UNL     1      16.044  15.677  11.516  0.00  0.00    +0.000 C 
ATOM     10  N   UNL     1      15.632  15.070  12.790  0.00  0.00    +0.000 N 
ATOM     11  C   UNL     1      16.406  13.958  13.359  0.00  0.00    +0.000 C 
ATOM     12  C   UNL     1      14.446  15.577  13.497  0.00  0.00    +0.000 C 
ATOM     13  N   UNL     1      13.753  16.573  12.987  0.00  0.00    +0.000 NA
ATOM     14  H   UNL     1      14.039  16.994  12.103  0.00  0.00    +0.000 HD
ENDBRANCH   1  12
TORSDOF 1
ENDMDL
MODEL 2
REMARK VINA RESULT:     0.000      2.137      2.318
REMARK INTER + INTRA:          -0.322
REMARK INTER:                   0.000
REMARK INTRA:                  -0.322
REMARK UNBOUND:                -0.322
REMARK  Name = 
REMARK  3 active torsions:
REMARK  status: ('A' for Active; 'I' for Inactive)
REMARK    1  A    between atoms: C_1  and  N_2
REMARK    2  A    between atoms: N_2  and  C_3
REMARK    3  A    between atoms: C_4  and  N_6
REMARK                            x       y       z     vdW  Elec       q    Type
REMARK                         _______ _______ _______ _____ _____    ______ ____
ROOT
ATOM      1  N   UNL     1      14.373  13.267  14.956  0.00  0.00    +0.000 NA
ATOM      2  C   UNL     1      13.189  13.051  15.488  0.00  0.00    +0.000 C 
ATOM      3  N   UNL     1      12.016  12.862  14.621  0.00  0.00    +0.000 N 
ATOM      4  N   UNL     1      13.039  12.998  16.949  0.00  0.00    +0.000 N 
ATOM      5  H   UNL     1      11.099  12.693  15.033  0.00  0.00    +0.000 HD
ATOM      6  H   UNL     1      12.121  12.898  13.607  0.00  0.00    +0.000 HD
ATOM      7  H   UNL     1      13.852  13.129  17.550  0.00  0.00    +0.000 HD
ATOM      8  H   UNL     1      12.121  12.830  17.361  0.00  0.00    +0.000 HD
ENDROOT
BRANCH   1  12
ATOM      9  C   UNL     1      15.308  12.256  11.318  0.00  0.00    +0.000 C 
ATOM     10  N   UNL     1      15.158  12.203  12.780  0.00  0.00    +0.000 N 
ATOM     11  C   UNL     1      15.643  11.035  13.527  0.00  0.00    +0.000 C 
ATOM     12  C   UNL     1      14.523  13.320  13.495  0.00  0.00    +0.000 C 
ATOM     13  N   UNL     1      14.088  14.367  12.826  0.00  0.00    +0.000 NA
ATOM     14  H   UNL     1      14.192  14.404  11.812  0.00  0.00    +0.000 HD
ENDBRANCH   1  12
TORSDOF 1
ENDMDL
MODEL 3
REMARK VINA RESULT:     0.000      5.963      6.902
REMARK INTER + INTRA:          -0.322
REMARK INTER:                   0.000
REMARK INTRA:                  -0.322
REMARK UNBOUND:                -0.322
REMARK  Name = 
REMARK  3 active torsions:
REMARK  status: ('A' for Active; 'I' for Inactive)
REMARK    1  A    between atoms: C_1  and  N_2
REMARK    2  A    between atoms: N_2  and  C_3
REMARK    3  A    between atoms: C_4  and  N_6
REMARK                            x       y       z     vdW  Elec       q    Type
REMARK                         _______ _______ _______ _____ _____    ______ ____
ROOT
ATOM      1  N   UNL     1      11.964  10.572  11.267  0.00  0.00    +0.000 NA
ATOM      2  C   UNL     1      13.029  11.302  11.516  0.00  0.00    +0.000 C 
ATOM      3  N   UNL     1      14.293  11.021  10.819  0.00  0.00    +0.000 N 
ATOM      4  N   UNL     1      12.957  12.399  12.491  0.00  0.00    +0.000 N 
ATOM      5  H   UNL     1      15.119  11.587  11.011  0.00  0.00    +0.000 HD
ATOM      6  H   UNL     1      14.343  10.259  10.142  0.00  0.00    +0.000 HD
ATOM      7  H   UNL     1      12.080  12.595  12.974  0.00  0.00    +0.000 HD
ATOM      8  H   UNL     1      13.783  12.965  12.684  0.00  0.00    +0.000 HD
ENDROOT
BRANCH   1  12
ATOM      9  C   UNL     1      11.481   8.524   7.995  0.00  0.00    +0.000 C 
ATOM     10  N   UNL     1      11.408   9.622   8.970  0.00  0.00    +0.000 N 
ATOM     11  C   UNL     1      10.708  10.867   8.626  0.00  0.00    +0.000 C 
ATOM     12  C   UNL     1      12.036   9.474  10.292  0.00  0.00    +0.000 C 
ATOM     13  N   UNL     1      12.664   8.360  10.600  0.00  0.00    +0.000 NA
ATOM     14  H   UNL     1      12.714   7.598   9.924  0.00  0.00    +0.000 HD
ENDBRANCH   1  12
TORSDOF 1
ENDMDL
MODEL 4
REMARK VINA RESULT:     0.000      8.984     10.774
REMARK INTER + INTRA:          -0.322
REMARK INTER:                   0.000
REMARK INTRA:                  -0.322
REMARK UNBOUND:                -0.322
REMARK  Name = 
REMARK  3 active torsions:
REMARK  status: ('A' for Active; 'I' for Inactive)
REMARK    1  A    between atoms: C_1  and  N_2
REMARK    2  A    between atoms: N_2  and  C_3
REMARK    3  A    between atoms: C_4  and  N_6
REMARK                            x       y       z     vdW  Elec       q    Type
REMARK                         _______ _______ _______ _____ _____    ______ ____
ROOT
ATOM      1  N   UNL     1      10.195   5.577  15.975  0.00  0.00    +0.000 NA
ATOM      2  C   UNL     1      10.547   6.416  15.025  0.00  0.00    +0.000 C 
ATOM      3  N   UNL     1      11.806   7.167  15.134  0.00  0.00    +0.000 N 
ATOM      4  N   UNL     1       9.680   6.602  13.852  0.00  0.00    +0.000 N 
ATOM      5  H   UNL     1      12.079   7.816  14.398  0.00  0.00    +0.000 HD
ATOM      6  H   UNL     1      12.407   7.037  15.948  0.00  0.00    +0.000 HD
ATOM      7  H   UNL     1       8.806   6.081  13.776  0.00  0.00    +0.000 HD
ATOM      8  H   UNL     1       9.952   7.253  13.116  0.00  0.00    +0.000 HD
ENDROOT
BRANCH   1  12
ATOM      9  C   UNL     1      12.720   3.972  18.462  0.00  0.00    +0.000 C 
ATOM     10  N   UNL     1      11.853   4.158  17.289  0.00  0.00    +0.000 N 
ATOM     11  C   UNL     1      11.775   3.114  16.258  0.00  0.00    +0.000 C 
ATOM     12  C   UNL     1      11.062   5.390  17.148  0.00  0.00    +0.000 C 
ATOM     13  N   UNL     1      11.132   6.326  18.070  0.00  0.00    +0.000 NA
ATOM     14  H   UNL     1      11.733   6.197  18.885  0.00  0.00    +0.000 HD
ENDBRANCH   1  12
TORSDOF 1
ENDMDL
MODEL 5
REMARK VINA RESULT:     0.000      8.355     10.079
REMARK INTER + INTRA:          -0.322
REMARK INTER:                   0.000
REMARK INTRA:                  -0.322
REMARK UNBOUND:                -0.322
REMARK  Name = 
REMARK  3 active torsions:
REMARK  status: ('A' for Active; 'I' for Inactive)
REMARK    1  A    between atoms: C_1  and  N_2
REMARK    2  A    between atoms: N_2  and  C_3
REMARK    3  A    between atoms: C_4  and  N_6
REMARK                            x       y       z     vdW  Elec       q    Type
REMARK                         _______ _______ _______ _____ _____    ______ ____
ROOT
ATOM      1  N   UNL     1      12.393   6.481  14.631  0.00  0.00    +0.000 NA
ATOM      2  C   UNL     1      11.665   7.419  14.065  0.00  0.00    +0.000 C 
ATOM      3  N   UNL     1      10.248   7.169  13.762  0.00  0.00    +0.000 N 
ATOM      4  N   UNL     1      12.269   8.718  13.734  0.00  0.00    +0.000 N 
ATOM      5  H   UNL     1       9.684   7.896  13.324  0.00  0.00    +0.000 HD
ATOM      6  H   UNL     1       9.829   6.268  13.992  0.00  0.00    +0.000 HD
ATOM      7  H   UNL     1      13.251   8.892  13.944  0.00  0.00    +0.000 HD
ATOM      8  H   UNL     1      11.704   9.445  13.295  0.00  0.00    +0.000 HD
ENDROOT
BRANCH   1  12
ATOM      9  C   UNL     1      10.885   3.546  16.692  0.00  0.00    +0.000 C 
ATOM     10  N   UNL     1      11.489   4.846  16.361  0.00  0.00    +0.000 N 
ATOM     11  C   UNL     1      11.794   5.808  17.429  0.00  0.00    +0.000 C 
ATOM     12  C   UNL     1      11.789   5.182  14.962  0.00  0.00    +0.000 C 
ATOM     13  N   UNL     1      11.516   4.321  14.005  0.00  0.00    +0.000 NA
ATOM     14  H   UNL     1      11.098   3.419  14.234  0.00  0.00    +0.000 HD
ENDBRANCH   1  12
TORSDOF 1
ENDMDL
