MODEL 1
REMARK VINA RESULT:    -0.113      0.000      0.000
REMARK INTER + INTRA:          -5.629
REMARK INTER:                   0.000
REMARK INTRA:                  -5.629
REMARK UNBOUND:                -5.434
REMARK  Name = 
REMARK  21 active torsions:
REMARK  status: ('A' for Active; 'I' for Inactive)
REMARK    1  A    between atoms: C_1  and  C_2
REMARK    2  A    between atoms: C_3  and  C_31
REMARK    3  A    between atoms: C_8  and  C_10
REMARK    4  A    between atoms: C_8  and  C_11
REMARK    5  A    between atoms: C_11  and  C_12
REMARK    6  A    between atoms: C_12  and  C_13
REMARK    7  A    between atoms: C_13  and  C_14
REMARK    8  A    between atoms: C_14  and  C_15
REMARK    9  A    between atoms: C_14  and  C_16
REMARK   10  A    between atoms: C_16  and  C_17
REMARK   11  A    between atoms: C_17  and  C_18
REMARK   12  A    between atoms: C_18  and  C_19
REMARK   13  A    between atoms: C_19  and  C_20
REMARK   14  A    between atoms: C_19  and  C_21
REMARK   15  A    between atoms: C_21  and  C_22
REMARK   16  A    between atoms: C_22  and  C_23
REMARK   17  A    between atoms: C_23  and  C_24
REMARK   18  A    between atoms: C_24  and  C_25
REMARK   19  A    between atoms: C_24  and  C_26
REMARK   20  A    between atoms: C_27  and  C_30
REMARK   21  A    between atoms: C_28  and  O_29
REMARK                            x       y       z     vdW  Elec       q    Type
REMARK                         _______ _______ _______ _____ _____    ______ ____
ROOT
ATOM      1  C   UNL     1      17.474  13.136   8.355  0.00  0.00    +0.000 C 
ATOM      2  C   UNL     1      16.760  14.335   8.957  0.00  0.00    +0.000 A 
ATOM      3  C   UNL     1      15.685  14.971   8.239  0.00  0.00    +0.000 A 
ATOM      4  C   UNL     1      15.288  14.470   6.948  0.00  0.00    +0.000 A 
ATOM      5  C   UNL     1      15.964  13.334   6.376  0.00  0.00    +0.000 A 
ATOM      6  C   UNL     1      17.099  12.663   7.136  0.00  0.00    +0.000 C 
ATOM      7  C   UNL     1      16.741  11.209   7.400  0.00  0.00    +0.000 C 
ATOM      8  C   UNL     1      16.523  10.493   6.077  0.00  0.00    +0.000 C 
ATOM      9  O   UNL     1      14.229  15.096   6.239  0.00  0.00    +0.000 OA
ATOM     10  C   UNL     1      15.390  11.163   5.318  0.00  0.00    +0.000 C 
ATOM     11  C   UNL     1      15.567  12.833   5.086  0.00  0.00    +0.000 A 
ATOM     12  C   UNL     1      17.158  14.836  10.248  0.00  0.00    +0.000 A 
ATOM     13  C   UNL     1      16.281  11.635   4.483  0.00  0.00    +0.000 C 
ATOM     14  C   UNL     1      14.972  16.169   8.841  0.00  0.00    +0.000 C 
ENDROOT
BRANCH  12  15
ATOM     15  O   UNL     1      18.217  14.210  10.957  0.00  0.00    +0.000 OA
ATOM     16  H   UNL     1      19.159  14.300  10.632  0.00  0.00    +0.000 HD
ENDBRANCH  12  15
BRANCH   8  17
ATOM     17  C   UNL     1      16.166   9.040   6.341  0.00  0.00    +0.000 C 
BRANCH  17  18
ATOM     18  C   UNL     1      14.782   8.438   6.165  0.00  0.00    +0.000 C 
BRANCH  18  19
ATOM     19  C   UNL     1      14.261   7.959   7.509  0.00  0.00    +0.000 C 
BRANCH  19  20
ATOM     20  C   UNL     1      13.237   8.929   8.075  0.00  0.00    +0.000 C 
ATOM     21  C   UNL     1      12.266   8.178   8.970  0.00  0.00    +0.000 C 
BRANCH  20  22
ATOM     22  C   UNL     1      12.473   9.582   6.934  0.00  0.00    +0.000 C 
BRANCH  22  23
ATOM     23  C   UNL     1      12.072  10.992   7.334  0.00  0.00    +0.000 C 
BRANCH  23  24
ATOM     24  C   UNL     1      13.209  11.643   8.105  0.00  0.00    +0.000 C 
BRANCH  24  25
ATOM     25  C   UNL     1      12.632  12.404   9.287  0.00  0.00    +0.000 C 
ATOM     26  C   UNL     1      12.131  13.761   8.820  0.00  0.00    +0.000 C 
BRANCH  25  27
ATOM     27  C   UNL     1      13.710  12.597  10.340  0.00  0.00    +0.000 C 
BRANCH  27  28
ATOM     28  C   UNL     1      14.690  11.437  10.281  0.00  0.00    +0.000 C 
BRANCH  28  29
ATOM     29  C   UNL     1      15.750  11.614  11.356  0.00  0.00    +0.000 C 
BRANCH  29  30
ATOM     30  C   UNL     1      16.597  10.355  11.444  0.00  0.00    +0.000 C 
ATOM     31  C   UNL     1      16.031   9.297  10.512  0.00  0.00    +0.000 C 
ATOM     32  C   UNL     1      18.027  10.675  11.038  0.00  0.00    +0.000 C 
ENDBRANCH  29  30
ENDBRANCH  28  29
ENDBRANCH  27  28
ENDBRANCH  25  27
ENDBRANCH  24  25
ENDBRANCH  23  24
ENDBRANCH  22  23
ENDBRANCH  20  22
ENDBRANCH  19  20
ENDBRANCH  18  19
ENDBRANCH  17  18
ENDBRANCH   8  17
TORSDOF 13
ENDMDL
MODEL 2
REMARK VINA RESULT:    -0.082     10.819     13.790
REMARK INTER + INTRA:          -5.575
REMARK INTER:                   0.000
REMARK INTRA:                  -5.575
REMARK UNBOUND:                -5.434
REMARK  Name = 
REMARK  21 active torsions:
REMARK  status: ('A' for Active; 'I' for Inactive)
REMARK    1  A    between atoms: C_1  and  C_2
REMARK    2  A    between atoms: C_3  and  C_31
REMARK    3  A    between atoms: C_8  and  C_10
REMARK    4  A    between atoms: C_8  and  C_11
REMARK    5  A    between atoms: C_11  and  C_12
REMARK    6  A    between atoms: C_12  and  C_13
REMARK    7  A    between atoms: C_13  and  C_14
REMARK    8  A    between atoms: C_14  and  C_15
REMARK    9  A    between atoms: C_14  and  C_16
REMARK   10  A    between atoms: C_16  and  C_17
REMARK   11  A    between atoms: C_17  and  C_18
REMARK   12  A    between atoms: C_18  and  C_19
REMARK   13  A    between atoms: C_19  and  C_20
REMARK   14  A    between atoms: C_19  and  C_21
REMARK   15  A    between atoms: C_21  and  C_22
REMARK   16  A    between atoms: C_22  and  C_23
REMARK   17  A    between atoms: C_23  and  C_24
REMARK   18  A    between atoms: C_24  and  C_25
REMARK   19  A    between atoms: C_24  and  C_26
REMARK   20  A    between atoms: C_27  and  C_30
REMARK   21  A    between atoms: C_28  and  O_29
REMARK                            x       y       z     vdW  Elec       q    Type
REMARK                         _______ _______ _______ _____ _____    ______ ____
ROOT
ATOM      1  C   UNL     1      14.471   2.356  14.597  0.00  0.00    +0.000 C 
ATOM      2  C   UNL     1      14.576   0.907  15.042  0.00  0.00    +0.000 A 
ATOM      3  C   UNL     1      15.653   0.493  15.904  0.00  0.00    +0.000 A 
ATOM      4  C   UNL     1      16.632   1.453  16.343  0.00  0.00    +0.000 A 
ATOM      5  C   UNL     1      16.534   2.827  15.922  0.00  0.00    +0.000 A 
ATOM      6  C   UNL     1      15.396   3.263  15.012  0.00  0.00    +0.000 C 
ATOM      7  C   UNL     1      14.573   4.335  15.710  0.00  0.00    +0.000 C 
ATOM      8  C   UNL     1      15.458   5.529  16.023  0.00  0.00    +0.000 C 
ATOM      9  O   UNL     1      17.695   1.046  17.193  0.00  0.00    +0.000 OA
ATOM     10  C   UNL     1      16.596   5.094  16.931  0.00  0.00    +0.000 C 
ATOM     11  C   UNL     1      17.513   3.788  16.361  0.00  0.00    +0.000 A 
ATOM     12  C   UNL     1      13.597  -0.054  14.603  0.00  0.00    +0.000 A 
ATOM     13  C   UNL     1      17.409   5.237  15.916  0.00  0.00    +0.000 C 
ATOM     14  C   UNL     1      15.758  -0.956  16.349  0.00  0.00    +0.000 C 
ENDROOT
BRANCH  12  15
ATOM     15  O   UNL     1      12.534   0.354  13.753  0.00  0.00    +0.000 OA
ATOM     16  H   UNL     1      12.661   1.124  13.127  0.00  0.00    +0.000 HD
ENDBRANCH  12  15
BRANCH   8  17
ATOM     17  C   UNL     1      14.635   6.601  16.719  0.00  0.00    +0.000 C 
BRANCH  17  18
ATOM     18  C   UNL     1      13.247   6.390  17.301  0.00  0.00    +0.000 C 
BRANCH  18  19
ATOM     19  C   UNL     1      13.301   6.542  18.811  0.00  0.00    +0.000 C 
BRANCH  19  20
ATOM     20  C   UNL     1      13.384   5.186  19.493  0.00  0.00    +0.000 C 
ATOM     21  C   UNL     1      12.328   5.101  20.583  0.00  0.00    +0.000 C 
BRANCH  20  22
ATOM     22  C   UNL     1      14.764   5.012  20.109  0.00  0.00    +0.000 C 
BRANCH  22  23
ATOM     23  C   UNL     1      15.164   3.548  20.046  0.00  0.00    +0.000 C 
BRANCH  23  24
ATOM     24  C   UNL     1      14.438   2.872  18.894  0.00  0.00    +0.000 C 
BRANCH  24  25
ATOM     25  C   UNL     1      13.827   1.572  19.391  0.00  0.00    +0.000 C 
ATOM     26  C   UNL     1      14.927   0.544  19.605  0.00  0.00    +0.000 C 
BRANCH  25  27
ATOM     27  C   UNL     1      12.840   1.050  18.360  0.00  0.00    +0.000 C 
BRANCH  27  28
ATOM     28  C   UNL     1      12.256   2.217  17.581  0.00  0.00    +0.000 C 
BRANCH  28  29
ATOM     29  C   UNL     1      10.892   2.575  18.150  0.00  0.00    +0.000 C 
BRANCH  29  30
ATOM     30  C   UNL     1      10.156   3.476  17.172  0.00  0.00    +0.000 C 
ATOM     31  C   UNL     1       9.890   4.822  17.824  0.00  0.00    +0.000 C 
ATOM     32  C   UNL     1      11.006   3.674  15.927  0.00  0.00    +0.000 C 
ENDBRANCH  29  30
ENDBRANCH  28  29
ENDBRANCH  27  28
ENDBRANCH  25  27
ENDBRANCH  24  25
ENDBRANCH  23  24
ENDBRANCH  22  23
ENDBRANCH  20  22
ENDBRANCH  19  20
ENDBRANCH  18  19
ENDBRANCH  17  18
ENDBRANCH   8  17
TORSDOF 13
ENDMDL
MODEL 3
REMARK VINA RESULT:    -0.048      9.968     13.733
REMARK INTER + INTRA:          -5.516
REMARK INTER:                   0.000
REMARK INTRA:                  -5.516
REMARK UNBOUND:                -5.434
REMARK  Name = 
REMARK  21 active torsions:
REMARK  status: ('A' for Active; 'I' for Inactive)
REMARK    1  A    between atoms: C_1  and  C_2
REMARK    2  A    between atoms: C_3  and  C_31
REMARK    3  A    between atoms: C_8  and  C_10
REMARK    4  A    between atoms: C_8  and  C_11
REMARK    5  A    between atoms: C_11  and  C_12
REMARK    6  A    between atoms: C_12  and  C_13
REMARK    7  A    between atoms: C_13  and  C_14
REMARK    8  A    between atoms: C_14  and  C_15
REMARK    9  A    between atoms: C_14  and  C_16
REMARK   10  A    between atoms: C_16  and  C_17
REMARK   11  A    between atoms: C_17  and  C_18
REMARK   12  A    between atoms: C_18  and  C_19
REMARK   13  A    between atoms: C_19  and  C_20
REMARK   14  A    between atoms: C_19  and  C_21
REMARK   15  A    between atoms: C_21  and  C_22
REMARK   16  A    between atoms: C_22  and  C_23
REMARK   17  A    between atoms: C_23  and  C_24
REMARK   18  A    between atoms: C_24  and  C_25
REMARK   19  A    between atoms: C_24  and  C_26
REMARK   20  A    between atoms: C_27  and  C_30
REMARK   21  A    between atoms: C_28  and  O_29
REMARK                            x       y       z     vdW  Elec       q    Type
REMARK                         _______ _______ _______ _____ _____    ______ ____
ROOT
ATOM      1  C   UNL     1       4.529   5.245  16.131  0.00  0.00    +0.000 C 
ATOM      2  C   UNL     1       3.262   5.925  15.641  0.00  0.00    +0.000 A 
ATOM      3  C   UNL     1       2.901   7.225  16.145  0.00  0.00    +0.000 A 
ATOM      4  C   UNL     1       3.741   7.880  17.114  0.00  0.00    +0.000 A 
ATOM      5  C   UNL     1       4.942   7.236  17.579  0.00  0.00    +0.000 A 
ATOM      6  C   UNL     1       5.323   5.863  17.046  0.00  0.00    +0.000 C 
ATOM      7  C   UNL     1       6.679   5.944  16.362  0.00  0.00    +0.000 C 
ATOM      8  C   UNL     1       7.724   6.408  17.363  0.00  0.00    +0.000 C 
ATOM      9  O   UNL     1       3.385   9.161  17.611  0.00  0.00    +0.000 OA
ATOM     10  C   UNL     1       7.344   7.779  17.896  0.00  0.00    +0.000 C 
ATOM     11  C   UNL     1       5.783   7.890  18.547  0.00  0.00    +0.000 A 
ATOM     12  C   UNL     1       2.421   5.270  14.672  0.00  0.00    +0.000 A 
ATOM     13  C   UNL     1       7.050   7.210  19.038  0.00  0.00    +0.000 C 
ATOM     14  C   UNL     1       1.633   7.905  15.655  0.00  0.00    +0.000 C 
ENDROOT
BRANCH  12  15
ATOM     15  O   UNL     1       2.777   3.988  14.175  0.00  0.00    +0.000 OA
ATOM     16  H   UNL     1       3.650   3.574  14.438  0.00  0.00    +0.000 HD
ENDBRANCH  12  15
BRANCH   8  17
ATOM     17  C   UNL     1       9.079   6.487  16.680  0.00  0.00    +0.000 C 
BRANCH  17  18
ATOM     18  C   UNL     1       9.291   6.663  15.185  0.00  0.00    +0.000 C 
BRANCH  18  19
ATOM     19  C   UNL     1       9.376   8.144  14.855  0.00  0.00    +0.000 C 
BRANCH  19  20
ATOM     20  C   UNL     1       9.840   8.358  13.423  0.00  0.00    +0.000 C 
ATOM     21  C   UNL     1       9.081   9.525  12.814  0.00  0.00    +0.000 C 
BRANCH  20  22
ATOM     22  C   UNL     1       9.574   7.101  12.611  0.00  0.00    +0.000 C 
BRANCH  22  23
ATOM     23  C   UNL     1       8.528   7.396  11.549  0.00  0.00    +0.000 C 
BRANCH  23  24
ATOM     24  C   UNL     1       7.615   6.191  11.389  0.00  0.00    +0.000 C 
BRANCH  24  25
ATOM     25  C   UNL     1       6.541   6.238  12.463  0.00  0.00    +0.000 C 
ATOM     26  C   UNL     1       6.193   4.823  12.895  0.00  0.00    +0.000 C 
BRANCH  25  27
ATOM     27  C   UNL     1       5.301   6.919  11.911  0.00  0.00    +0.000 C 
BRANCH  27  28
ATOM     28  C   UNL     1       4.694   7.812  12.981  0.00  0.00    +0.000 C 
BRANCH  28  29
ATOM     29  C   UNL     1       5.785   8.279  13.931  0.00  0.00    +0.000 C 
BRANCH  29  30
ATOM     30  C   UNL     1       5.651   9.775  14.160  0.00  0.00    +0.000 C 
ATOM     31  C   UNL     1       4.182  10.163  14.135  0.00  0.00    +0.000 C 
ATOM     32  C   UNL     1       6.248  10.136  15.511  0.00  0.00    +0.000 C 
ENDBRANCH  29  30
ENDBRANCH  28  29
ENDBRANCH  27  28
ENDBRANCH  25  27
ENDBRANCH  24  25
ENDBRANCH  23  24
ENDBRANCH  22  23
ENDBRANCH  20  22
ENDBRANCH  19  20
ENDBRANCH  18  19
ENDBRANCH  17  18
ENDBRANCH   8  17
TORSDOF 13
ENDMDL
MODEL 4
REMARK VINA RESULT:    -0.024      5.814      8.581
REMARK INTER + INTRA:          -5.476
REMARK INTER:                   0.000
REMARK INTRA:                  -5.476
REMARK UNBOUND:                -5.434
REMARK  Name = 
REMARK  21 active torsions:
REMARK  status: ('A' for Active; 'I' for Inactive)
REMARK    1  A    between atoms: C_1  and  C_2
REMARK    2  A    between atoms: C_3  and  C_31
REMARK    3  A    between atoms: C_8  and  C_10
REMARK    4  A    between atoms: C_8  and  C_11
REMARK    5  A    between atoms: C_11  and  C_12
REMARK    6  A    between atoms: C_12  and  C_13
REMARK    7  A    between atoms: C_13  and  C_14
REMARK    8  A    between atoms: C_14  and  C_15
REMARK    9  A    between atoms: C_14  and  C_16
REMARK   10  A    between atoms: C_16  and  C_17
REMARK   11  A    between atoms: C_17  and  C_18
REMARK   12  A    between atoms: C_18  and  C_19
REMARK   13  A    between atoms: C_19  and  C_20
REMARK   14  A    between atoms: C_19  and  C_21
REMARK   15  A    between atoms: C_21  and  C_22
REMARK   16  A    between atoms: C_22  and  C_23
REMARK   17  A    between atoms: C_23  and  C_24
REMARK   18  A    between atoms: C_24  and  C_25
REMARK   19  A    between atoms: C_24  and  C_26
REMARK   20  A    between atoms: C_27  and  C_30
REMARK   21  A    between atoms: C_28  and  O_29
REMARK                            x       y       z     vdW  Elec       q    Type
REMARK                         _______ _______ _______ _____ _____    ______ ____
ROOT
ATOM      1  C   UNL     1      19.684  12.785  17.367  0.00  0.00    +0.000 C 
ATOM      2  C   UNL     1      20.122  14.127  16.804  0.00  0.00    +0.000 A 
ATOM      3  C   UNL     1      20.651  14.210  15.467  0.00  0.00    +0.000 A 
ATOM      4  C   UNL     1      20.765  13.020  14.664  0.00  0.00    +0.000 A 
ATOM      5  C   UNL     1      20.350  11.748  15.196  0.00  0.00    +0.000 A 
ATOM      6  C   UNL     1      19.792  11.661  16.608  0.00  0.00    +0.000 C 
ATOM      7  C   UNL     1      18.374  11.113  16.559  0.00  0.00    +0.000 C 
ATOM      8  C   UNL     1      18.388   9.728  15.933  0.00  0.00    +0.000 C 
ATOM      9  O   UNL     1      21.287  13.101  13.346  0.00  0.00    +0.000 OA
ATOM     10  C   UNL     1      18.947   9.815  14.523  0.00  0.00    +0.000 C 
ATOM     11  C   UNL     1      20.464  10.558  14.393  0.00  0.00    +0.000 A 
ATOM     12  C   UNL     1      20.008  15.317  17.608  0.00  0.00    +0.000 A 
ATOM     13  C   UNL     1      20.027   9.216  14.956  0.00  0.00    +0.000 C 
ATOM     14  C   UNL     1      21.089  15.552  14.904  0.00  0.00    +0.000 C 
ENDROOT
BRANCH  12  15
ATOM     15  O   UNL     1      19.486  15.236  18.926  0.00  0.00    +0.000 OA
ATOM     16  H   UNL     1      19.533  14.373  19.430  0.00  0.00    +0.000 HD
ENDBRANCH  12  15
BRANCH   8  17
ATOM     17  C   UNL     1      16.971   9.181  15.885  0.00  0.00    +0.000 C 
BRANCH  17  18
ATOM     18  C   UNL     1      15.710  10.029  15.888  0.00  0.00    +0.000 C 
BRANCH  18  19
ATOM     19  C   UNL     1      15.348  10.405  14.461  0.00  0.00    +0.000 C 
BRANCH  19  20
ATOM     20  C   UNL     1      13.946  10.988  14.391  0.00  0.00    +0.000 C 
ATOM     21  C   UNL     1      13.955  12.225  13.507  0.00  0.00    +0.000 C 
BRANCH  20  22
ATOM     22  C   UNL     1      13.484  11.368  15.789  0.00  0.00    +0.000 C 
BRANCH  22  23
ATOM     23  C   UNL     1      13.458  12.881  15.920  0.00  0.00    +0.000 C 
BRANCH  23  24
ATOM     24  C   UNL     1      14.100  13.287  17.237  0.00  0.00    +0.000 C 
BRANCH  24  25
ATOM     25  C   UNL     1      15.559  13.632  16.991  0.00  0.00    +0.000 C 
ATOM     26  C   UNL     1      16.293  13.709  18.319  0.00  0.00    +0.000 C 
BRANCH  25  27
ATOM     27  C   UNL     1      15.650  14.973  16.283  0.00  0.00    +0.000 C 
BRANCH  27  28
ATOM     28  C   UNL     1      16.894  15.002  15.409  0.00  0.00    +0.000 C 
BRANCH  28  29
ATOM     29  C   UNL     1      17.036  13.673  14.686  0.00  0.00    +0.000 C 
BRANCH  29  30
ATOM     30  C   UNL     1      17.535  13.917  13.271  0.00  0.00    +0.000 C 
ATOM     31  C   UNL     1      17.687  12.588  12.550  0.00  0.00    +0.000 C 
ATOM     32  C   UNL     1      16.535  14.787  12.524  0.00  0.00    +0.000 C 
ENDBRANCH  29  30
ENDBRANCH  28  29
ENDBRANCH  27  28
ENDBRANCH  25  27
ENDBRANCH  24  25
ENDBRANCH  23  24
ENDBRANCH  22  23
ENDBRANCH  20  22
ENDBRANCH  19  20
ENDBRANCH  18  19
ENDBRANCH  17  18
ENDBRANCH   8  17
TORSDOF 13
ENDMDL
MODEL 5
REMARK VINA RESULT:     0.000      7.295     11.294
REMARK INTER + INTRA:          -5.434
REMARK INTER:                   0.000
REMARK INTRA:                  -5.434
REMARK UNBOUND:                -5.434
REMARK  Name = 
REMARK  21 active torsions:
REMARK  status: ('A' for Active; 'I' for Inactive)
REMARK    1  A    between atoms: C_1  and  C_2
REMARK    2  A    between atoms: C_3  and  C_31
REMARK    3  A    between atoms: C_8  and  C_10
REMARK    4  A    between atoms: C_8  and  C_11
REMARK    5  A    between atoms: C_11  and  C_12
REMARK    6  A    between atoms: C_12  and  C_13
REMARK    7  A    between atoms: C_13  and  C_14
REMARK    8  A    between atoms: C_14  and  C_15
REMARK    9  A    between atoms: C_14  and  C_16
REMARK   10  A    between atoms: C_16  and  C_17
REMARK   11  A    between atoms: C_17  and  C_18
REMARK   12  A    between atoms: C_18  and  C_19
REMARK   13  A    between atoms: C_19  and  C_20
REMARK   14  A    between atoms: C_19  and  C_21
REMARK   15  A    between atoms: C_21  and  C_22
REMARK   16  A    between atoms: C_22  and  C_23
REMARK   17  A    between atoms: C_23  and  C_24
REMARK   18  A    between atoms: C_24  and  C_25
REMARK   19  A    between atoms: C_24  and  C_26
REMARK   20  A    between atoms: C_27  and  C_30
REMARK   21  A    between atoms: C_28  and  O_29
REMARK                            x       y       z     vdW  Elec       q    Type
REMARK                         _______ _______ _______ _____ _____    ______ ____
ROOT
ATOM      1  C   UNL     1       4.200   7.047   9.887  0.00  0.00    +0.000 C 
ATOM      2  C   UNL     1       4.241   5.717  10.621  0.00  0.00    +0.000 A 
ATOM      3  C   UNL     1       4.566   4.509   9.905  0.00  0.00    +0.000 A 
ATOM      4  C   UNL     1       4.851   4.564   8.495  0.00  0.00    +0.000 A 
ATOM      5  C   UNL     1       4.812   5.824   7.799  0.00  0.00    +0.000 A 
ATOM      6  C   UNL     1       4.469   7.099   8.555  0.00  0.00    +0.000 C 
ATOM      7  C   UNL     1       5.629   8.076   8.451  0.00  0.00    +0.000 C 
ATOM      8  C   UNL     1       5.884   8.406   6.990  0.00  0.00    +0.000 C 
ATOM      9  O   UNL     1       5.171   3.374   7.789  0.00  0.00    +0.000 OA
ATOM     10  C   UNL     1       6.226   7.133   6.235  0.00  0.00    +0.000 C 
ATOM     11  C   UNL     1       5.097   5.878   6.389  0.00  0.00    +0.000 A 
ATOM     12  C   UNL     1       3.956   5.663  12.031  0.00  0.00    +0.000 A 
ATOM     13  C   UNL     1       5.055   7.209   5.656  0.00  0.00    +0.000 C 
ATOM     14  C   UNL     1       4.607   3.179  10.639  0.00  0.00    +0.000 C 
ENDROOT
BRANCH  12  15
ATOM     15  O   UNL     1       3.636   6.853  12.737  0.00  0.00    +0.000 OA
ATOM     16  H   UNL     1       3.968   6.985  13.671  0.00  0.00    +0.000 HD
ENDBRANCH  12  15
BRANCH   8  17
ATOM     17  C   UNL     1       7.043   9.384   6.887  0.00  0.00    +0.000 C 
BRANCH  17  18
ATOM     18  C   UNL     1       8.086   9.614   7.969  0.00  0.00    +0.000 C 
BRANCH  18  19
ATOM     19  C   UNL     1       9.347   8.838   7.631  0.00  0.00    +0.000 C 
BRANCH  19  20
ATOM     20  C   UNL     1       9.824   8.027   8.825  0.00  0.00    +0.000 C 
ATOM     21  C   UNL     1      10.955   8.765   9.521  0.00  0.00    +0.000 C 
BRANCH  20  22
ATOM     22  C   UNL     1      10.320   6.670   8.351  0.00  0.00    +0.000 C 
BRANCH  22  23
ATOM     23  C   UNL     1       9.136   5.818   7.927  0.00  0.00    +0.000 C 
BRANCH  23  24
ATOM     24  C   UNL     1       8.184   5.652   9.100  0.00  0.00    +0.000 C 
BRANCH  24  25
ATOM     25  C   UNL     1       8.856   4.802  10.166  0.00  0.00    +0.000 C 
ATOM     26  C   UNL     1       8.265   3.402  10.145  0.00  0.00    +0.000 C 
BRANCH  25  27
ATOM     27  C   UNL     1       8.629   5.428  11.531  0.00  0.00    +0.000 C 
BRANCH  27  28
ATOM     28  C   UNL     1       7.597   6.538  11.415  0.00  0.00    +0.000 C 
BRANCH  28  29
ATOM     29  C   UNL     1       8.107   7.782  12.125  0.00  0.00    +0.000 C 
BRANCH  29  30
ATOM     30  C   UNL     1       7.468   9.015  11.508  0.00  0.00    +0.000 C 
ATOM     31  C   UNL     1       6.120   9.268  12.161  0.00  0.00    +0.000 C 
ATOM     32  C   UNL     1       8.372  10.218  11.728  0.00  0.00    +0.000 C 
ENDBRANCH  29  30
ENDBRANCH  28  29
ENDBRANCH  27  28
ENDBRANCH  25  27
ENDBRANCH  24  25
ENDBRANCH  23  24
ENDBRANCH  22  23
ENDBRANCH  20  22
ENDBRANCH  19  20
ENDBRANCH  18  19
ENDBRANCH  17  18
ENDBRANCH   8  17
TORSDOF 13
ENDMDL
