REMARK  Name = 
REMARK  8 active torsions:
REMARK  status: ('A' for Active; 'I' for Inactive)
REMARK    1  A    between atoms: C_1  and  C_2
REMARK    2  A    between atoms: C_2  and  O_3
REMARK    3  A    between atoms: O_3  and  C_4
REMARK    4  A    between atoms: N_12  and  C_13
REMARK    5  A    between atoms: C_13  and  C_14
REMARK    6  A    between atoms: C_17  and  C_20
REMARK    7  A    between atoms: C_25  and  C_26
REMARK    8  A    between atoms: C_26  and  O_28
REMARK                            x       y       z     vdW  Elec       q    Type
REMARK                         _______ _______ _______ _____ _____    ______ ____
ROOT
ATOM      1  C   UNL     1       1.977   1.467   2.093  0.00  0.00    +0.000 A 
ATOM      2  C   UNL     1       2.557   2.511   2.897  0.00  0.00    +0.000 A 
ATOM      3  C   UNL     1       3.937   2.880   2.713  0.00  0.00    +0.000 A 
ATOM      4  C   UNL     1       4.517   3.924   3.518  0.00  0.00    +0.000 A 
ATOM      5  C   UNL     1       5.897   4.293   3.334  0.00  0.00    +0.000 A 
ATOM      6  C   UNL     1       0.597   1.098   2.277  0.00  0.00    +0.000 A 
ENDROOT
BRANCH   4   7
ATOM      7  C   UNL     1       3.672   4.637   4.562  0.00  0.00    +0.000 A 
ATOM      8  C   UNL     1       4.252   5.681   5.366  0.00  0.00    +0.000 A 
ATOM      9  C   UNL     1       5.632   6.050   5.182  0.00  0.00    +0.000 A 
ATOM     10  C   UNL     1       6.212   7.094   5.987  0.00  0.00    +0.000 A 
ATOM     11  C   UNL     1       7.592   7.463   5.803  0.00  0.00    +0.000 A 
ATOM     12  C   UNL     1       2.292   4.268   4.746  0.00  0.00    +0.000 A 
BRANCH  12  13
ATOM     13  C   UNL     1       1.680   3.166   3.896  0.00  0.00    +0.000 C 
ATOM     14  O   UNL     1       2.386   2.570   3.024  0.00  0.00    +0.000 OA
BRANCH  13  15
ATOM     15  O   UNL     1       0.319   2.803   4.078  0.00  0.00    +0.000 OA
ATOM     16  H   UNL     1      -0.083   2.078   3.519  0.00  0.00    +0.000 HD
ENDBRANCH  13  15
ENDBRANCH  12  13
ENDBRANCH   4   7
BRANCH   1  17
ATOM     17  C   UNL     1       2.821   0.754   1.049  0.00  0.00    +0.000 C 
BRANCH  17  26
ATOM     18  C   UNL     1       2.406   2.476  -0.687  0.00  0.00    +0.000 A 
ATOM     19  N   UNL     1       2.870   3.401  -1.619  0.00  0.00    +0.000 NA
ATOM     20  C   UNL     1       4.240   3.580  -1.800  0.00  0.00    +0.000 A 
ATOM     21  C   UNL     1       4.720   4.536  -2.764  0.00  0.00    +0.000 A 
ATOM     22  C   UNL     1       3.784   5.307  -3.541  0.00  0.00    +0.000 A 
ATOM     23  C   UNL     1       4.264   6.263  -4.505  0.00  0.00    +0.000 A 
ATOM     24  C   UNL     1       3.328   7.034  -5.282  0.00  0.00    +0.000 A 
ATOM     25  C   UNL     1       5.176   2.809  -1.022  0.00  0.00    +0.000 A 
ATOM     26  N   UNL     1       3.311   1.730   0.065  0.00  0.00    +0.000 N 
BRANCH  18  27
ATOM     27  O   UNL     1       1.010   2.293  -0.502  0.00  0.00    +0.000 OA
BRANCH  27  29
ATOM     28  C   UNL     1       1.043  -0.036   0.083  0.00  0.00    +0.000 C 
ATOM     29  C   UNL     1       0.537   1.350   0.448  0.00  0.00    +0.000 C 
ENDBRANCH  27  29
ENDBRANCH  18  27
ENDBRANCH  17  26
ENDBRANCH   1  17
TORSDOF 7
