REMARK  Name = 
REMARK  4 active torsions:
REMARK  status: ('A' for Active; 'I' for Inactive)
REMARK    1  A    between atoms: N_5  and  C1*_6
REMARK    2  A    between atoms: C3*_8  and  O3*_13
REMARK    3  A    between atoms: C4*_9  and  C5*_11
REMARK    4  A    between atoms: C5*_11  and  O5*_12
REMARK                            x       y       z     vdW  Elec       q    Type
REMARK                         _______ _______ _______ _____ _____    ______ ____
ROOT
ATOM      1  C   UNL     1       1.063  -0.069   0.035  0.00  0.00    +0.000 A 
ATOM      2  N   UNL     1       0.367  -1.253   0.263  0.00  0.00    +0.000 NA
ATOM      3  C   UNL     1      -1.026  -1.253   0.263  0.00  0.00    +0.000 A 
ATOM      4  C   UNL     1      -1.746  -2.478   0.499  0.00  0.00    +0.000 A 
ATOM      5  N   UNL     1       0.367   1.116  -0.193  0.00  0.00    +0.000 N 
ATOM      6  N   UNL     1      -3.139  -2.478   0.499  0.00  0.00    +0.000 NA
ATOM      7  C   UNL     1      -3.835  -3.663   0.726  0.00  0.00    +0.000 A 
ATOM      8  N   UNL     1      -3.139  -4.847   0.954  0.00  0.00    +0.000 NA
ATOM      9  C   UNL     1      -1.746  -0.029   0.028  0.00  0.00    +0.000 A 
ATOM     10  N   UNL     1      -1.011   1.222  -0.213  0.00  0.00    +0.000 N 
ATOM     11 CL   UNL     1      -5.615  -3.663   0.726  0.00  0.00    +0.000 Cl
ATOM     12  H   UNL     1       0.009   1.222  -0.213  0.00  0.00    +0.000 HD
ATOM     13  H   UNL     1      -1.521   2.089  -0.380  0.00  0.00    +0.000 HD
ENDROOT
BRANCH   5  14
ATOM     14  C1* UNL     1       1.102   2.366  -0.433  0.00  0.00    +0.000 C 
ATOM     15  C2* UNL     1       2.841   1.630   1.056  0.00  0.00    +0.000 C 
ATOM     16  C3* UNL     1       3.715   1.474  -0.178  0.00  0.00    +0.000 C 
ATOM     17  C4* UNL     1       2.841   1.161  -1.382  0.00  0.00    +0.000 C 
ATOM     18  O4* UNL     1       1.918   2.221  -1.586  0.00  0.00    +0.000 OA
BRANCH  16  19
ATOM     19  O3* UNL     1       4.425   2.682  -0.411  0.00  0.00    +0.000 OA
ATOM     20  H3* UNL     1       4.951   1.858  -0.622  0.00  0.00    +0.000 HD
ENDBRANCH  16  19
BRANCH  17  21
ATOM     21  C5* UNL     1       3.715   1.005  -2.616  0.00  0.00    +0.000 C 
BRANCH  21  22
ATOM     22  O5* UNL     1       2.945   0.430  -3.661  0.00  0.00    +0.000 OA
ATOM     23  H5* UNL     1       2.610  -0.467  -3.373  0.00  0.00    +0.000 HD
ENDBRANCH  21  22
ENDBRANCH  17  21
ENDBRANCH   5  14
TORSDOF 4
