REMARK  Name = 
REMARK  13 active torsions:
REMARK  status: ('A' for Active; 'I' for Inactive)
REMARK    1  A    between atoms: C_1  and  C_2
REMARK    2  A    between atoms: C_2  and  C_3
REMARK    3  A    between atoms: C_3  and  C_4
REMARK    4  A    between atoms: C_4  and  C_5
REMARK    5  A    between atoms: C_5  and  C_6
REMARK    6  A    between atoms: C_6  and  C_7
REMARK    7  A    between atoms: C_7  and  C_8
REMARK    8  A    between atoms: C_11  and  C_14
REMARK    9  A    between atoms: C_14  and  C_15
REMARK   10  A    between atoms: C_15  and  CA_16
REMARK   11  A    between atoms: CA_16  and  C_17
REMARK   12  A    between atoms: CA_16  and  N_19
REMARK   13  A    between atoms: C_17  and  O_18
REMARK                            x       y       z     vdW  Elec       q    Type
REMARK                         _______ _______ _______ _____ _____    ______ ____
ROOT
ATOM      1  C   UNL     1      -1.573  -4.740   3.229  0.00  0.00    +0.000 A 
ATOM      2  C   UNL     1      -1.225  -3.584   4.015  0.00  0.00    +0.000 A 
ATOM      3  C   UNL     1      -0.397  -2.551   3.448  0.00  0.00    +0.000 A 
ATOM      4  C   UNL     1      -0.049  -1.395   4.234  0.00  0.00    +0.000 A 
ATOM      5  C   UNL     1       0.779  -0.362   3.667  0.00  0.00    +0.000 A 
ATOM      6  C   UNL     1      -2.401  -5.773   3.796  0.00  0.00    +0.000 A 
ENDROOT
BRANCH   1   7
ATOM      7  C   UNL     1      -1.066  -4.869   1.802  0.00  0.00    +0.000 C 
BRANCH   7   8
ATOM      8  C   UNL     1      -1.573  -3.698   0.976  0.00  0.00    +0.000 C 
BRANCH   8   9
ATOM      9  C   UNL     1      -1.066  -2.397   1.578  0.00  0.00    +0.000 C 
BRANCH   9  10
ATOM     10  C   UNL     1       0.454  -2.397   1.578  0.00  0.00    +0.000 C 
BRANCH  10  11
ATOM     11  C   UNL     1       0.960  -2.527   0.150  0.00  0.00    +0.000 C 
BRANCH  11  13
ATOM     12  C   UNL     1       0.960  -0.055  -0.074  0.00  0.00    +0.000 C 
ATOM     13  C   UNL     1       0.454  -1.355  -0.675  0.00  0.00    +0.000 C 
ENDBRANCH  11  13
ENDBRANCH  10  11
ENDBRANCH   9  10
ENDBRANCH   8   9
ENDBRANCH   7   8
ENDBRANCH   1   7
BRANCH   4  14
ATOM     14  C   UNL     1      -0.556  -1.265   5.661  0.00  0.00    +0.000 C 
BRANCH  14  15
ATOM     15  C   UNL     1      -2.076  -1.265   5.661  0.00  0.00    +0.000 C 
BRANCH  15  16
ATOM     16  CA  UNL     1      -2.583  -2.566   5.059  0.00  0.00    +0.000 C 
BRANCH  16  17
ATOM     17  N   UNL     1      -4.053  -2.566   5.059  0.00  0.00    +0.000 NA
ATOM     18  H1  UNL     1      -4.393  -3.439   4.656  0.00  0.00    +0.000 HD
ATOM     19  H2  UNL     1      -4.393  -2.479   6.017  0.00  0.00    +0.000 HD
ENDBRANCH  16  17
BRANCH  16  20
ATOM     20  C   UNL     1      -2.076  -3.737   5.885  0.00  0.00    +0.000 C 
BRANCH  20  21
ATOM     21  O   UNL     1      -2.549  -3.617   7.218  0.00  0.00    +0.000 OA
ATOM     22  H   UNL     1      -2.216  -2.761   7.614  0.00  0.00    +0.000 HD
ENDBRANCH  20  21
ENDBRANCH  16  20
ENDBRANCH  15  16
ENDBRANCH  14  15
ENDBRANCH   4  14
TORSDOF 12
