REMARK  Name = 
REMARK  8 active torsions:
REMARK  status: ('A' for Active; 'I' for Inactive)
REMARK    1  A    between atoms: C_1  and  N_2
REMARK    2  A    between atoms: N_2  and  C_3
REMARK    3  A    between atoms: C_3  and  C_4
REMARK    4  A    between atoms: C_4  and  C_5
REMARK    5  A    between atoms: C_5  and  C_6
REMARK    6  A    between atoms: C_5  and  O_12
REMARK    7  A    between atoms: O_12  and  C_13
REMARK    8  A    between atoms: C_16  and  C_19
REMARK                            x       y       z     vdW  Elec       q    Type
REMARK                         _______ _______ _______ _____ _____    ______ ____
ROOT
ATOM      1  C   UNL     1      -1.005   0.892   2.722  0.00  0.00    +0.000 C 
ENDROOT
BRANCH   1   2
ATOM      2  C   UNL     1      -1.512   2.290   3.039  0.00  0.00    +0.000 A 
ATOM      3  C   UNL     1      -1.164   3.393   2.182  0.00  0.00    +0.000 A 
ATOM      4  C   UNL     1      -0.336   3.173   1.024  0.00  0.00    +0.000 A 
ATOM      5  C   UNL     1       0.012   4.276   0.167  0.00  0.00    +0.000 A 
ATOM      6  C   UNL     1       0.840   4.056  -0.991  0.00  0.00    +0.000 A 
ATOM      7  C   UNL     1      -2.340   2.510   4.197  0.00  0.00    +0.000 A 
ENDBRANCH   1   2
BRANCH   1   8
ATOM      8  C   UNL     1      -1.512   0.468   1.354  0.00  0.00    +0.000 C 
BRANCH   8   9
ATOM      9  C   UNL     1      -1.005   1.441   0.302  0.00  0.00    +0.000 C 
BRANCH   9  11
ATOM     10  C   UNL     1       0.955   0.089  -0.005  0.00  0.00    +0.000 C 
ATOM     11  N   UNL     1       0.465   1.441   0.302  0.00  0.00    +0.000 NA
ATOM     12  H   UNL     1       0.805   1.726   1.220  0.00  0.00    +0.000 HD
ENDBRANCH   9  11
ENDBRANCH   8   9
ENDBRANCH   1   8
BRANCH   1  13
ATOM     13  O   UNL     1      -1.478  -0.017   3.705  0.00  0.00    +0.000 OA
BRANCH  13  14
ATOM     14  C   UNL     1      -2.875  -0.193   3.896  0.00  0.00    +0.000 A 
ATOM     15  C   UNL     1      -3.355  -1.115   4.892  0.00  0.00    +0.000 A 
ATOM     16  C   UNL     1      -2.419  -1.859   5.696  0.00  0.00    +0.000 A 
ATOM     17  C   UNL     1      -2.899  -2.781   6.693  0.00  0.00    +0.000 A 
ATOM     18  C   UNL     1      -1.963  -3.524   7.496  0.00  0.00    +0.000 A 
ATOM     19  C   UNL     1      -3.810   0.550   3.092  0.00  0.00    +0.000 A 
BRANCH  17  20
ATOM     20  C   UNL     1      -4.393  -2.970   6.896  0.00  0.00    +0.000 C 
ATOM     21  F   UNL     1      -4.944  -1.809   7.241  0.00  0.00    +0.000 F 
ATOM     22  F   UNL     1      -4.944  -3.403   5.766  0.00  0.00    +0.000 F 
ATOM     23  F   UNL     1      -4.600  -3.862   7.861  0.00  0.00    +0.000 F 
ENDBRANCH  17  20
ENDBRANCH  13  14
ENDBRANCH   1  13
TORSDOF 7
