REMARK  Name = 
REMARK  10 active torsions:
REMARK  status: ('A' for Active; 'I' for Inactive)
REMARK    1  A    between atoms: C_1  and  C_2
REMARK    2  A    between atoms: C_2  and  C_15
REMARK    3  A    between atoms: C_4  and  C_11
REMARK    4  A    between atoms: C_6  and  C_8
REMARK    5  A    between atoms: C_6  and  O_10
REMARK    6  A    between atoms: C_8  and  N_9
REMARK    7  A    between atoms: C_11  and  C_12
REMARK    8  A    between atoms: C_12  and  O_14
REMARK    9  A    between atoms: C_15  and  C_16
REMARK   10  A    between atoms: C_16  and  O_18
REMARK                            x       y       z     vdW  Elec       q    Type
REMARK                         _______ _______ _______ _____ _____    ______ ____
ROOT
ATOM      1  C   UNL     1       1.025   0.089  -0.038  0.00  0.00    +0.000 C 
ATOM      2  C   UNL     1       0.518   1.519  -0.126  0.00  0.00    +0.000 C 
ATOM      3  C   UNL     1      -1.002   1.519  -0.126  0.00  0.00    +0.000 C 
ATOM      4  C   UNL     1      -1.509   0.880   1.156  0.00  0.00    +0.000 C 
ATOM      5  C   UNL     1      -1.002   1.671   2.351  0.00  0.00    +0.000 C 
ATOM      6  C   UNL     1      -1.509   3.102   2.264  0.00  0.00    +0.000 C 
ATOM      7  C   UNL     1       1.025   2.159  -1.409  0.00  0.00    +0.000 C 
ENDROOT
BRANCH   6   8
ATOM      8  O   UNL     1      -1.035   3.699   1.065  0.00  0.00    +0.000 OA
ATOM      9  H   UNL     1      -1.369   4.640   1.008  0.00  0.00    +0.000 HD
ENDBRANCH   6   8
BRANCH   6  10
ATOM     10  C   UNL     1      -1.002   3.893   3.458  0.00  0.00    +0.000 C 
BRANCH  10  11
ATOM     11  N   UNL     1       0.468   3.893   3.458  0.00  0.00    +0.000 NA
ATOM     12  H   UNL     1       0.808   4.424   4.260  0.00  0.00    +0.000 HD
ATOM     13  H   UNL     1       0.808   2.933   3.517  0.00  0.00    +0.000 HD
ENDBRANCH  10  11
ENDBRANCH   6  10
BRANCH   4  14
ATOM     14  C   UNL     1      -3.029   0.880   1.156  0.00  0.00    +0.000 C 
BRANCH  14  15
ATOM     15  C   UNL     1      -3.535   0.089  -0.038  0.00  0.00    +0.000 C 
ATOM     16  O   UNL     1      -4.266  -0.935   0.141  0.00  0.00    +0.000 OA
BRANCH  15  17
ATOM     17  O   UNL     1      -3.192   0.494  -1.355  0.00  0.00    +0.000 OA
ATOM     18  H   UNL     1      -3.526  -0.026  -2.142  0.00  0.00    +0.000 HD
ENDBRANCH  15  17
ENDBRANCH  14  15
ENDBRANCH   4  14
BRANCH   2  19
ATOM     19  C   UNL     1       1.025   2.310   1.069  0.00  0.00    +0.000 C 
BRANCH  19  20
ATOM     20  C   UNL     1       0.518   1.671   2.351  0.00  0.00    +0.000 C 
ATOM     21  O   UNL     1       1.344   1.240   3.216  0.00  0.00    +0.000 OA
BRANCH  20  22
ATOM     22  O   UNL     1      -0.878   1.555   2.584  0.00  0.00    +0.000 OA
ATOM     23  H   UNL     1      -1.211   1.135   3.427  0.00  0.00    +0.000 HD
ENDBRANCH  20  22
ENDBRANCH  19  20
ENDBRANCH   2  19
TORSDOF 9
