REMARK  Name = 
REMARK  8 active torsions:
REMARK  status: ('A' for Active; 'I' for Inactive)
REMARK    1  A    between atoms: C_1  and  C_2
REMARK    2  A    between atoms: C_2  and  C_3
REMARK    3  A    between atoms: C_2  and  C_4
REMARK    4  A    between atoms: C_4  and  C_5
REMARK    5  A    between atoms: C_8  and  C_11
REMARK    6  A    between atoms: C_11  and  C_12
REMARK    7  A    between atoms: C_11  and  C_13
REMARK    8  A    between atoms: C_13  and  O_15
REMARK                            x       y       z     vdW  Elec       q    Type
REMARK                         _______ _______ _______ _____ _____    ______ ____
ROOT
ATOM      1  C   UNL     1      -1.511  -1.493   0.211  0.00  0.00    +0.000 A 
ATOM      2  C   UNL     1      -1.163  -1.131  -1.139  0.00  0.00    +0.000 A 
ATOM      3  C   UNL     1      -0.335   0.021  -1.385  0.00  0.00    +0.000 A 
ATOM      4  C   UNL     1       0.013   0.383  -2.735  0.00  0.00    +0.000 A 
ATOM      5  C   UNL     1       0.841   1.536  -2.981  0.00  0.00    +0.000 A 
ATOM      6  C   UNL     1      -2.339  -2.645   0.457  0.00  0.00    +0.000 A 
ENDROOT
BRANCH   4   7
ATOM      7  C   UNL     1      -0.493  -0.451  -3.900  0.00  0.00    +0.000 C 
ATOM      8  C   UNL     1       0.013  -1.877  -3.760  0.00  0.00    +0.000 C 
BRANCH   7   9
ATOM      9  C   UNL     1      -2.013  -0.451  -3.900  0.00  0.00    +0.000 C 
ATOM     10  O   UNL     1      -2.649   0.003  -4.902  0.00  0.00    +0.000 OA
BRANCH   9  11
ATOM     11  O   UNL     1      -2.723  -0.959  -2.780  0.00  0.00    +0.000 OA
ATOM     12  H   UNL     1      -3.723  -0.959  -2.780  0.00  0.00    +0.000 HD
ENDBRANCH   9  11
ENDBRANCH   7   9
ENDBRANCH   4   7
BRANCH   1  13
ATOM     13  C   UNL     1      -1.004  -0.658   1.376  0.00  0.00    +0.000 C 
BRANCH  13  15
ATOM     14  C   UNL     1       1.023  -0.067   0.071  0.00  0.00    +0.000 C 
ATOM     15  C   UNL     1       0.516  -0.658   1.376  0.00  0.00    +0.000 C 
ATOM     16  C   UNL     1       1.023   0.176   2.541  0.00  0.00    +0.000 C 
ENDBRANCH  13  15
ENDBRANCH   1  13
TORSDOF 5
