REMARK  Name = 
REMARK  3 active torsions:
REMARK  status: ('A' for Active; 'I' for Inactive)
REMARK    1  A    between atoms: C_1  and  C_2
REMARK    2  A    between atoms: N_4  and  C_5
REMARK    3  A    between atoms: C_8  and  O_11
REMARK                            x       y       z     vdW  Elec       q    Type
REMARK                         _______ _______ _______ _____ _____    ______ ____
ROOT
ATOM      1  C   UNL     1       1.609  -2.414   1.569  0.00  0.00    +0.000 A 
ATOM      2  C   UNL     1       2.089  -2.271   0.219  0.00  0.00    +0.000 A 
ATOM      3  C   UNL     1       1.741  -1.104  -0.550  0.00  0.00    +0.000 A 
ATOM      4  C   UNL     1       2.221  -0.961  -1.900  0.00  0.00    +0.000 A 
ATOM      5  C   UNL     1       1.873   0.206  -2.668  0.00  0.00    +0.000 A 
ATOM      6  C   UNL     1       1.957  -3.581   2.337  0.00  0.00    +0.000 A 
ENDROOT
BRANCH   1  10
ATOM      7  C   UNL     1       0.915  -0.026  -0.046  0.00  0.00    +0.000 C 
ATOM      8  C   UNL     1       0.409  -0.177   1.379  0.00  0.00    +0.000 C 
ATOM      9  O   UNL     1      -0.322   0.728   1.892  0.00  0.00    +0.000 OA
ATOM     10  N   UNL     1       0.764  -1.368   2.163  0.00  0.00    +0.000 N 
ATOM     11  H   UNL     1       0.424  -1.469   3.119  0.00  0.00    +0.000 HD
ENDBRANCH   1  10
BRANCH   4  12
ATOM     12  O   UNL     1       3.038  -1.972  -2.474  0.00  0.00    +0.000 OA
ATOM     13  H   UNL     1       3.371  -1.873  -3.411  0.00  0.00    +0.000 HD
ENDBRANCH   4  12
TORSDOF 2
