REMARK  Name = 
REMARK  4 active torsions:
REMARK  status: ('A' for Active; 'I' for Inactive)
REMARK    1  A    between atoms: C_1  and  C_2
REMARK    2  A    between atoms: C_2  and  C_3
REMARK    3  A    between atoms: C_3  and  N_4
REMARK    4  A    between atoms: N_4  and  C_5
REMARK                            x       y       z     vdW  Elec       q    Type
REMARK                         _______ _______ _______ _____ _____    ______ ____
ROOT
ATOM      1  C   UNL     1       0.953   2.978  -3.113  0.00  0.00    +0.000 C 
ATOM      2  C   UNL     1      -0.160   5.255  -5.584  0.00  0.00    +0.000 C 
ATOM      3  C   UNL     1      -1.034   4.288  -6.366  0.00  0.00    +0.000 C 
ATOM      4  C   UNL     1      -1.794   3.396  -5.398  0.00  0.00    +0.000 A 
ATOM      5  C   UNL     1      -1.074   2.551  -4.481  0.00  0.00    +0.000 A 
ATOM      6  C   UNL     1       0.446   2.551  -4.481  0.00  0.00    +0.000 C 
ATOM      7  S   UNL     1      -1.931   1.544  -3.388  0.00  0.00    +0.000 S 
ATOM      8  C   UNL     1      -3.646   1.544  -3.388  0.00  0.00    +0.000 A 
ATOM      9  N   UNL     1      -4.343   2.362  -4.275  0.00  0.00    +0.000 NA
ATOM     10  N   UNL     1      -4.381   0.682  -2.452  0.00  0.00    +0.000 N 
ATOM     11  H   UNL     1      -3.871   0.083  -1.803  0.00  0.00    +0.000 HD
ATOM     12  H   UNL     1      -5.401   0.682  -2.452  0.00  0.00    +0.000 HD
ENDROOT
BRANCH   1  13
ATOM     13  N   UNL     1       0.463   2.039  -2.094  0.00  0.00    +0.000 NA
ATOM     14  H   UNL     1       0.803   1.101  -2.304  0.00  0.00    +0.000 HD
BRANCH  13  15
ATOM     15  C   UNL     1       0.953   2.452  -0.771  0.00  0.00    +0.000 C 
BRANCH  15  17
ATOM     16  C   UNL     1       0.953   0.083  -0.031  0.00  0.00    +0.000 C 
ATOM     17  C   UNL     1       0.446   1.481   0.283  0.00  0.00    +0.000 C 
ENDBRANCH  15  17
ENDBRANCH  13  15
ENDBRANCH   1  13
TORSDOF 3
