REMARK  Name = 
REMARK  7 active torsions:
REMARK  status: ('A' for Active; 'I' for Inactive)
REMARK    1  A    between atoms: C_1  and  C_2
REMARK    2  A    between atoms: C_4  and  O_26
REMARK    3  A    between atoms: C_10  and  C_11
REMARK    4  A    between atoms: C_10  and  O_15
REMARK    5  A    between atoms: C_11  and  C_13
REMARK    6  A    between atoms: C_13  and  O_14
REMARK    7  A    between atoms: C_24  and  C_25
REMARK                            x       y       z     vdW  Elec       q    Type
REMARK                         _______ _______ _______ _____ _____    ______ ____
ROOT
ATOM      1  C   UNL     1       1.061   0.010  -0.078  0.00  0.00    +0.000 C 
ATOM      2  C   UNL     1       0.555  -0.491   1.264  0.00  0.00    +0.000 C 
ATOM      3  C   UNL     1       0.366  -1.953   1.634  0.00  0.00    +0.000 C 
ATOM      4  C   UNL     1       1.344  -2.328   2.735  0.00  0.00    +0.000 C 
ATOM      5  C   UNL     1       2.766  -2.109   2.246  0.00  0.00    +0.000 C 
ATOM      6  C   UNL     1       8.029  -1.873   3.212  0.00  0.00    +0.000 C 
ATOM      7  C   UNL     1      -0.334  -1.679   4.446  0.00  0.00    +0.000 C 
ATOM      8  C   UNL     1       1.088  -1.460   3.957  0.00  0.00    +0.000 C 
ATOM      9  C   UNL     1       1.277   0.003   3.587  0.00  0.00    +0.000 C 
ATOM     10  C   UNL     1       0.299   0.377   2.485  0.00  0.00    +0.000 C 
ATOM     11  C   UNL     1       7.334  -3.136   3.696  0.00  0.00    +0.000 C 
ATOM     12  C   UNL     1       6.139  -3.430   2.804  0.00  0.00    +0.000 C 
ATOM     13  C   UNL     1       5.166  -2.264   2.859  0.00  0.00    +0.000 C 
ATOM     14  C   UNL     1       5.568  -1.024   2.471  0.00  0.00    +0.000 C 
ATOM     15  C   UNL     1       4.595   0.143   2.525  0.00  0.00    +0.000 C 
ATOM     16  O   UNL     1       4.510   0.605   1.345  0.00  0.00    +0.000 OA
ATOM     17  C   UNL     1       3.173  -0.077   3.014  0.00  0.00    +0.000 C 
ATOM     18  C   UNL     1       3.488  -1.615   4.569  0.00  0.00    +0.000 C 
ATOM     19  C   UNL     1       3.744  -2.483   3.348  0.00  0.00    +0.000 C 
ATOM     20  C   UNL     1       3.555  -3.945   3.718  0.00  0.00    +0.000 C 
ENDROOT
BRANCH  10  21
ATOM     21  C   UNL     1      -0.864   1.289   2.841  0.00  0.00    +0.000 C 
ATOM     22  O   UNL     1      -0.776   2.547   2.688  0.00  0.00    +0.000 OA
BRANCH  21  23
ATOM     23  C   UNL     1      -2.150   0.676   3.372  0.00  0.00    +0.000 C 
BRANCH  23  24
ATOM     24  O   UNL     1      -2.675  -0.228   2.411  0.00  0.00    +0.000 OA
ATOM     25  H   UNL     1      -2.866   0.263   1.561  0.00  0.00    +0.000 HD
ENDBRANCH  23  24
ENDBRANCH  21  23
ENDBRANCH  10  21
BRANCH  10  26
ATOM     26  O   UNL     1       0.058   1.518   1.674  0.00  0.00    +0.000 OA
ATOM     27  H   UNL     1       0.423   1.179   0.807  0.00  0.00    +0.000 HD
ENDBRANCH  10  26
BRANCH   4  28
ATOM     28  O   UNL     1       1.057  -1.501   3.853  0.00  0.00    +0.000 OA
ATOM     29  H   UNL     1       0.394  -2.038   4.374  0.00  0.00    +0.000 HD
ENDBRANCH   4  28
TORSDOF 5
