REMARK  Name = 
REMARK  3 active torsions:
REMARK  status: ('A' for Active; 'I' for Inactive)
REMARK    1  A    between atoms: C_1  and  N_2
REMARK    2  A    between atoms: N_2  and  C_3
REMARK    3  A    between atoms: C_6  and  C_7
REMARK                            x       y       z     vdW  Elec       q    Type
REMARK                         _______ _______ _______ _____ _____    ______ ____
ROOT
ATOM      1  C   UNL     1      -0.926  -0.940   1.127  0.00  0.00    +0.000 C 
ATOM      2  C   UNL     1      -2.963  -0.672   1.937  0.00  0.00    +0.000 C 
ATOM      3  C   UNL     1      -3.723  -0.258   3.187  0.00  0.00    +0.000 C 
ATOM      4  C   UNL     1      -3.356  -1.186   4.334  0.00  0.00    +0.000 C 
ATOM      5  C   UNL     1      -1.862  -1.098   4.597  0.00  0.00    +0.000 A 
ATOM      6  C   UNL     1      -0.926  -1.442   3.558  0.00  0.00    +0.000 A 
ATOM      7  C   UNL     1      -1.432  -1.893   2.198  0.00  0.00    +0.000 C 
ATOM      8  C   UNL     1       0.490  -1.360   3.808  0.00  0.00    +0.000 A 
ATOM      9  C   UNL     1       1.426  -1.704   2.769  0.00  0.00    +0.000 A 
ATOM     10  C   UNL     1       2.842  -1.621   3.019  0.00  0.00    +0.000 A 
ATOM     11  C   UNL     1       3.778  -1.965   1.979  0.00  0.00    +0.000 A 
ENDROOT
BRANCH   4  12
ATOM     12  C   UNL     1      -3.723  -2.614   3.967  0.00  0.00    +0.000 A 
ATOM     13  C   UNL     1      -3.129  -3.237   2.812  0.00  0.00    +0.000 A 
ATOM     14  C   UNL     1      -2.187  -2.506   2.005  0.00  0.00    +0.000 A 
ATOM     15  C   UNL     1      -1.593  -3.128   0.850  0.00  0.00    +0.000 A 
ATOM     16  C   UNL     1      -0.651  -2.397   0.042  0.00  0.00    +0.000 A 
ATOM     17  C   UNL     1      -4.665  -3.345   4.775  0.00  0.00    +0.000 A 
ATOM     18 CL   UNL     1      -5.399  -2.576   6.202  0.00  0.00    +0.000 Cl
ENDBRANCH   4  12
BRANCH   1  20
ATOM     19  C   UNL     1      -2.827   0.575   1.027  0.00  0.00    +0.000 C 
ATOM     20  N   UNL     1      -1.416   0.417   1.408  0.00  0.00    +0.000 NA
ATOM     21  H   UNL     1      -0.844   1.071   0.873  0.00  0.00    +0.000 HD
ENDBRANCH   1  20
TORSDOF 2
