REMARK  Name = 
REMARK  10 active torsions:
REMARK  status: ('A' for Active; 'I' for Inactive)
REMARK    1  A    between atoms: C_1  and  C_2
REMARK    2  A    between atoms: C_2  and  C_3
REMARK    3  A    between atoms: C_3  and  C_4
REMARK    4  A    between atoms: N_8  and  C_9
REMARK    5  A    between atoms: C_9  and  C_10
REMARK    6  A    between atoms: C_13  and  C_16
REMARK    7  A    between atoms: C_21  and  C_22
REMARK    8  A    between atoms: C_22  and  O_24
REMARK    9  A    between atoms: C_26  and  C_30
REMARK   10  A    between atoms: C_28  and  C_29
REMARK                            x       y       z     vdW  Elec       q    Type
REMARK                         _______ _______ _______ _____ _____    ______ ____
ROOT
ATOM      1  C   UNL     1      -1.384   2.451  -3.165  0.00  0.00    +0.000 A 
ATOM      2  C   UNL     1      -2.626   1.884  -2.708  0.00  0.00    +0.000 A 
ATOM      3  C   UNL     1      -3.148   0.695  -3.332  0.00  0.00    +0.000 A 
ATOM      4  C   UNL     1      -4.390   0.128  -2.874  0.00  0.00    +0.000 A 
ATOM      5  C   UNL     1      -4.912  -1.061  -3.498  0.00  0.00    +0.000 A 
ATOM      6  C   UNL     1      -0.862   3.640  -2.541  0.00  0.00    +0.000 A 
ENDROOT
BRANCH   4   7
ATOM      7  C   UNL     1      -5.150   0.783  -1.732  0.00  0.00    +0.000 A 
ATOM      8  C   UNL     1      -6.392   0.215  -1.275  0.00  0.00    +0.000 A 
ATOM      9  C   UNL     1      -6.914  -0.973  -1.899  0.00  0.00    +0.000 A 
ATOM     10  C   UNL     1      -8.156  -1.541  -1.441  0.00  0.00    +0.000 A 
ATOM     11  C   UNL     1      -8.677  -2.729  -2.065  0.00  0.00    +0.000 A 
ATOM     12  C   UNL     1      -4.628   1.971  -1.108  0.00  0.00    +0.000 A 
BRANCH  12  13
ATOM     13  C   UNL     1      -3.317   2.570  -1.591  0.00  0.00    +0.000 C 
ATOM     14  O   UNL     1      -2.682   2.023  -2.546  0.00  0.00    +0.000 OA
BRANCH  13  15
ATOM     15  O   UNL     1      -2.802   3.742  -0.976  0.00  0.00    +0.000 OA
ATOM     16  H   UNL     1      -1.940   4.136  -1.293  0.00  0.00    +0.000 HD
ENDBRANCH  13  15
ENDBRANCH  12  13
ENDBRANCH   4   7
BRANCH   1  17
ATOM     17  C   UNL     1      -0.624   1.796  -4.307  0.00  0.00    +0.000 C 
BRANCH  17  22
ATOM     18  C   UNL     1       0.532   0.186  -2.818  0.00  0.00    +0.000 A 
ATOM     19  N   UNL     1       0.868  -1.119  -2.464  0.00  0.00    +0.000 NA
ATOM     20  C   UNL     1       0.404  -2.189  -3.225  0.00  0.00    +0.000 A 
ATOM     21  C   UNL     1       0.752  -3.538  -2.858  0.00  0.00    +0.000 A 
ATOM     22  N   UNL     1      -0.269   0.420  -3.933  0.00  0.00    +0.000 N 
ATOM     23  C   UNL     1       0.272  -4.644  -3.645  0.00  0.00    +0.000 A 
ATOM     24  C   UNL     1      -0.556  -4.402  -4.798  0.00  0.00    +0.000 A 
ATOM     25  C   UNL     1      -1.036  -5.508  -5.585  0.00  0.00    +0.000 A 
ATOM     26  C   UNL     1      -0.424  -1.947  -4.378  0.00  0.00    +0.000 A 
ATOM     27  C   UNL     1      -0.791  -0.523  -4.764  0.00  0.00    +0.000 C 
ATOM     28  C   UNL     1      -0.923  -2.979  -5.185  0.00  0.00    +0.000 C 
BRANCH  18  29
ATOM     29  C   UNL     1       1.039   1.353  -1.987  0.00  0.00    +0.000 C 
BRANCH  29  31
ATOM     30  C   UNL     1       1.039  -0.085   0.036  0.00  0.00    +0.000 C 
ATOM     31  C   UNL     1       0.532   1.218  -0.561  0.00  0.00    +0.000 C 
ENDBRANCH  29  31
ENDBRANCH  18  29
ENDBRANCH  17  22
ENDBRANCH   1  17
TORSDOF 7
