REMARK  Name = 
REMARK  4 active torsions:
REMARK  status: ('A' for Active; 'I' for Inactive)
REMARK    1  A    between atoms: C_1  and  C_2
REMARK    2  A    between atoms: C_3  and  C_7
REMARK    3  A    between atoms: N_9  and  C_10
REMARK    4  A    between atoms: C_13  and  C_16
REMARK                            x       y       z     vdW  Elec       q    Type
REMARK                         _______ _______ _______ _____ _____    ______ ____
ROOT
ATOM      1  C   UNL     1       0.403  -1.739  -3.441  0.00  0.00    +0.000 C 
ATOM      2  O   UNL     1      -0.328  -2.716  -3.083  0.00  0.00    +0.000 OA
ATOM      3  N   UNL     1       0.758  -1.567  -4.857  0.00  0.00    +0.000 N 
ATOM      4  H   UNL     1       0.418  -2.231  -5.552  0.00  0.00    +0.000 HD
ENDROOT
BRANCH   1   7
ATOM      5  C   UNL     1       1.068   0.071   0.020  0.00  0.00    +0.000 C 
ATOM      6  C   UNL     1       0.561  -0.919  -1.017  0.00  0.00    +0.000 A 
ATOM      7  C   UNL     1       0.909  -0.750  -2.404  0.00  0.00    +0.000 A 
ATOM      8  C   UNL     1       1.737   0.357  -2.809  0.00  0.00    +0.000 A 
ATOM      9  N   UNL     1       2.074   0.520  -4.151  0.00  0.00    +0.000 NA
ATOM     10  O   UNL     1      -0.212  -1.953  -0.638  0.00  0.00    +0.000 OA
ENDBRANCH   1   7
BRANCH   3  11
ATOM     11  C   UNL     1       1.603  -0.438  -5.270  0.00  0.00    +0.000 A 
ATOM     12  C   UNL     1       2.083   0.500  -4.288  0.00  0.00    +0.000 A 
ATOM     13  C   UNL     1       1.735   0.331  -2.901  0.00  0.00    +0.000 A 
ATOM     14  C   UNL     1       2.215   1.269  -1.919  0.00  0.00    +0.000 A 
ATOM     15  C   UNL     1       1.867   1.100  -0.531  0.00  0.00    +0.000 A 
ATOM     16  C   UNL     1       1.951  -0.268  -6.657  0.00  0.00    +0.000 A 
BRANCH  14  17
ATOM     17  C   UNL     1       3.089   2.436  -2.346  0.00  0.00    +0.000 C 
ATOM     18  F   UNL     1       4.197   1.975  -2.918  0.00  0.00    +0.000 F 
ATOM     19  F   UNL     1       2.424   3.193  -3.214  0.00  0.00    +0.000 F 
ATOM     20  F   UNL     1       3.410   3.163  -1.280  0.00  0.00    +0.000 F 
ENDBRANCH  14  17
ENDBRANCH   3  11
TORSDOF 3
