REMARK  Name = 
REMARK  7 active torsions:
REMARK  status: ('A' for Active; 'I' for Inactive)
REMARK    1  A    between atoms: C_1  and  C_2
REMARK    2  A    between atoms: C_3  and  C_16
REMARK    3  A    between atoms: N_6  and  C_7
REMARK    4  A    between atoms: C_7  and  C_8
REMARK    5  A    between atoms: C_11  and  C_15
REMARK    6  A    between atoms: C_16  and  C_17
REMARK    7  A    between atoms: C_17  and  O_18
REMARK                            x       y       z     vdW  Elec       q    Type
REMARK                         _______ _______ _______ _____ _____    ______ ____
ROOT
ATOM      1  C   UNL     1      -0.754   2.221  -0.890  0.00  0.00    +0.000 C 
ENDROOT
BRANCH   1   2
ATOM      2  C   UNL     1       0.513   2.341  -1.721  0.00  0.00    +0.000 A 
ATOM      3  C   UNL     1       1.407   3.451  -1.516  0.00  0.00    +0.000 A 
ATOM      4  N   UNL     1       1.111   4.415  -0.555  0.00  0.00    +0.000 NA
ATOM      5  C   UNL     1      -0.050   4.306   0.207  0.00  0.00    +0.000 A 
ATOM      6  N   UNL     1      -0.915   3.232   0.008  0.00  0.00    +0.000 NA
ATOM      7  C   UNL     1       0.819   1.344  -2.715  0.00  0.00    +0.000 A 
ATOM      8  N   UNL     1      -0.094   0.211  -2.924  0.00  0.00    +0.000 N 
ATOM      9  C   UNL     1      -0.373   5.358   1.255  0.00  0.00    +0.000 C 
ATOM     10  H   UNL     1      -0.944   0.131  -2.366  0.00  0.00    +0.000 HD
ATOM     11  H   UNL     1       0.123  -0.495  -3.628  0.00  0.00    +0.000 HD
ENDBRANCH   1   2
BRANCH   1  17
ATOM     12  C   UNL     1       0.909   0.039   0.012  0.00  0.00    +0.000 C 
ATOM     13  C   UNL     1       0.402   1.088   0.988  0.00  0.00    +0.000 A 
ATOM     14  C   UNL     1       0.750   1.001   2.383  0.00  0.00    +0.000 A 
ATOM     15  S   UNL     1       1.736  -0.286   2.942  0.00  0.00    +0.000 S 
ATOM     16  C   UNL     1       2.307  -1.470   1.841  0.00  0.00    +0.000 A 
ATOM     17  N   UNL     1      -0.399   2.133   0.534  0.00  0.00    +0.000 N 
BRANCH  14  18
ATOM     18  C   UNL     1       0.243   2.049   3.360  0.00  0.00    +0.000 C 
BRANCH  18  19
ATOM     19  C   UNL     1       0.750   3.420   2.939  0.00  0.00    +0.000 C 
BRANCH  19  20
ATOM     20  O   UNL     1       0.276   3.720   1.635  0.00  0.00    +0.000 OA
ATOM     21  H   UNL     1       0.610   3.030   0.992  0.00  0.00    +0.000 HD
ENDBRANCH  19  20
ENDBRANCH  18  19
ENDBRANCH  14  18
ENDBRANCH   1  17
TORSDOF 5
