REMARK  Name = 
REMARK  8 active torsions:
REMARK  status: ('A' for Active; 'I' for Inactive)
REMARK    1  A    between atoms: C_1  and  C_2
REMARK    2  A    between atoms: C_2  and  C_3
REMARK    3  A    between atoms: C_3  and  C_4
REMARK    4  A    between atoms: C_4  and  C_5
REMARK    5  A    between atoms: C_4  and  C_8
REMARK    6  A    between atoms: C_5  and  C_6
REMARK    7  A    between atoms: C_6  and  C_7
REMARK    8  A    between atoms: C_8  and  O_10
REMARK                            x       y       z     vdW  Elec       q    Type
REMARK                         _______ _______ _______ _____ _____    ______ ____
ROOT
ATOM      1  C   UNL     1       0.435   2.934   0.165  0.00  0.00    +0.000 C 
ENDROOT
BRANCH   1   2
ATOM      2  C   UNL     1       0.942   4.364   0.264  0.00  0.00    +0.000 C 
ATOM      3  O   UNL     1       1.672   4.844  -0.659  0.00  0.00    +0.000 OA
BRANCH   2   4
ATOM      4  O   UNL     1       0.599   5.162   1.386  0.00  0.00    +0.000 OA
ATOM      5  H   UNL     1       0.932   6.103   1.451  0.00  0.00    +0.000 HD
ENDBRANCH   2   4
ENDBRANCH   1   2
BRANCH   1   6
ATOM      6  C   UNL     1       0.942   2.134   1.354  0.00  0.00    +0.000 C 
BRANCH   6   8
ATOM      7  C   UNL     1       0.942   0.075  -0.032  0.00  0.00    +0.000 C 
ATOM      8  C   UNL     1       0.435   0.704   1.255  0.00  0.00    +0.000 C 
ENDBRANCH   6   8
ENDBRANCH   1   6
BRANCH   1   9
ATOM      9  C   UNL     1      -1.085   2.934   0.165  0.00  0.00    +0.000 C 
BRANCH   9  10
ATOM     10  C   UNL     1      -1.592   3.563   1.452  0.00  0.00    +0.000 C 
ATOM     11  C   UNL     1      -1.085   4.993   1.551  0.00  0.00    +0.000 C 
ENDBRANCH   9  10
ENDBRANCH   1   9
TORSDOF 6
