REMARK SMILES O=c1n(CCN2CCC(Cc3c[nH]c4ccc(F)cc34)CC2)c2cccc3c2n1CCC3
REMARK SMILES IDX 6 1 7 2 8 3 9 4 21 5 22 6 5 7 4 8 3 9 1 10 2 11 29 12 23 13
REMARK SMILES IDX 28 14 30 15 24 16 27 17 31 18 25 19 26 20 32 21 10 22 11 23
REMARK SMILES IDX 12 24 20 25 13 26 19 27 14 28 17 29 15 30 16 31 18 33
REMARK H PARENT 13 32
ROOT
ATOM      1  N   UNL     1       0.151  -1.054   2.386  1.00  0.00    -0.302 NA
ATOM      2  C   UNL     1      -0.276  -2.419   2.047  1.00  0.00     0.085 C 
ATOM      3  C   UNL     1       0.554  -2.985   0.892  1.00  0.00     0.019 C 
ATOM      4  C   UNL     1       2.051  -2.967   1.229  1.00  0.00    -0.004 C 
ATOM      5  C   UNL     1       2.462  -1.550   1.649  1.00  0.00     0.019 C 
ATOM      6  C   UNL     1       1.567  -1.028   2.776  1.00  0.00     0.085 C 
ENDROOT
BRANCH   1   7
ATOM      7  C   UNL     1      -0.691  -0.450   3.435  1.00  0.00     0.106 C 
BRANCH   7   8
ATOM      8  C   UNL     1      -2.155  -0.154   3.036  1.00  0.00     0.143 C 
BRANCH   8   9
ATOM      9  N   UNL     1      -2.289   0.598   1.813  1.00  0.00    -0.291 N 
ATOM     10  O   UNL     1      -3.075  -1.085   0.333  1.00  0.00    -0.248 OA
ATOM     11  C   UNL     1      -2.689   0.051   0.559  1.00  0.00     0.329 C 
ATOM     12  N   UNL     1      -2.582   1.101  -0.367  1.00  0.00    -0.292 N 
ATOM     13  C   UNL     1      -1.975   1.955   1.639  1.00  0.00     0.070 A 
ATOM     14  C   UNL     1      -2.173   2.247   0.299  1.00  0.00     0.072 A 
ATOM     15  C   UNL     1      -2.941   1.153  -1.762  1.00  0.00     0.128 C 
ATOM     16  C   UNL     1      -1.565   2.942   2.503  1.00  0.00     0.028 A 
ATOM     17  C   UNL     1      -1.990   3.483  -0.277  1.00  0.00    -0.022 A 
ATOM     18  C   UNL     1      -2.191   2.287  -2.483  1.00  0.00     0.027 C 
ATOM     19  C   UNL     1      -1.372   4.227   1.962  1.00  0.00     0.003 A 
ATOM     20  C   UNL     1      -1.588   4.500   0.588  1.00  0.00     0.006 A 
ATOM     21  C   UNL     1      -2.292   3.637  -1.738  1.00  0.00     0.039 C 
ENDBRANCH   8   9
ENDBRANCH   7   8
ENDBRANCH   1   7
BRANCH   4  22
ATOM     22  C   UNL     1       2.937  -3.561   0.119  1.00  0.00     0.041 C 
BRANCH  22  23
ATOM     23  C   UNL     1       2.930  -2.837  -1.193  1.00  0.00    -0.022 A 
ATOM     24  C   UNL     1       3.754  -1.786  -1.550  1.00  0.00     0.087 A 
ATOM     25  C   UNL     1       2.107  -3.118  -2.334  1.00  0.00     0.005 A 
ATOM     26  N   UNL     1       3.445  -1.405  -2.826  1.00  0.00    -0.361 N 
ATOM     27  C   UNL     1       1.101  -4.066  -2.608  1.00  0.00     0.049 A 
ATOM     28  C   UNL     1       2.450  -2.206  -3.335  1.00  0.00     0.046 A 
ATOM     29  C   UNL     1       0.486  -4.055  -3.859  1.00  0.00     0.123 A 
ATOM     30  C   UNL     1       1.835  -2.188  -4.594  1.00  0.00     0.030 A 
ATOM     31  C   UNL     1       0.840  -3.137  -4.839  1.00  0.00     0.041 A 
ATOM     32  H   UNL     1       3.888  -0.651  -3.331  1.00  0.00     0.166 HD
ATOM     33  F   UNL     1      -0.470  -4.956  -4.125  1.00  0.00    -0.207 F 
ENDBRANCH  22  23
ENDBRANCH   4  22
TORSDOF 5
