REMARK SMILES CN1CC[C@]23c4c5ccc(O)c4O[C@H]2C(=O)CC[C@H]3[C@H]1C5
REMARK SMILES IDX 1 1 2 2 3 3 4 4 5 5 6 6 7 7 8 8 9 9 10 10 12 11 13 12 14 13
REMARK SMILES IDX 15 14 16 15 17 16 18 17 19 18 20 19 21 20 11 21
REMARK H PARENT 11 22
ROOT
ATOM      1  C   UNL     1       3.514  -1.675  -0.109  1.00  0.00     0.105 C 
ATOM      2  N   UNL     1       2.149  -1.206  -0.331  1.00  0.00    -0.303 NA
ATOM      3  C   UNL     1       2.006  -0.571  -1.639  1.00  0.00     0.085 C 
ATOM      4  C   UNL     1       0.575  -0.074  -1.907  1.00  0.00     0.032 C 
ATOM      5  C   UNL     1      -0.072   0.596  -0.667  1.00  0.00     0.049 C 
ATOM      6  C   UNL     1      -1.041  -0.355  -0.042  1.00  0.00     0.012 A 
ATOM      7  C   UNL     1      -0.768  -1.298   0.934  1.00  0.00    -0.039 A 
ATOM      8  C   UNL     1      -1.828  -2.106   1.349  1.00  0.00     0.008 A 
ATOM      9  C   UNL     1      -3.116  -1.936   0.795  1.00  0.00     0.050 A 
ATOM     10  C   UNL     1      -3.362  -0.929  -0.146  1.00  0.00     0.158 A 
ATOM     11  C   UNL     1      -2.312  -0.127  -0.534  1.00  0.00     0.166 A 
ATOM     12  O   UNL     1      -2.353   0.972  -1.358  1.00  0.00    -0.477 OA
ATOM     13  C   UNL     1      -1.111   1.666  -1.049  1.00  0.00     0.251 C 
ATOM     14  C   UNL     1      -1.340   2.722   0.049  1.00  0.00     0.174 C 
ATOM     15  O   UNL     1      -2.399   3.342   0.168  1.00  0.00    -0.295 OA
ATOM     16  C   UNL     1      -0.157   3.080   0.922  1.00  0.00     0.080 C 
ATOM     17  C   UNL     1       0.495   1.828   1.493  1.00  0.00     0.014 C 
ATOM     18  C   UNL     1       1.014   0.945   0.352  1.00  0.00     0.022 C 
ATOM     19  C   UNL     1       1.638  -0.410   0.815  1.00  0.00     0.064 C 
ATOM     20  C   UNL     1       0.603  -1.315   1.563  1.00  0.00     0.055 C 
ENDROOT
BRANCH  10  21
ATOM     21  O   UNL     1      -4.605  -0.719  -0.655  1.00  0.00    -0.504 OA
ATOM     22  H   UNL     1      -5.226  -1.333  -0.233  1.00  0.00     0.293 HD
ENDBRANCH  10  21
TORSDOF 1
