REMARK SMILES O=C(Nc1cccc2cccnc12)c1ccc2c(c1)OCCO2
REMARK SMILES IDX 1 1 2 2 3 3 14 5 15 6 19 7 16 8 18 9 17 10 20 11 23 12 21 13
REMARK SMILES IDX 22 14 4 15 5 16 13 17 6 18 12 19 8 20 7 21 11 22 9 23 10 24
REMARK H PARENT 3 4
ROOT
ATOM      1  O   UNL     1       0.290   0.955  -2.249  1.00  0.00    -0.269 OA
ATOM      2  C   UNL     1       0.198   0.583  -1.085  1.00  0.00     0.255 C 
ATOM      3  N   UNL     1      -0.965   0.326  -0.395  1.00  0.00    -0.320 N 
ATOM      4  H   UNL     1      -0.913  -0.090   0.532  1.00  0.00     0.170 HD
ENDROOT
BRANCH   2   5
ATOM      5  C   UNL     1       1.453   0.346  -0.314  1.00  0.00     0.044 A 
ATOM      6  C   UNL     1       1.527   0.578   1.068  1.00  0.00     0.018 A 
ATOM      7  C   UNL     1       2.589  -0.088  -1.009  1.00  0.00     0.064 A 
ATOM      8  C   UNL     1       2.722   0.342   1.753  1.00  0.00     0.051 A 
ATOM      9  C   UNL     1       3.781  -0.310  -0.323  1.00  0.00     0.162 A 
ATOM     10  C   UNL     1       3.841  -0.118   1.062  1.00  0.00     0.161 A 
ATOM     11  O   UNL     1       4.855  -0.723  -1.069  1.00  0.00    -0.486 OA
ATOM     12  O   UNL     1       4.971  -0.348   1.804  1.00  0.00    -0.486 OA
ATOM     13  C   UNL     1       6.081  -0.579  -0.344  1.00  0.00     0.271 C 
ATOM     14  C   UNL     1       5.932  -1.115   1.070  1.00  0.00     0.271 C 
ENDBRANCH   2   5
BRANCH   3  15
ATOM     15  C   UNL     1      -2.304   0.481  -0.834  1.00  0.00     0.068 A 
ATOM     16  C   UNL     1      -2.648   1.005  -2.084  1.00  0.00     0.028 A 
ATOM     17  C   UNL     1      -3.294   0.078   0.078  1.00  0.00     0.094 A 
ATOM     18  C   UNL     1      -3.988   1.129  -2.445  1.00  0.00     0.003 A 
ATOM     19  N   UNL     1      -2.939  -0.421   1.288  1.00  0.00    -0.254 NA
ATOM     20  C   UNL     1      -4.648   0.210  -0.301  1.00  0.00     0.002 A 
ATOM     21  C   UNL     1      -4.986   0.733  -1.559  1.00  0.00     0.010 A 
ATOM     22  C   UNL     1      -3.921  -0.800   2.136  1.00  0.00     0.112 A 
ATOM     23  C   UNL     1      -5.634  -0.194   0.609  1.00  0.00     0.012 A 
ATOM     24  C   UNL     1      -5.267  -0.707   1.846  1.00  0.00     0.021 A 
ENDBRANCH   3  15
TORSDOF 2
