REMARK SMILES O=C(NO)c1ccc(CNC(=O)c2ccc3ccccc3c2)cc1
REMARK SMILES IDX 5 1 6 2 7 3 8 4 23 5 24 6 2 7 1 8 3 9 4 11 9 13 10 14 11 15
REMARK SMILES IDX 12 16 13 18 14 19 22 20 15 21 21 22 16 23 20 24 17 25 19 26
REMARK SMILES IDX 18 27
REMARK H PARENT 3 10 4 12 10 17
ROOT
ATOM      1  C   UNL     1       4.403   0.369   0.268  1.00  0.00     0.042 A 
ATOM      2  C   UNL     1       4.159  -0.379   1.427  1.00  0.00     0.014 A 
ATOM      3  C   UNL     1       3.185  -1.381   1.430  1.00  0.00     0.006 A 
ATOM      4  C   UNL     1       2.453  -1.660   0.268  1.00  0.00    -0.029 A 
ATOM      5  C   UNL     1       2.707  -0.913  -0.892  1.00  0.00     0.006 A 
ATOM      6  C   UNL     1       3.680   0.090  -0.897  1.00  0.00     0.014 A 
ENDROOT
BRANCH   1   7
ATOM      7  C   UNL     1       5.447   1.428   0.320  1.00  0.00     0.274 C 
ATOM      8  O   UNL     1       6.310   1.434   1.195  1.00  0.00    -0.267 OA
ATOM      9  N   UNL     1       5.365   2.429  -0.625  1.00  0.00    -0.234 N 
ATOM     10  H   UNL     1       4.489   2.661  -1.079  1.00  0.00     0.199 HD
BRANCH   9  11
ATOM     11  O   UNL     1       6.242   3.521  -0.399  1.00  0.00    -0.288 OA
ATOM     12  H   UNL     1       6.752   3.217   0.385  1.00  0.00     0.246 HD
ENDBRANCH   9  11
ENDBRANCH   1   7
BRANCH   4  13
ATOM     13  C   UNL     1       1.384  -2.723   0.266  1.00  0.00     0.152 C 
BRANCH  13  14
ATOM     14  N   UNL     1       0.082  -2.144   0.509  1.00  0.00    -0.348 N 
ATOM     15  C   UNL     1      -0.754  -1.797  -0.532  1.00  0.00     0.251 C 
ATOM     16  O   UNL     1      -0.498  -2.018  -1.710  1.00  0.00    -0.269 OA
ATOM     17  H   UNL     1      -0.067  -1.721   1.414  1.00  0.00     0.164 HD
BRANCH  15  18
ATOM     18  C   UNL     1      -2.004  -1.079  -0.161  1.00  0.00     0.040 A 
ATOM     19  C   UNL     1      -2.628  -1.267   1.077  1.00  0.00     0.014 A 
ATOM     20  C   UNL     1      -2.574  -0.208  -1.099  1.00  0.00     0.022 A 
ATOM     21  C   UNL     1      -3.800  -0.569   1.381  1.00  0.00     0.009 A 
ATOM     22  C   UNL     1      -3.750   0.499  -0.804  1.00  0.00    -0.018 A 
ATOM     23  C   UNL     1      -4.370   0.319   0.454  1.00  0.00    -0.018 A 
ATOM     24  C   UNL     1      -4.325   1.381  -1.733  1.00  0.00     0.009 A 
ATOM     25  C   UNL     1      -5.546   1.027   0.748  1.00  0.00     0.009 A 
ATOM     26  C   UNL     1      -5.494   2.078  -1.425  1.00  0.00     0.001 A 
ATOM     27  C   UNL     1      -6.104   1.902  -0.186  1.00  0.00     0.001 A 
ENDBRANCH  15  18
ENDBRANCH  13  14
ENDBRANCH   4  13
TORSDOF 5
