REMARK SMILES O=C(NCC1CCC(C(=O)NO)CC1)c1ccc2ccccc2c1
REMARK SMILES IDX 5 1 6 2 7 3 8 4 13 5 14 6 4 7 3 8 1 9 2 10 15 12 16 13 24 14
REMARK SMILES IDX 17 15 23 16 18 17 22 18 19 19 21 20 20 21 9 22 10 23 11 24
REMARK SMILES IDX 12 26
REMARK H PARENT 3 11 11 25 12 27
ROOT
ATOM      1  C   UNL     1      -1.818  -1.244  -0.117  1.00  0.00     0.008 C 
ATOM      2  C   UNL     1      -3.139  -1.919   0.273  1.00  0.00     0.006 C 
ATOM      3  C   UNL     1      -4.189  -1.808  -0.828  1.00  0.00     0.014 C 
ATOM      4  C   UNL     1      -4.414  -0.389  -1.353  1.00  0.00     0.080 C 
ATOM      5  C   UNL     1      -3.118   0.398  -1.570  1.00  0.00     0.014 C 
ATOM      6  C   UNL     1      -2.060   0.228  -0.479  1.00  0.00     0.006 C 
ENDROOT
BRANCH   1   7
ATOM      7  C   UNL     1      -0.801  -1.407   1.028  1.00  0.00     0.119 C 
BRANCH   7   8
ATOM      8  N   UNL     1       0.524  -0.942   0.672  1.00  0.00    -0.352 N 
ATOM      9  O   UNL     1       0.308   1.112   1.677  1.00  0.00    -0.269 OA
ATOM     10  C   UNL     1       0.978   0.310   1.036  1.00  0.00     0.251 C 
ATOM     11  H   UNL     1       1.056  -1.490   0.010  1.00  0.00     0.163 HD
BRANCH  10  12
ATOM     12  C   UNL     1       2.340   0.680   0.565  1.00  0.00     0.040 A 
ATOM     13  C   UNL     1       2.610   2.029   0.315  1.00  0.00     0.014 A 
ATOM     14  C   UNL     1       3.349  -0.275   0.392  1.00  0.00     0.022 A 
ATOM     15  C   UNL     1       3.873   2.419  -0.134  1.00  0.00     0.009 A 
ATOM     16  C   UNL     1       4.625   0.106  -0.058  1.00  0.00    -0.018 A 
ATOM     17  C   UNL     1       4.888   1.470  -0.329  1.00  0.00    -0.018 A 
ATOM     18  C   UNL     1       5.648  -0.839  -0.242  1.00  0.00     0.009 A 
ATOM     19  C   UNL     1       6.163   1.848  -0.779  1.00  0.00     0.009 A 
ATOM     20  C   UNL     1       6.910  -0.446  -0.691  1.00  0.00     0.001 A 
ATOM     21  C   UNL     1       7.167   0.895  -0.960  1.00  0.00     0.001 A 
ENDBRANCH  10  12
ENDBRANCH   7   8
ENDBRANCH   1   7
BRANCH   4  22
ATOM     22  C   UNL     1      -5.471   0.364  -0.550  1.00  0.00     0.246 C 
ATOM     23  O   UNL     1      -6.628   0.490  -0.957  1.00  0.00    -0.273 OA
ATOM     24  N   UNL     1      -5.096   0.871   0.666  1.00  0.00    -0.238 N 
ATOM     25  H   UNL     1      -4.300   0.537   1.195  1.00  0.00     0.198 HD
BRANCH  24  26
ATOM     26  O   UNL     1      -6.145   1.439   1.430  1.00  0.00    -0.289 OA
ATOM     27  H   UNL     1      -6.915   1.352   0.825  1.00  0.00     0.246 HD
ENDBRANCH  24  26
ENDBRANCH   4  22
TORSDOF 5
