REMARK SMILES COc1ccc(CCN=C(S)Nc2ccc(C(C)C)cc2)cc1
REMARK SMILES IDX 8 1 7 2 6 3 3 4 4 5 23 6 5 7 22 8 2 9 1 10 9 11 10 12 12 13
REMARK SMILES IDX 11 15 13 17 14 18 21 19 15 20 20 21 16 22 17 23 18 24 19 25
REMARK H PARENT 12 14 11 16
ROOT
ATOM      1  C   UNL     1       1.667  -0.079   0.766  1.00  0.00     0.150 C 
ENDROOT
BRANCH   1   2
ATOM      2  C   UNL     1       2.348   0.058  -0.597  1.00  0.00     0.059 C 
BRANCH   2   3
ATOM      3  C   UNL     1       3.772  -0.437  -0.566  1.00  0.00    -0.046 A 
ATOM      4  C   UNL     1       6.429  -1.365  -0.464  1.00  0.00     0.118 A 
ATOM      5  C   UNL     1       6.138  -0.034  -0.163  1.00  0.00     0.046 A 
ATOM      6  C   UNL     1       5.387  -2.228  -0.811  1.00  0.00     0.046 A 
ATOM      7  C   UNL     1       4.817   0.426  -0.212  1.00  0.00     0.007 A 
ATOM      8  C   UNL     1       4.068  -1.772  -0.861  1.00  0.00     0.007 A 
BRANCH   4   9
ATOM      9  O   UNL     1       7.670  -1.940  -0.454  1.00  0.00    -0.497 OA
ATOM     10  C   UNL     1       8.764  -1.099  -0.113  1.00  0.00     0.278 C 
ENDBRANCH   4   9
ENDBRANCH   2   3
ENDBRANCH   1   2
BRANCH   1  11
ATOM     11  N   UNL     1       0.293   0.411   0.691  1.00  0.00    -0.262 NA
ATOM     12  C   UNL     1      -0.048   1.617   0.964  1.00  0.00     0.157 C 
ATOM     13  N   UNL     1      -1.314   2.140   0.917  1.00  0.00    -0.335 N 
ATOM     14  H   UNL     1      -1.360   3.145   0.997  1.00  0.00     0.169 HD
BRANCH  12  15
ATOM     15  S   UNL     1       1.114   2.860   1.443  1.00  0.00    -0.106 SA
ATOM     16  H   UNL     1       0.412   3.312   2.489  1.00  0.00     0.111 HD
ENDBRANCH  12  15
BRANCH  13  17
ATOM     17  C   UNL     1      -2.535   1.531   0.581  1.00  0.00     0.040 A 
ATOM     18  C   UNL     1      -2.698   0.161   0.365  1.00  0.00     0.026 A 
ATOM     19  C   UNL     1      -3.680   2.339   0.487  1.00  0.00     0.026 A 
ATOM     20  C   UNL     1      -3.951  -0.383   0.049  1.00  0.00     0.006 A 
ATOM     21  C   UNL     1      -4.934   1.801   0.173  1.00  0.00     0.006 A 
ATOM     22  C   UNL     1      -5.085   0.429  -0.053  1.00  0.00    -0.045 A 
BRANCH  22  23
ATOM     23  C   UNL     1      -6.450  -0.139  -0.394  1.00  0.00     0.013 C 
ATOM     24  C   UNL     1      -6.459  -0.788  -1.780  1.00  0.00     0.012 C 
ATOM     25  C   UNL     1      -6.931  -1.125   0.673  1.00  0.00     0.012 C 
ENDBRANCH  22  23
ENDBRANCH  13  17
ENDBRANCH   1  11
TORSDOF 7
