REMARK SMILES Cn1ccc2c(-c3ccc4c(c3)OCCO4)cc3c(c21)C1CCC3C1
REMARK SMILES IDX 1 1 2 2 3 3 4 4 5 5 6 6 17 7 18 8 19 9 20 10 21 11 22 12
REMARK SMILES IDX 23 13 24 14 25 15 7 16 8 17 12 18 9 19 11 20 10 21 13 22
REMARK SMILES IDX 16 23 14 24 15 25
REMARK H PARENT
ROOT
ATOM      1  C   UNL     1      -3.701   2.760   0.819  1.00  0.00     0.149 C 
ATOM      2  N   UNL     1      -2.322   2.402   0.577  1.00  0.00    -0.350 N 
ATOM      3  C   UNL     1      -1.258   3.228   0.823  1.00  0.00     0.086 A 
ATOM      4  C   UNL     1      -0.109   2.549   0.491  1.00  0.00     0.029 A 
ATOM      5  C   UNL     1      -0.479   1.254   0.013  1.00  0.00     0.008 A 
ATOM      6  C   UNL     1       0.260   0.122  -0.456  1.00  0.00    -0.009 A 
ATOM      7  C   UNL     1      -0.426  -1.050  -0.835  1.00  0.00     0.013 A 
ATOM      8  C   UNL     1      -1.800  -1.065  -0.762  1.00  0.00    -0.039 A 
ATOM      9  C   UNL     1      -2.551   0.040  -0.316  1.00  0.00    -0.017 A 
ATOM     10  C   UNL     1      -1.883   1.194   0.080  1.00  0.00     0.052 A 
ATOM     11  C   UNL     1      -4.008  -0.396  -0.358  1.00  0.00     0.022 C 
ATOM     12  C   UNL     1      -4.209  -1.437   0.761  1.00  0.00     0.009 C 
ATOM     13  C   UNL     1      -3.373  -2.654   0.273  1.00  0.00     0.009 C 
ATOM     14  C   UNL     1      -2.786  -2.170  -1.068  1.00  0.00     0.020 C 
ATOM     15  C   UNL     1      -3.943  -1.305  -1.599  1.00  0.00     0.016 C 
ENDROOT
BRANCH   6  16
ATOM     16  C   UNL     1       1.724   0.190  -0.526  1.00  0.00    -0.014 A 
ATOM     17  C   UNL     1       2.364   1.051  -1.434  1.00  0.00     0.013 A 
ATOM     18  C   UNL     1       2.519  -0.613   0.307  1.00  0.00     0.059 A 
ATOM     19  C   UNL     1       3.758   1.107  -1.512  1.00  0.00     0.051 A 
ATOM     20  C   UNL     1       3.911  -0.549   0.239  1.00  0.00     0.161 A 
ATOM     21  C   UNL     1       4.531   0.297  -0.686  1.00  0.00     0.161 A 
ATOM     22  O   UNL     1       4.608  -1.351   1.107  1.00  0.00    -0.486 OA
ATOM     23  O   UNL     1       5.892   0.386  -0.830  1.00  0.00    -0.486 OA
ATOM     24  C   UNL     1       5.981  -0.954   1.193  1.00  0.00     0.271 C 
ATOM     25  C   UNL     1       6.556  -0.710  -0.192  1.00  0.00     0.271 C 
ENDBRANCH   6  16
TORSDOF 1
