REMARK SMILES O=C(c1cc(O)c(O)c(O)c1)c1ccc(O)c(O)c1O
REMARK SMILES IDX 1 1 2 2 3 3 4 4 11 5 5 6 9 7 7 8 6 9 10 11 8 13 12 15 13 16
REMARK SMILES IDX 19 17 14 18 17 19 15 20 20 21 18 23 16 25
REMARK H PARENT 6 10 10 12 8 14 20 22 18 24 16 26
ROOT
ATOM      1  O   UNL     1       0.118   2.047   1.070  1.00  0.00    -0.288 OA
ATOM      2  C   UNL     1       0.092   1.015   0.397  1.00  0.00     0.197 C 
ENDROOT
BRANCH   2   3
ATOM      3  C   UNL     1      -1.223   0.432   0.046  1.00  0.00     0.030 A 
ATOM      4  C   UNL     1      -1.442  -0.952   0.081  1.00  0.00     0.062 A 
ATOM      5  C   UNL     1      -2.273   1.314  -0.267  1.00  0.00     0.062 A 
ATOM      6  C   UNL     1      -2.700  -1.442  -0.241  1.00  0.00     0.162 A 
ATOM      7  C   UNL     1      -3.525   0.798  -0.579  1.00  0.00     0.162 A 
ATOM      8  C   UNL     1      -3.735  -0.577  -0.572  1.00  0.00     0.200 A 
BRANCH   6   9
ATOM      9  O   UNL     1      -2.915  -2.790  -0.222  1.00  0.00    -0.504 OA
ATOM     10  H   UNL     1      -3.858  -2.896  -0.464  1.00  0.00     0.293 HD
ENDBRANCH   6   9
BRANCH   7  11
ATOM     11  O   UNL     1      -4.583   1.601  -0.897  1.00  0.00    -0.504 OA
ATOM     12  H   UNL     1      -4.302   2.530  -0.815  1.00  0.00     0.293 HD
ENDBRANCH   7  11
BRANCH   8  13
ATOM     13  O   UNL     1      -4.962  -1.096  -0.881  1.00  0.00    -0.502 OA
ATOM     14  H   UNL     1      -5.519  -0.311  -1.065  1.00  0.00     0.293 HD
ENDBRANCH   8  13
ENDBRANCH   2   3
BRANCH   2  15
ATOM     15  C   UNL     1       1.384   0.407  -0.011  1.00  0.00     0.068 A 
ATOM     16  C   UNL     1       1.490  -0.411  -1.149  1.00  0.00     0.020 A 
ATOM     17  C   UNL     1       2.538   0.691   0.735  1.00  0.00     0.172 A 
ATOM     18  C   UNL     1       2.723  -0.972  -1.507  1.00  0.00     0.051 A 
ATOM     19  C   UNL     1       3.756   0.124   0.374  1.00  0.00     0.201 A 
ATOM     20  C   UNL     1       3.846  -0.704  -0.737  1.00  0.00     0.161 A 
BRANCH  17  21
ATOM     21  O   UNL     1       2.551   1.521   1.829  1.00  0.00    -0.504 OA
ATOM     22  H   UNL     1       1.676   1.973   1.861  1.00  0.00     0.293 HD
ENDBRANCH  17  21
BRANCH  19  23
ATOM     23  O   UNL     1       4.886   0.383   1.103  1.00  0.00    -0.502 OA
ATOM     24  H   UNL     1       4.578   0.981   1.816  1.00  0.00     0.293 HD
ENDBRANCH  19  23
BRANCH  20  25
ATOM     25  O   UNL     1       5.044  -1.252  -1.087  1.00  0.00    -0.504 OA
ATOM     26  H   UNL     1       5.674  -0.922  -0.414  1.00  0.00     0.293 HD
ENDBRANCH  20  25
ENDBRANCH   2  15
TORSDOF 8
