REMARK SMILES CCOc1ccccc1OCC1CNCCO1
REMARK SMILES IDX 4 1 5 2 6 3 7 4 8 5 9 6 3 7 2 8 1 9 10 10 11 11 12 12 13 13
REMARK SMILES IDX 17 14 14 15 16 16 15 17
REMARK H PARENT 14 18
ROOT
ATOM      1  C   UNL     1      -2.253   0.639  -0.376  1.00  0.00     0.161 A 
ATOM      2  C   UNL     1      -3.360   1.411  -0.743  1.00  0.00     0.050 A 
ATOM      3  C   UNL     1      -3.219   2.780  -0.983  1.00  0.00     0.004 A 
ATOM      4  C   UNL     1      -1.974   3.386  -0.851  1.00  0.00     0.004 A 
ATOM      5  C   UNL     1      -0.863   2.629  -0.475  1.00  0.00     0.050 A 
ATOM      6  C   UNL     1      -0.993   1.256  -0.235  1.00  0.00     0.161 A 
ENDROOT
BRANCH   1   7
ATOM      7  O   UNL     1      -2.295  -0.707  -0.110  1.00  0.00    -0.490 OA
BRANCH   7   8
ATOM      8  C   UNL     1      -3.436  -1.459  -0.512  1.00  0.00     0.226 C 
ATOM      9  C   UNL     1      -4.424  -1.580   0.635  1.00  0.00     0.049 C 
ENDBRANCH   7   8
ENDBRANCH   1   7
BRANCH   6  10
ATOM     10  O   UNL     1       0.038   0.434   0.144  1.00  0.00    -0.487 OA
BRANCH  10  11
ATOM     11  C   UNL     1       1.352   0.983   0.175  1.00  0.00     0.263 C 
BRANCH  11  12
ATOM     12  C   UNL     1       2.355  -0.120   0.537  1.00  0.00     0.169 C 
ATOM     13  C   UNL     1       2.339  -1.265  -0.501  1.00  0.00     0.116 C 
ATOM     14  O   UNL     1       3.656   0.489   0.669  1.00  0.00    -0.372 OA
ATOM     15  N   UNL     1       3.282  -2.358  -0.186  1.00  0.00    -0.312 NA
ATOM     16  C   UNL     1       4.736  -0.402   0.359  1.00  0.00     0.176 C 
ATOM     17  C   UNL     1       4.399  -1.871   0.640  1.00  0.00     0.109 C 
ATOM     18  H   UNL     1       2.791  -3.091   0.328  1.00  0.00     0.122 HD
ENDBRANCH  11  12
ENDBRANCH  10  11
ENDBRANCH   6  10
TORSDOF 5
