REMARK SMILES CC(Cc1ccc2c(c1)OCO2)NCC(O)c1ccc(O)c(O)c1
REMARK SMILES IDX 14 1 13 2 2 4 1 5 3 6 4 7 5 8 9 9 6 10 8 11 7 12 10 13 12 14
REMARK SMILES IDX 11 15 15 16 16 17 17 19 18 20 24 21 19 22 22 23 20 24 23 25
REMARK SMILES IDX 21 27
REMARK H PARENT 13 3 16 18 23 26 21 28
ROOT
ATOM      1  C   UNL     1      -0.686  -0.274  -1.560  1.00  0.00     0.117 C 
ENDROOT
BRANCH   1   2
ATOM      2  N   UNL     1      -0.187  -0.405  -0.184  1.00  0.00    -0.311 NA
ATOM      3  H   UNL     1       0.678  -0.946  -0.180  1.00  0.00     0.123 HD
BRANCH   2   4
ATOM      4  C   UNL     1       0.024   0.850   0.549  1.00  0.00     0.055 C 
ATOM      5  C   UNL     1       0.210   0.487   2.028  1.00  0.00     0.024 C 
BRANCH   4   6
ATOM      6  C   UNL     1       1.181   1.738   0.023  1.00  0.00     0.054 C 
BRANCH   6   7
ATOM      7  C   UNL     1       2.566   1.126   0.046  1.00  0.00    -0.043 A 
ATOM      8  C   UNL     1       3.051   0.402  -1.067  1.00  0.00     0.008 A 
ATOM      9  C   UNL     1       3.386   1.280   1.177  1.00  0.00     0.054 A 
ATOM     10  C   UNL     1       4.327  -0.172  -1.055  1.00  0.00     0.051 A 
ATOM     11  C   UNL     1       4.638   0.703   1.160  1.00  0.00     0.166 A 
ATOM     12  C   UNL     1       5.095  -0.004   0.074  1.00  0.00     0.165 A 
ATOM     13  O   UNL     1       5.550   0.753   2.168  1.00  0.00    -0.454 OA
ATOM     14  O   UNL     1       6.352  -0.489   0.261  1.00  0.00    -0.454 OA
ATOM     15  C   UNL     1       6.632  -0.008   1.592  1.00  0.00     0.468 C 
ENDBRANCH   6   7
ENDBRANCH   4   6
ENDBRANCH   2   4
ENDBRANCH   1   2
BRANCH   1  16
ATOM     16  C   UNL     1      -2.097   0.348  -1.785  1.00  0.00     0.158 C 
BRANCH  16  17
ATOM     17  O   UNL     1      -2.071   1.768  -1.593  1.00  0.00    -0.387 OA
ATOM     18  H   UNL     1      -1.432   2.125  -2.231  1.00  0.00     0.211 HD
ENDBRANCH  16  17
BRANCH  16  19
ATOM     19  C   UNL     1      -3.198  -0.301  -0.971  1.00  0.00    -0.014 A 
ATOM     20  C   UNL     1      -3.769   0.333   0.148  1.00  0.00     0.010 A 
ATOM     21  C   UNL     1      -3.665  -1.577  -1.332  1.00  0.00     0.056 A 
ATOM     22  C   UNL     1      -4.779  -0.285   0.894  1.00  0.00     0.050 A 
ATOM     23  C   UNL     1      -4.669  -2.182  -0.589  1.00  0.00     0.157 A 
ATOM     24  C   UNL     1      -5.224  -1.545   0.517  1.00  0.00     0.157 A 
BRANCH  23  25
ATOM     25  O   UNL     1      -5.113  -3.421  -0.954  1.00  0.00    -0.504 OA
ATOM     26  H   UNL     1      -5.799  -3.635  -0.290  1.00  0.00     0.293 HD
ENDBRANCH  23  25
BRANCH  24  27
ATOM     27  O   UNL     1      -6.208  -2.200   1.204  1.00  0.00    -0.504 OA
ATOM     28  H   UNL     1      -6.476  -1.635   1.949  1.00  0.00     0.293 HD
ENDBRANCH  24  27
ENDBRANCH  16  19
ENDBRANCH   1  16
TORSDOF 9
