REMARK SMILES Oc1ccc(C2CNCCc3c2cc(O)c(O)c3Cl)cc1
REMARK SMILES IDX 6 1 7 2 8 3 9 4 10 5 11 6 12 7 13 8 14 9 16 10 18 11 19 12
REMARK SMILES IDX 5 14 2 15 3 16 21 17 4 18 20 19 1 20 15 22 17 24
REMARK H PARENT 8 13 1 21 15 23 17 25
ROOT
ATOM      1  C   UNL     1       0.798   0.068  -0.155  1.00  0.00     0.063 C 
ATOM      2  C   UNL     1       1.602   0.179   1.190  1.00  0.00     0.094 C 
ATOM      3  N   UNL     1       1.278  -0.803   2.233  1.00  0.00    -0.315 NA
ATOM      4  C   UNL     1       1.991  -2.070   2.029  1.00  0.00     0.086 C 
ATOM      5  C   UNL     1       2.119  -2.529   0.573  1.00  0.00     0.053 C 
ATOM      6  C   UNL     1       0.788  -2.542  -0.149  1.00  0.00    -0.020 A 
ATOM      7  C   UNL     1       0.174  -1.306  -0.512  1.00  0.00    -0.031 A 
ATOM      8  C   UNL     1      -1.010  -1.352  -1.282  1.00  0.00     0.055 A 
ATOM      9  C   UNL     1      -1.606  -2.564  -1.607  1.00  0.00     0.159 A 
ATOM     10  C   UNL     1      -1.043  -3.763  -1.196  1.00  0.00     0.176 A 
ATOM     11  C   UNL     1       0.149  -3.766  -0.471  1.00  0.00     0.090 A 
ATOM     12  Cl  UNL     1       0.807  -5.292   0.028  1.00  0.00    -0.080 Cl
ATOM     13  H   UNL     1       0.275  -0.987   2.216  1.00  0.00     0.122 HD
ENDROOT
BRANCH   1  14
ATOM     14  C   UNL     1      -0.192   1.240  -0.220  1.00  0.00    -0.039 A 
ATOM     15  C   UNL     1      -1.995   3.374  -0.377  1.00  0.00     0.115 A 
ATOM     16  C   UNL     1      -2.125   2.444   0.647  1.00  0.00     0.046 A 
ATOM     17  C   UNL     1      -0.984   3.257  -1.322  1.00  0.00     0.046 A 
ATOM     18  C   UNL     1      -1.225   1.378   0.725  1.00  0.00     0.008 A 
ATOM     19  C   UNL     1      -0.083   2.195  -1.245  1.00  0.00     0.008 A 
BRANCH  15  20
ATOM     20  O   UNL     1      -2.852   4.429  -0.492  1.00  0.00    -0.508 OA
ATOM     21  H   UNL     1      -3.468   4.412   0.259  1.00  0.00     0.293 HD
ENDBRANCH  15  20
ENDBRANCH   1  14
BRANCH   9  22
ATOM     22  O   UNL     1      -2.766  -2.621  -2.333  1.00  0.00    -0.504 OA
ATOM     23  H   UNL     1      -3.040  -1.712  -2.546  1.00  0.00     0.293 HD
ENDBRANCH   9  22
BRANCH  10  24
ATOM     24  O   UNL     1      -1.684  -4.928  -1.530  1.00  0.00    -0.503 OA
ATOM     25  H   UNL     1      -2.472  -4.646  -2.036  1.00  0.00     0.293 HD
ENDBRANCH  10  24
TORSDOF 4
