REMARK SMILES O=S(=O)(O)CI
REMARK SMILES IDX 1 1 2 2 3 3 4 4 5 6 6 7
REMARK H PARENT 4 5
ROOT
ATOM      1  O   UNL     1      -0.562  -0.434   1.864  1.00  0.00    -0.199 OA
ATOM      2  S   UNL     1      -0.507  -0.490   0.420  1.00  0.00     0.274 S 
ATOM      3  O   UNL     1      -0.778  -1.701  -0.319  1.00  0.00    -0.199 OA
ENDROOT
BRANCH   2   4
ATOM      4  O   UNL     1      -1.571   0.621  -0.079  1.00  0.00    -0.285 OA
ATOM      5  H   UNL     1      -2.182   0.806   0.668  1.00  0.00     0.234 HD
ENDBRANCH   2   4
BRANCH   2   6
ATOM      6  C   UNL     1       0.986   0.306  -0.189  1.00  0.00     0.241 C 
ATOM      7  I   UNL     1       2.715  -0.813   0.315  1.00  0.00    -0.066 I 
ENDBRANCH   2   6
TORSDOF 2
