REMARK SMILES CC(=O)OC(C)C[N+](C)(C)C
REMARK SMILES IDX 5 1 6 2 4 3 2 4 3 5 1 6 7 7 8 8 9 9 10 10 11 11
REMARK H PARENT
ROOT
ATOM      1  C   UNL     1       0.716  -1.041   0.448  1.00  0.00     0.228 C 
ATOM      2  C   UNL     1       1.276  -2.463   0.399  1.00  0.00     0.059 C 
ENDROOT
BRANCH   1   3
ATOM      3  O   UNL     1       1.539  -0.256  -0.438  1.00  0.00    -0.457 OA
BRANCH   3   4
ATOM      4  C   UNL     1       2.327   0.688   0.153  1.00  0.00     0.303 C 
ATOM      5  O   UNL     1       2.216   1.054   1.313  1.00  0.00    -0.253 OA
ATOM      6  C   UNL     1       3.294   1.257  -0.838  1.00  0.00     0.139 C 
ENDBRANCH   3   4
ENDBRANCH   1   3
BRANCH   1   7
ATOM      7  C   UNL     1      -0.752  -1.046  -0.027  1.00  0.00     0.308 C 
BRANCH   7   8
ATOM      8  N   UNL     1      -1.533   0.283   0.162  1.00  0.00    -0.328 N 
ATOM      9  C   UNL     1      -3.000   0.007  -0.188  1.00  0.00     0.334 C 
ATOM     10  C   UNL     1      -1.029   1.375  -0.771  1.00  0.00     0.334 C 
ATOM     11  C   UNL     1      -1.471   0.778   1.604  1.00  0.00     0.334 C 
ENDBRANCH   7   8
ENDBRANCH   1   7
TORSDOF 4
