REMARK SMILES NC(=O)NC(=O)Cc1ccccc1
REMARK SMILES IDX 1 1 2 2 3 3 4 4 5 5 6 6 7 10 8 11 9 12 13 13 10 14 12 15
REMARK SMILES IDX 11 16
REMARK H PARENT 1 7 1 8 4 9
ROOT
ATOM      1  N   UNL     1       1.869   2.779   0.406  1.00  0.00    -0.351 N 
ATOM      2  C   UNL     1       1.619   1.811   1.336  1.00  0.00     0.318 C 
ATOM      3  O   UNL     1       1.360   2.117   2.489  1.00  0.00    -0.249 OA
ATOM      4  N   UNL     1       1.661   0.560   0.790  1.00  0.00    -0.278 N 
ATOM      5  C   UNL     1       1.409  -0.554   1.562  1.00  0.00     0.232 C 
ATOM      6  O   UNL     1       1.942  -0.764   2.651  1.00  0.00    -0.274 OA
ATOM      7  H   UNL     1       2.629   2.582  -0.231  1.00  0.00     0.161 HD
ATOM      8  H   UNL     1       1.937   3.698   0.832  1.00  0.00     0.161 HD
ATOM      9  H   UNL     1       1.282   0.558  -0.146  1.00  0.00     0.174 HD
ENDROOT
BRANCH   5  10
ATOM     10  C   UNL     1       0.588  -1.646   0.888  1.00  0.00     0.136 C 
BRANCH  10  11
ATOM     11  C   UNL     1      -0.469  -1.152  -0.072  1.00  0.00    -0.039 A 
ATOM     12  C   UNL     1      -1.550  -0.392   0.397  1.00  0.00     0.004 A 
ATOM     13  C   UNL     1      -0.378  -1.436  -1.442  1.00  0.00     0.004 A 
ATOM     14  C   UNL     1      -2.514   0.086  -0.491  1.00  0.00     0.000 A 
ATOM     15  C   UNL     1      -1.345  -0.957  -2.327  1.00  0.00     0.000 A 
ATOM     16  C   UNL     1      -2.412  -0.196  -1.851  1.00  0.00     0.000 A 
ENDBRANCH  10  11
ENDBRANCH   5  10
TORSDOF 2
