REMARK SMILES Nc1ccc(C(=O)O)c(O)c1
REMARK SMILES IDX 2 1 3 2 4 3 5 4 9 5 11 6 1 7 10 10 6 12 7 13 8 14
REMARK H PARENT 1 8 1 9 10 11 8 15
ROOT
ATOM      1  C   UNL     1       1.764   0.471  -0.146  1.00  0.00     0.035 A 
ATOM      2  C   UNL     1       1.318  -0.429  -1.117  1.00  0.00     0.026 A 
ATOM      3  C   UNL     1      -0.014  -0.854  -1.140  1.00  0.00     0.022 A 
ATOM      4  C   UNL     1      -0.916  -0.415  -0.161  1.00  0.00     0.101 A 
ATOM      5  C   UNL     1      -0.454   0.441   0.845  1.00  0.00     0.132 A 
ATOM      6  C   UNL     1       0.879   0.861   0.862  1.00  0.00     0.072 A 
ENDROOT
BRANCH   1   7
ATOM      7  N   UNL     1       3.122   0.795  -0.058  1.00  0.00    -0.399 N 
ATOM      8  H   UNL     1       3.309   1.650   0.456  1.00  0.00     0.156 HD
ATOM      9  H   UNL     1       3.617   0.761  -0.944  1.00  0.00     0.156 HD
ENDBRANCH   1   7
BRANCH   5  10
ATOM     10  O   UNL     1      -1.241   0.911   1.863  1.00  0.00    -0.507 OA
ATOM     11  H   UNL     1      -2.138   0.536   1.738  1.00  0.00     0.293 HD
ENDBRANCH   5  10
BRANCH   4  12
ATOM     12  C   UNL     1      -2.311  -0.910  -0.253  1.00  0.00     0.339 C 
ATOM     13  O   UNL     1      -2.756  -1.649  -1.111  1.00  0.00    -0.246 OA
BRANCH  12  14
ATOM     14  O   UNL     1      -3.099  -0.453   0.742  1.00  0.00    -0.478 OA
ATOM     15  H   UNL     1      -3.968  -0.867   0.537  1.00  0.00     0.297 HD
ENDBRANCH  12  14
ENDBRANCH   4  12
TORSDOF 4
