REMARK SMILES CNCCCN1c2ccccc2CCc2ccccc21
REMARK SMILES IDX 3 1 2 2 1 3 4 5 5 6 6 7 7 8 20 9 8 10 12 11 19 12 15 13 9 14
REMARK SMILES IDX 11 15 13 16 18 17 14 18 16 19 10 20 17 21
REMARK H PARENT 2 4
ROOT
ATOM      1  C   UNL     1      -1.069  -2.002  -2.404  1.00  0.00     0.082 C 
ENDROOT
BRANCH   1   2
ATOM      2  N   UNL     1      -0.726  -0.606  -2.670  1.00  0.00    -0.320 NA
ATOM      3  C   UNL     1      -1.845   0.114  -3.255  1.00  0.00     0.101 C 
ATOM      4  H   UNL     1      -0.449  -0.164  -1.791  1.00  0.00     0.122 HD
ENDBRANCH   1   2
BRANCH   1   5
ATOM      5  C   UNL     1       0.053  -2.707  -1.634  1.00  0.00     0.037 C 
BRANCH   5   6
ATOM      6  C   UNL     1      -0.092  -2.642  -0.105  1.00  0.00     0.124 C 
BRANCH   6   7
ATOM      7  N   UNL     1      -0.057  -1.276   0.473  1.00  0.00    -0.341 N 
ATOM      8  C   UNL     1       1.118  -0.487   0.343  1.00  0.00     0.044 A 
ATOM      9  C   UNL     1      -0.930  -1.127   1.591  1.00  0.00     0.044 A 
ATOM     10  C   UNL     1       2.366  -1.087   0.057  1.00  0.00     0.026 A 
ATOM     11  C   UNL     1       1.108   0.920   0.511  1.00  0.00    -0.024 A 
ATOM     12  C   UNL     1      -1.077  -2.130   2.567  1.00  0.00     0.026 A 
ATOM     13  C   UNL     1      -1.665   0.060   1.748  1.00  0.00    -0.024 A 
ATOM     14  C   UNL     1       3.548  -0.351  -0.069  1.00  0.00     0.002 A 
ATOM     15  C   UNL     1       2.318   1.648   0.389  1.00  0.00     0.006 A 
ATOM     16  C   UNL     1      -0.104   1.775   0.835  1.00  0.00     0.042 C 
ATOM     17  C   UNL     1      -1.947  -1.969   3.648  1.00  0.00     0.002 A 
ATOM     18  C   UNL     1      -1.496   1.162   0.743  1.00  0.00     0.042 C 
ATOM     19  C   UNL     1      -2.541   0.217   2.835  1.00  0.00     0.006 A 
ATOM     20  C   UNL     1       3.524   1.022   0.096  1.00  0.00     0.000 A 
ATOM     21  C   UNL     1      -2.683  -0.797   3.779  1.00  0.00     0.000 A 
ENDBRANCH   6   7
ENDBRANCH   5   6
ENDBRANCH   1   5
TORSDOF 4
