REMARK SMILES C[C@@H](CN1CC(=O)NC(=O)C1)N1CC(=O)NC(=O)C1
REMARK SMILES IDX 1 1 2 2 3 3 4 4 5 5 11 6 6 7 9 8 7 9 8 10 10 11 12 13 13 14
REMARK SMILES IDX 19 15 14 16 17 17 15 18 16 19 18 20
REMARK H PARENT 8 12 16 21
ROOT
ATOM      1  C   UNL     1      -0.698   0.233   1.398  1.00  0.00     0.026 C 
ATOM      2  C   UNL     1      -0.614   0.335  -0.130  1.00  0.00     0.068 C 
ENDROOT
BRANCH   2   3
ATOM      3  C   UNL     1       0.540  -0.570  -0.685  1.00  0.00     0.104 C 
BRANCH   3   4
ATOM      4  N   UNL     1       1.885  -0.294  -0.136  1.00  0.00    -0.284 NA
ATOM      5  C   UNL     1       2.817  -1.373  -0.537  1.00  0.00     0.185 C 
ATOM      6  C   UNL     1       2.412   1.006  -0.604  1.00  0.00     0.185 C 
ATOM      7  C   UNL     1       4.218  -1.129   0.017  1.00  0.00     0.240 C 
ATOM      8  C   UNL     1       3.819   1.262  -0.064  1.00  0.00     0.240 C 
ATOM      9  O   UNL     1       5.057  -2.024   0.103  1.00  0.00    -0.273 OA
ATOM     10  N   UNL     1       4.539   0.165   0.331  1.00  0.00    -0.294 N 
ATOM     11  O   UNL     1       4.324   2.383  -0.052  1.00  0.00    -0.273 OA
ATOM     12  H   UNL     1       5.489   0.333   0.628  1.00  0.00     0.172 HD
ENDBRANCH   3   4
ENDBRANCH   2   3
BRANCH   2  13
ATOM     13  N   UNL     1      -1.864   0.053  -0.873  1.00  0.00    -0.281 NA
ATOM     14  C   UNL     1      -2.803   1.187  -0.951  1.00  0.00     0.186 C 
ATOM     15  C   UNL     1      -2.570  -1.199  -0.549  1.00  0.00     0.186 C 
ATOM     16  C   UNL     1      -3.692   1.318   0.279  1.00  0.00     0.240 C 
ATOM     17  C   UNL     1      -3.495  -1.085   0.660  1.00  0.00     0.240 C 
ATOM     18  O   UNL     1      -4.142   2.397   0.659  1.00  0.00    -0.273 OA
ATOM     19  N   UNL     1      -4.019   0.154   0.924  1.00  0.00    -0.294 N 
ATOM     20  O   UNL     1      -3.798  -2.055   1.351  1.00  0.00    -0.273 OA
ATOM     21  H   UNL     1      -4.612   0.233   1.737  1.00  0.00     0.172 HD
ENDBRANCH   2  13
TORSDOF 3
