REMARK SMILES COC(=O)C1=C(c2ccc(-c3ccccc3)c(F)c2)C[C@@H]2CC[C@H]1N2C(=O)NC(C)C
REMARK SMILES IDX 5 1 6 2 20 3 21 4 22 5 23 6 24 7 25 8 3 9 4 10 2 11 1 12
REMARK SMILES IDX 7 13 8 14 19 15 9 16 17 17 10 18 18 19 11 20 12 21 16 22
REMARK SMILES IDX 13 23 15 24 14 25 26 26 27 27 28 28 29 30 30 31 31 32
REMARK H PARENT 28 29
ROOT
ATOM      1  C   UNL     1       0.766  -0.916  -1.638  1.00  0.00     0.064 C 
ATOM      2  C   UNL     1       0.257   0.219  -1.101  1.00  0.00    -0.026 C 
ATOM      3  C   UNL     1       1.085   1.499  -1.090  1.00  0.00     0.062 C 
ATOM      4  C   UNL     1       2.417   1.327  -1.866  1.00  0.00     0.092 C 
ATOM      5  C   UNL     1       2.172   1.188  -3.382  1.00  0.00     0.028 C 
ATOM      6  C   UNL     1       2.110  -0.331  -3.643  1.00  0.00     0.032 C 
ATOM      7  C   UNL     1       2.155  -0.958  -2.246  1.00  0.00     0.125 C 
ATOM      8  N   UNL     1       2.957   0.018  -1.522  1.00  0.00    -0.314 N 
ENDROOT
BRANCH   1   9
ATOM      9  C   UNL     1      -0.012  -2.164  -1.716  1.00  0.00     0.336 C 
ATOM     10  O   UNL     1      -0.992  -2.314  -2.429  1.00  0.00    -0.247 OA
BRANCH   9  11
ATOM     11  O   UNL     1       0.540  -3.078  -0.884  1.00  0.00    -0.466 OA
ATOM     12  C   UNL     1      -0.158  -4.322  -0.847  1.00  0.00     0.282 C 
ENDBRANCH   9  11
ENDBRANCH   1   9
BRANCH   2  13
ATOM     13  C   UNL     1      -1.080   0.301  -0.504  1.00  0.00    -0.019 A 
ATOM     14  C   UNL     1      -2.151   0.813  -1.240  1.00  0.00     0.009 A 
ATOM     15  C   UNL     1      -1.299  -0.152   0.798  1.00  0.00     0.048 A 
ATOM     16  C   UNL     1      -3.431   0.874  -0.676  1.00  0.00     0.012 A 
ATOM     17  C   UNL     1      -2.577  -0.084   1.352  1.00  0.00     0.131 A 
ATOM     18  C   UNL     1      -3.671   0.424   0.634  1.00  0.00     0.017 A 
ATOM     19  F   UNL     1      -2.741  -0.534   2.607  1.00  0.00    -0.206 F 
BRANCH  18  20
ATOM     20  C   UNL     1      -5.024   0.485   1.214  1.00  0.00    -0.015 A 
ATOM     21  C   UNL     1      -6.128  -0.056   0.532  1.00  0.00     0.009 A 
ATOM     22  C   UNL     1      -5.256   1.089   2.461  1.00  0.00     0.009 A 
ATOM     23  C   UNL     1      -7.415   0.007   1.073  1.00  0.00     0.001 A 
ATOM     24  C   UNL     1      -6.543   1.155   3.003  1.00  0.00     0.001 A 
ATOM     25  C   UNL     1      -7.622   0.615   2.308  1.00  0.00     0.000 A 
ENDBRANCH  18  20
ENDBRANCH   2  13
BRANCH   8  26
ATOM     26  C   UNL     1       3.771  -0.354  -0.486  1.00  0.00     0.318 C 
ATOM     27  O   UNL     1       4.055  -1.527  -0.261  1.00  0.00    -0.249 OA
ATOM     28  N   UNL     1       4.271   0.683   0.257  1.00  0.00    -0.336 N 
ATOM     29  H   UNL     1       3.703   1.512   0.288  1.00  0.00     0.165 HD
BRANCH  28  30
ATOM     30  C   UNL     1       5.102   0.436   1.428  1.00  0.00     0.077 C 
ATOM     31  C   UNL     1       5.913   1.684   1.759  1.00  0.00     0.030 C 
ATOM     32  C   UNL     1       4.248   0.015   2.623  1.00  0.00     0.030 C 
ENDBRANCH  28  30
ENDBRANCH   8  26
TORSDOF 6
