REMARK SMILES CCC1(c2ccccc2)CCC(=O)NC1=O
REMARK SMILES IDX 3 1 10 2 11 3 12 4 13 5 14 6 15 7 16 8 2 10 1 11 4 12 5 13
REMARK SMILES IDX 9 14 6 15 8 16 7 17
REMARK H PARENT 14 9
ROOT
ATOM      1  C   UNL     1      -0.798   0.138  -0.178  1.00  0.00     0.075 C 
ATOM      2  C   UNL     1      -1.348  -0.129   1.247  1.00  0.00     0.031 C 
ATOM      3  C   UNL     1      -1.052  -1.544   1.729  1.00  0.00     0.102 C 
ATOM      4  C   UNL     1      -1.540  -2.571   0.744  1.00  0.00     0.226 C 
ATOM      5  O   UNL     1      -1.981  -3.662   1.094  1.00  0.00    -0.275 OA
ATOM      6  N   UNL     1      -1.459  -2.234  -0.580  1.00  0.00    -0.296 N 
ATOM      7  C   UNL     1      -1.442  -0.953  -1.073  1.00  0.00     0.237 C 
ATOM      8  O   UNL     1      -1.915  -0.731  -2.188  1.00  0.00    -0.274 OA
ATOM      9  H   UNL     1      -1.884  -2.911  -1.198  1.00  0.00     0.172 HD
ENDROOT
BRANCH   1  10
ATOM     10  C   UNL     1      -1.301   1.525  -0.689  1.00  0.00     0.018 C 
ATOM     11  C   UNL     1      -0.890   2.733   0.147  1.00  0.00     0.005 C 
ENDBRANCH   1  10
BRANCH   1  12
ATOM     12  C   UNL     1       0.740   0.089  -0.309  1.00  0.00    -0.032 A 
ATOM     13  C   UNL     1       1.599   0.312   0.781  1.00  0.00     0.005 A 
ATOM     14  C   UNL     1       1.335  -0.130  -1.568  1.00  0.00     0.005 A 
ATOM     15  C   UNL     1       2.988   0.277   0.628  1.00  0.00     0.000 A 
ATOM     16  C   UNL     1       2.723  -0.165  -1.720  1.00  0.00     0.000 A 
ATOM     17  C   UNL     1       3.550   0.033  -0.620  1.00  0.00     0.000 A 
ENDBRANCH   1  12
TORSDOF 2
