REMARK SMILES CCOc1c(Cl)cnn(-c2ccc(C)cc2)c1=O
REMARK SMILES IDX 4 1 5 2 6 3 7 4 8 5 9 6 17 7 18 8 3 9 2 10 1 11 10 12 11 13
REMARK SMILES IDX 16 14 12 15 15 16 13 17 14 18
REMARK H PARENT
ROOT
ATOM      1  C   UNL     1       2.368  -0.734   0.961  1.00  0.00     0.207 C 
ATOM      2  C   UNL     1       2.542  -2.007   0.604  1.00  0.00     0.108 C 
ATOM      3  Cl  UNL     1       4.014  -2.872   0.767  1.00  0.00    -0.078 Cl
ATOM      4  C   UNL     1       1.410  -2.705   0.005  1.00  0.00     0.158 C 
ATOM      5  N   UNL     1       0.244  -2.202  -0.211  1.00  0.00    -0.171 NA
ATOM      6  N   UNL     1       0.021  -0.888   0.168  1.00  0.00    -0.194 N 
ATOM      7  C   UNL     1       1.008  -0.100   0.791  1.00  0.00     0.315 C 
ATOM      8  O   UNL     1       0.859   1.049   1.206  1.00  0.00    -0.263 OA
ENDROOT
BRANCH   1   9
ATOM      9  O   UNL     1       3.419  -0.032   1.547  1.00  0.00    -0.487 OA
BRANCH   9  10
ATOM     10  C   UNL     1       3.667   1.247   0.955  1.00  0.00     0.226 C 
ATOM     11  C   UNL     1       5.145   1.555   1.116  1.00  0.00     0.049 C 
ENDBRANCH   9  10
ENDBRANCH   1   9
BRANCH   6  12
ATOM     12  C   UNL     1      -1.322  -0.437  -0.120  1.00  0.00     0.069 A 
ATOM     13  C   UNL     1      -1.771   0.867   0.135  1.00  0.00     0.029 A 
ATOM     14  C   UNL     1      -2.255  -1.321  -0.699  1.00  0.00     0.029 A 
ATOM     15  C   UNL     1      -3.083   1.266  -0.162  1.00  0.00     0.005 A 
ATOM     16  C   UNL     1      -3.567  -0.928  -0.997  1.00  0.00     0.005 A 
ATOM     17  C   UNL     1      -3.996   0.369  -0.718  1.00  0.00    -0.051 A 
ATOM     18  C   UNL     1      -5.387   0.807  -1.064  1.00  0.00     0.044 C 
ENDBRANCH   6  12
TORSDOF 3
