REMARK SMILES Cc1ccccc1OCC(O)CO
REMARK SMILES IDX 9 1 8 2 7 3 2 4 3 5 4 6 6 7 5 8 1 9 10 10 11 11 12 13 13 14
REMARK H PARENT 11 12 13 15
ROOT
ATOM      1  C   UNL     1       1.317   0.894  -0.800  1.00  0.00     0.263 C 
ENDROOT
BRANCH   1   2
ATOM      2  O   UNL     1       0.342  -0.063  -0.387  1.00  0.00    -0.491 OA
BRANCH   2   3
ATOM      3  C   UNL     1      -0.931   0.384  -0.155  1.00  0.00     0.122 A 
ATOM      4  C   UNL     1      -1.810  -0.555   0.416  1.00  0.00    -0.009 A 
ATOM      5  C   UNL     1      -3.135  -0.184   0.690  1.00  0.00     0.007 A 
ATOM      6  C   UNL     1      -3.586   1.101   0.395  1.00  0.00     0.001 A 
ATOM      7  C   UNL     1      -1.395   1.669  -0.453  1.00  0.00     0.047 A 
ATOM      8  C   UNL     1      -2.717   2.026  -0.178  1.00  0.00     0.004 A 
ATOM      9  C   UNL     1      -1.339  -1.945   0.743  1.00  0.00     0.048 C 
ENDBRANCH   2   3
ENDBRANCH   1   2
BRANCH   1  10
ATOM     10  C   UNL     1       2.706   0.240  -0.894  1.00  0.00     0.177 C 
BRANCH  10  11
ATOM     11  O   UNL     1       2.694  -0.768  -1.912  1.00  0.00    -0.387 OA
ATOM     12  H   UNL     1       2.175  -1.498  -1.513  1.00  0.00     0.211 HD
ENDBRANCH  10  11
BRANCH  10  13
ATOM     13  C   UNL     1       3.186  -0.395   0.417  1.00  0.00     0.191 C 
BRANCH  13  14
ATOM     14  O   UNL     1       2.481  -1.609   0.679  1.00  0.00    -0.394 OA
ATOM     15  H   UNL     1       2.801  -1.945   1.534  1.00  0.00     0.210 HD
ENDBRANCH  13  14
ENDBRANCH  10  13
ENDBRANCH   1  10
TORSDOF 6
