REMARK SMILES C[C@H](CS)C(=O)N1CCC[C@H]1C(=O)O
REMARK SMILES IDX 5 1 6 2 2 3 1 4 3 5 4 6 7 8 8 9 11 10 9 11 10 12 12 13 13 14
REMARK SMILES IDX 14 15
REMARK H PARENT 4 7 14 16
ROOT
ATOM      1  C   UNL     1      -0.736   0.690  -0.520  1.00  0.00     0.226 C 
ATOM      2  O   UNL     1      -1.168   1.438  -1.400  1.00  0.00    -0.275 OA
ENDROOT
BRANCH   1   3
ATOM      3  C   UNL     1      -1.566   0.388   0.730  1.00  0.00     0.085 C 
ATOM      4  C   UNL     1      -2.367  -0.899   0.524  1.00  0.00     0.019 C 
BRANCH   3   5
ATOM      5  C   UNL     1      -2.430   1.598   1.126  1.00  0.00     0.079 C 
BRANCH   5   6
ATOM      6  S   UNL     1      -3.919   1.901   0.118  1.00  0.00    -0.179 SA
ATOM      7  H   UNL     1      -3.255   2.064  -1.042  1.00  0.00     0.102 HD
ENDBRANCH   5   6
ENDBRANCH   3   5
ENDBRANCH   1   3
BRANCH   1   8
ATOM      8  N   UNL     1       0.475   0.046  -0.672  1.00  0.00    -0.329 N 
ATOM      9  C   UNL     1       1.198   0.130  -1.927  1.00  0.00     0.120 C 
ATOM     10  C   UNL     1       1.191  -0.802   0.293  1.00  0.00     0.195 C 
ATOM     11  C   UNL     1       1.971  -1.174  -1.972  1.00  0.00     0.024 C 
ATOM     12  C   UNL     1       2.358  -1.394  -0.516  1.00  0.00     0.039 C 
BRANCH  10  13
ATOM     13  C   UNL     1       1.748  -0.006   1.479  1.00  0.00     0.326 C 
ATOM     14  O   UNL     1       1.524   1.160   1.761  1.00  0.00    -0.250 OA
BRANCH  13  15
ATOM     15  O   UNL     1       2.516  -0.761   2.295  1.00  0.00    -0.480 OA
ATOM     16  H   UNL     1       2.784  -0.142   3.008  1.00  0.00     0.296 HD
ENDBRANCH  13  15
ENDBRANCH  10  13
ENDBRANCH   1   8
TORSDOF 6
