MODEL 1
REMARK VINA RESULT:      -6.8      0.000      0.000
REMARK SMILES NCCN(CCNC(=O)Cc1c[nH]cn1)CCNC(=O)c1cccc2c(NCCCCNc3nc(N)nc(N)n3)c3ccccc3nc12
REMARK SMILES IDX 21 1 22 2 23 3 24 4 25 5 26 6 41 7 42 8 43 9 44 10 45 11
REMARK SMILES IDX 46 12 47 13 48 14 19 15 18 16 20 17 17 19 16 20 4 21 3 22
REMARK SMILES IDX 2 23 1 24 5 27 6 28 7 29 8 30 9 31 10 33 11 34 12 35 15 36
REMARK SMILES IDX 13 37 14 38 27 40 28 42 29 43 30 44 31 45 32 46 33 48 34 49
REMARK SMILES IDX 40 50 35 51 38 52 37 53 36 54 39 57
REMARK H PARENT 18 18 1 25 1 26 7 32 13 39 27 41 32 47 36 55 36 56 39 58 39 59
ROOT
ATOM      1  C   UNL     1      26.293  22.753  -7.200  1.00  0.00     0.066 A 
ATOM      2  C   UNL     1      26.954  21.519  -7.063  1.00  0.00     0.016 A 
ATOM      3  C   UNL     1      26.245  20.392  -6.692  1.00  0.00     0.002 A 
ATOM      4  C   UNL     1      24.873  20.503  -6.480  1.00  0.00     0.012 A 
ATOM      5  C   UNL     1      24.181  21.740  -6.631  1.00  0.00     0.025 A 
ATOM      6  C   UNL     1      22.772  21.883  -6.463  1.00  0.00     0.053 A 
ATOM      7  C   UNL     1      22.141  23.132  -6.743  1.00  0.00     0.024 A 
ATOM      8  C   UNL     1      20.739  23.350  -6.707  1.00  0.00     0.012 A 
ATOM      9  C   UNL     1      20.181  24.586  -7.040  1.00  0.00     0.001 A 
ATOM     10  C   UNL     1      21.016  25.628  -7.405  1.00  0.00     0.002 A 
ATOM     11  C   UNL     1      22.397  25.422  -7.430  1.00  0.00     0.029 A 
ATOM     12  C   UNL     1      22.969  24.194  -7.114  1.00  0.00     0.073 A 
ATOM     13  N   UNL     1      24.300  24.081  -7.194  1.00  0.00    -0.247 NA
ATOM     14  C   UNL     1      24.910  22.889  -7.003  1.00  0.00     0.086 A 
ENDROOT
BRANCH   1  15
ATOM     15  C   UNL     1      27.133  23.905  -7.624  1.00  0.00     0.253 C 
ATOM     16  N   UNL     1      26.988  24.312  -8.931  1.00  0.00    -0.351 N 
ATOM     17  O   UNL     1      27.887  24.448  -6.820  1.00  0.00    -0.269 OA
ATOM     18  H   UNL     1      26.417  23.739  -9.549  1.00  0.00     0.163 HD
BRANCH  16  19
ATOM     19  C   UNL     1      27.695  25.449  -9.470  1.00  0.00     0.131 C 
BRANCH  19  20
ATOM     20  C   UNL     1      27.922  25.360 -10.992  1.00  0.00     0.106 C 
BRANCH  20  21
ATOM     21  N   UNL     1      29.024  26.150 -11.582  1.00  0.00    -0.299 NA
BRANCH  21  22
ATOM     22  C   UNL     1      28.743  27.597 -11.629  1.00  0.00     0.099 C 
BRANCH  22  23
ATOM     23  C   UNL     1      29.429  28.387 -10.489  1.00  0.00     0.093 C 
BRANCH  23  24
ATOM     24  N   UNL     1      29.896  29.712 -10.900  1.00  0.00    -0.329 NA
ATOM     25  H   UNL     1      29.380  30.419 -10.359  1.00  0.00     0.118 HD
ATOM     26  H   UNL     1      30.839  29.834 -10.539  1.00  0.00     0.118 HD
ENDBRANCH  23  24
ENDBRANCH  22  23
ENDBRANCH  21  22
BRANCH  21  27
ATOM     27  C   UNL     1      30.342  25.837 -10.994  1.00  0.00     0.106 C 
BRANCH  27  28
ATOM     28  C   UNL     1      31.489  25.968 -12.011  1.00  0.00     0.131 C 
BRANCH  28  29
ATOM     29  N   UNL     1      32.604  25.093 -11.679  1.00  0.00    -0.354 N 
ATOM     30  C   UNL     1      33.316  24.431 -12.663  1.00  0.00     0.226 C 
ATOM     31  O   UNL     1      33.245  24.710 -13.863  1.00  0.00    -0.275 OA
ATOM     32  H   UNL     1      32.565  24.650 -10.772  1.00  0.00     0.163 HD
BRANCH  30  33
ATOM     33  C   UNL     1      34.205  23.321 -12.149  1.00  0.00     0.157 C 
BRANCH  33  34
ATOM     34  C   UNL     1      33.494  22.017 -12.197  1.00  0.00     0.067 A 
ATOM     35  C   UNL     1      34.028  20.741 -12.191  1.00  0.00     0.108 A 
ATOM     36  N   UNL     1      32.113  21.949 -12.248  1.00  0.00    -0.241 NA
ATOM     37  N   UNL     1      32.950  19.897 -12.203  1.00  0.00    -0.351 N 
ATOM     38  C   UNL     1      31.820  20.664 -12.240  1.00  0.00     0.196 A 
ATOM     39  H   UNL     1      32.982  18.882 -12.182  1.00  0.00     0.167 HD
ENDBRANCH  33  34
ENDBRANCH  30  33
ENDBRANCH  28  29
ENDBRANCH  27  28
ENDBRANCH  21  27
ENDBRANCH  20  21
ENDBRANCH  19  20
ENDBRANCH  16  19
ENDBRANCH   1  15
BRANCH   6  40
ATOM     40  N   UNL     1      21.956  20.783  -6.056  1.00  0.00    -0.384 N 
ATOM     41  H   UNL     1      21.716  20.238  -6.885  1.00  0.00     0.160 HD
BRANCH  40  42
ATOM     42  C   UNL     1      22.557  19.898  -5.048  1.00  0.00     0.113 C 
BRANCH  42  43
ATOM     43  C   UNL     1      22.672  18.453  -5.535  1.00  0.00     0.023 C 
BRANCH  43  44
ATOM     44  C   UNL     1      21.476  18.019  -6.395  1.00  0.00     0.023 C 
BRANCH  44  45
ATOM     45  C   UNL     1      21.930  17.509  -7.769  1.00  0.00     0.116 C 
BRANCH  45  46
ATOM     46  N   UNL     1      22.615  18.539  -8.523  1.00  0.00    -0.354 N 
ATOM     47  H   UNL     1      23.273  19.108  -8.006  1.00  0.00     0.163 HD
BRANCH  46  48
ATOM     48  C   UNL     1      23.219  18.178  -9.723  1.00  0.00     0.229 A 
ATOM     49  N   UNL     1      22.576  17.430 -10.606  1.00  0.00    -0.177 NA
ATOM     50  N   UNL     1      24.440  18.660  -9.903  1.00  0.00    -0.177 NA
ATOM     51  C   UNL     1      23.215  17.211 -11.740  1.00  0.00     0.226 A 
ATOM     52  C   UNL     1      24.997  18.357 -11.061  1.00  0.00     0.226 A 
ATOM     53  N   UNL     1      24.437  17.634 -12.017  1.00  0.00    -0.177 NA
BRANCH  51  54
ATOM     54  N   UNL     1      22.581  16.430 -12.683  1.00  0.00    -0.368 N 
ATOM     55  H   UNL     1      23.004  16.589 -13.586  1.00  0.00     0.159 HD
ATOM     56  H   UNL     1      21.582  16.533 -12.605  1.00  0.00     0.159 HD
ENDBRANCH  51  54
BRANCH  52  57
ATOM     57  N   UNL     1      26.264  18.860 -11.288  1.00  0.00    -0.368 N 
ATOM     58  H   UNL     1      26.465  19.632 -10.665  1.00  0.00     0.159 HD
ATOM     59  H   UNL     1      26.938  18.107 -11.266  1.00  0.00     0.159 HD
ENDBRANCH  52  57
ENDBRANCH  46  48
ENDBRANCH  45  46
ENDBRANCH  44  45
ENDBRANCH  43  44
ENDBRANCH  42  43
ENDBRANCH  40  42
ENDBRANCH   6  40
TORSDOF 21
ENDMDL
MODEL 2
REMARK VINA RESULT:      -6.5     17.498     19.599
REMARK SMILES NCCN(CCNC(=O)Cc1c[nH]cn1)CCNC(=O)c1cccc2c(NCCCCNc3nc(N)nc(N)n3)c3ccccc3nc12
REMARK SMILES IDX 21 1 22 2 23 3 24 4 25 5 26 6 41 7 42 8 43 9 44 10 45 11
REMARK SMILES IDX 46 12 47 13 48 14 19 15 18 16 20 17 17 19 16 20 4 21 3 22
REMARK SMILES IDX 2 23 1 24 5 27 6 28 7 29 8 30 9 31 10 33 11 34 12 35 15 36
REMARK SMILES IDX 13 37 14 38 27 40 28 42 29 43 30 44 31 45 32 46 33 48 34 49
REMARK SMILES IDX 40 50 35 51 38 52 37 53 36 54 39 57
REMARK H PARENT 18 18 1 25 1 26 7 32 13 39 27 41 32 47 36 55 36 56 39 58 39 59
ROOT
ATOM      1  C   UNL     1      22.246  12.504 -24.034  1.00  0.00     0.066 A 
ATOM      2  C   UNL     1      21.998  13.840 -23.666  1.00  0.00     0.016 A 
ATOM      3  C   UNL     1      20.759  14.202 -23.172  1.00  0.00     0.002 A 
ATOM      4  C   UNL     1      19.781  13.221 -23.030  1.00  0.00     0.012 A 
ATOM      5  C   UNL     1      20.017  11.860 -23.379  1.00  0.00     0.025 A 
ATOM      6  C   UNL     1      19.054  10.822 -23.208  1.00  0.00     0.053 A 
ATOM      7  C   UNL     1      19.408   9.466 -23.477  1.00  0.00     0.024 A 
ATOM      8  C   UNL     1      18.560   8.352 -23.242  1.00  0.00     0.012 A 
ATOM      9  C   UNL     1      18.986   7.044 -23.481  1.00  0.00     0.001 A 
ATOM     10  C   UNL     1      20.263   6.827 -23.969  1.00  0.00     0.002 A 
ATOM     11  C   UNL     1      21.097   7.921 -24.214  1.00  0.00     0.029 A 
ATOM     12  C   UNL     1      20.694   9.229 -23.968  1.00  0.00     0.073 A 
ATOM     13  N   UNL     1      21.571  10.213 -24.205  1.00  0.00    -0.247 NA
ATOM     14  C   UNL     1      21.280  11.495 -23.890  1.00  0.00     0.086 A 
ENDROOT
BRANCH   1  15
ATOM     15  C   UNL     1      23.614  12.203 -24.534  1.00  0.00     0.253 C 
ATOM     16  N   UNL     1      24.542  11.847 -23.582  1.00  0.00    -0.351 N 
ATOM     17  O   UNL     1      23.858  12.260 -25.737  1.00  0.00    -0.269 OA
ATOM     18  H   UNL     1      24.276  11.926 -22.603  1.00  0.00     0.163 HD
BRANCH  16  19
ATOM     19  C   UNL     1      25.895  11.475 -23.922  1.00  0.00     0.131 C 
BRANCH  19  20
ATOM     20  C   UNL     1      26.229  10.010 -23.578  1.00  0.00     0.106 C 
BRANCH  20  21
ATOM     21  N   UNL     1      27.020   9.226 -24.551  1.00  0.00    -0.299 NA
BRANCH  21  22
ATOM     22  C   UNL     1      26.208   8.271 -25.327  1.00  0.00     0.099 C 
BRANCH  22  23
ATOM     23  C   UNL     1      25.410   8.940 -26.472  1.00  0.00     0.093 C 
BRANCH  23  24
ATOM     24  N   UNL     1      23.991   9.124 -26.161  1.00  0.00    -0.329 NA
ATOM     25  H   UNL     1      23.896   9.241 -25.143  1.00  0.00     0.118 HD
ATOM     26  H   UNL     1      23.718  10.045 -26.494  1.00  0.00     0.118 HD
ENDBRANCH  23  24
ENDBRANCH  22  23
ENDBRANCH  21  22
BRANCH  21  27
ATOM     27  C   UNL     1      27.891  10.064 -25.399  1.00  0.00     0.106 C 
BRANCH  27  28
ATOM     28  C   UNL     1      29.313  10.203 -24.831  1.00  0.00     0.131 C 
BRANCH  28  29
ATOM     29  N   UNL     1      29.554   9.258 -23.749  1.00  0.00    -0.354 N 
ATOM     30  C   UNL     1      30.799   9.145 -23.157  1.00  0.00     0.226 C 
ATOM     31  O   UNL     1      31.703   9.972 -23.303  1.00  0.00    -0.275 OA
ATOM     32  H   UNL     1      28.973   8.432 -23.745  1.00  0.00     0.163 HD
BRANCH  30  33
ATOM     33  C   UNL     1      30.973   7.910 -22.301  1.00  0.00     0.157 C 
BRANCH  33  34
ATOM     34  C   UNL     1      32.003   8.141 -21.255  1.00  0.00     0.067 A 
ATOM     35  C   UNL     1      33.332   7.757 -21.252  1.00  0.00     0.108 A 
ATOM     36  N   UNL     1      31.709   8.827 -20.090  1.00  0.00    -0.241 NA
ATOM     37  N   UNL     1      33.849   8.250 -20.085  1.00  0.00    -0.351 N 
ATOM     38  C   UNL     1      32.840   8.883 -19.416  1.00  0.00     0.196 A 
ATOM     39  H   UNL     1      34.812   8.167 -19.772  1.00  0.00     0.167 HD
ENDBRANCH  33  34
ENDBRANCH  30  33
ENDBRANCH  28  29
ENDBRANCH  27  28
ENDBRANCH  21  27
ENDBRANCH  20  21
ENDBRANCH  19  20
ENDBRANCH  16  19
ENDBRANCH   1  15
BRANCH   6  40
ATOM     40  N   UNL     1      17.738  11.100 -22.728  1.00  0.00    -0.384 N 
ATOM     41  H   UNL     1      17.804  11.822 -22.010  1.00  0.00     0.160 HD
BRANCH  40  42
ATOM     42  C   UNL     1      16.774  11.522 -23.755  1.00  0.00     0.113 C 
BRANCH  42  43
ATOM     43  C   UNL     1      15.487  10.697 -23.721  1.00  0.00     0.023 C 
BRANCH  43  44
ATOM     44  C   UNL     1      14.453  11.248 -22.729  1.00  0.00     0.023 C 
BRANCH  44  45
ATOM     45  C   UNL     1      13.913  10.146 -21.810  1.00  0.00     0.116 C 
BRANCH  45  46
ATOM     46  N   UNL     1      14.482  10.230 -20.480  1.00  0.00    -0.354 N 
ATOM     47  H   UNL     1      13.822  10.274 -19.714  1.00  0.00     0.163 HD
BRANCH  46  48
ATOM     48  C   UNL     1      15.471   9.316 -20.133  1.00  0.00     0.229 A 
ATOM     49  N   UNL     1      15.170   8.046 -19.907  1.00  0.00    -0.177 NA
ATOM     50  N   UNL     1      16.698   9.812 -20.079  1.00  0.00    -0.177 NA
ATOM     51  C   UNL     1      16.196   7.254 -19.659  1.00  0.00     0.226 A 
ATOM     52  C   UNL     1      17.644   8.936 -19.796  1.00  0.00     0.226 A 
ATOM     53  N   UNL     1      17.456   7.646 -19.572  1.00  0.00    -0.177 NA
BRANCH  51  54
ATOM     54  N   UNL     1      15.924   5.924 -19.413  1.00  0.00    -0.368 N 
ATOM     55  H   UNL     1      15.204   5.609 -20.047  1.00  0.00     0.159 HD
ATOM     56  H   UNL     1      15.783   5.776 -18.427  1.00  0.00     0.159 HD
ENDBRANCH  51  54
BRANCH  52  57
ATOM     57  N   UNL     1      18.939   9.418 -19.751  1.00  0.00    -0.368 N 
ATOM     58  H   UNL     1      19.504   9.010 -20.484  1.00  0.00     0.159 HD
ATOM     59  H   UNL     1      18.925  10.429 -19.735  1.00  0.00     0.159 HD
ENDBRANCH  52  57
ENDBRANCH  46  48
ENDBRANCH  45  46
ENDBRANCH  44  45
ENDBRANCH  43  44
ENDBRANCH  42  43
ENDBRANCH  40  42
ENDBRANCH   6  40
TORSDOF 21
ENDMDL
MODEL 3
REMARK VINA RESULT:      -6.5     17.999     22.323
REMARK SMILES NCCN(CCNC(=O)Cc1c[nH]cn1)CCNC(=O)c1cccc2c(NCCCCNc3nc(N)nc(N)n3)c3ccccc3nc12
REMARK SMILES IDX 21 1 22 2 23 3 24 4 25 5 26 6 41 7 42 8 43 9 44 10 45 11
REMARK SMILES IDX 46 12 47 13 48 14 19 15 18 16 20 17 17 19 16 20 4 21 3 22
REMARK SMILES IDX 2 23 1 24 5 27 6 28 7 29 8 30 9 31 10 33 11 34 12 35 15 36
REMARK SMILES IDX 13 37 14 38 27 40 28 42 29 43 30 44 31 45 32 46 33 48 34 49
REMARK SMILES IDX 40 50 35 51 38 52 37 53 36 54 39 57
REMARK H PARENT 18 18 1 25 1 26 7 32 13 39 27 41 32 47 36 55 36 56 39 58 39 59
ROOT
ATOM      1  C   UNL     1      18.713   7.343 -23.138  1.00  0.00     0.066 A 
ATOM      2  C   UNL     1      19.326   6.221 -23.727  1.00  0.00     0.016 A 
ATOM      3  C   UNL     1      20.537   6.358 -24.378  1.00  0.00     0.002 A 
ATOM      4  C   UNL     1      21.138   7.614 -24.419  1.00  0.00     0.012 A 
ATOM      5  C   UNL     1      20.543   8.759 -23.813  1.00  0.00     0.025 A 
ATOM      6  C   UNL     1      21.148  10.050 -23.799  1.00  0.00     0.053 A 
ATOM      7  C   UNL     1      20.540  11.117 -23.073  1.00  0.00     0.024 A 
ATOM      8  C   UNL     1      21.112  12.407 -22.911  1.00  0.00     0.012 A 
ATOM      9  C   UNL     1      20.486  13.394 -22.146  1.00  0.00     0.001 A 
ATOM     10  C   UNL     1      19.274  13.113 -21.539  1.00  0.00     0.002 A 
ATOM     11  C   UNL     1      18.702  11.849 -21.706  1.00  0.00     0.029 A 
ATOM     12  C   UNL     1      19.317  10.850 -22.453  1.00  0.00     0.073 A 
ATOM     13  N   UNL     1      18.710   9.660 -22.534  1.00  0.00    -0.247 NA
ATOM     14  C   UNL     1      19.303   8.616 -23.155  1.00  0.00     0.086 A 
ENDROOT
BRANCH   1  15
ATOM     15  C   UNL     1      17.422   7.096 -22.440  1.00  0.00     0.253 C 
ATOM     16  N   UNL     1      17.408   7.350 -21.087  1.00  0.00    -0.351 N 
ATOM     17  O   UNL     1      16.444   6.706 -23.071  1.00  0.00    -0.269 OA
ATOM     18  H   UNL     1      18.292   7.571 -20.633  1.00  0.00     0.163 HD
BRANCH  16  19
ATOM     19  C   UNL     1      16.215   7.209 -20.286  1.00  0.00     0.131 C 
BRANCH  19  20
ATOM     20  C   UNL     1      15.467   8.538 -20.066  1.00  0.00     0.106 C 
BRANCH  20  21
ATOM     21  N   UNL     1      14.201   8.757 -20.798  1.00  0.00    -0.299 NA
BRANCH  21  22
ATOM     22  C   UNL     1      13.083   9.155 -19.922  1.00  0.00     0.099 C 
BRANCH  22  23
ATOM     23  C   UNL     1      12.801   8.135 -18.794  1.00  0.00     0.093 C 
BRANCH  23  24
ATOM     24  N   UNL     1      12.993   8.686 -17.451  1.00  0.00    -0.329 NA
ATOM     25  H   UNL     1      13.688   9.441 -17.508  1.00  0.00     0.118 HD
ATOM     26  H   UNL     1      12.153   9.205 -17.206  1.00  0.00     0.118 HD
ENDBRANCH  23  24
ENDBRANCH  22  23
ENDBRANCH  21  22
BRANCH  21  27
ATOM     27  C   UNL     1      14.355   9.639 -21.972  1.00  0.00     0.106 C 
BRANCH  27  28
ATOM     28  C   UNL     1      13.844   8.990 -23.270  1.00  0.00     0.131 C 
BRANCH  28  29
ATOM     29  N   UNL     1      14.852   9.022 -24.320  1.00  0.00    -0.354 N 
ATOM     30  C   UNL     1      14.498   9.135 -25.652  1.00  0.00     0.226 C 
ATOM     31  O   UNL     1      13.373   9.466 -26.036  1.00  0.00    -0.275 OA
ATOM     32  H   UNL     1      15.716   8.540 -24.120  1.00  0.00     0.163 HD
BRANCH  30  33
ATOM     33  C   UNL     1      15.614   8.819 -26.623  1.00  0.00     0.157 C 
BRANCH  33  34
ATOM     34  C   UNL     1      16.645   9.890 -26.601  1.00  0.00     0.067 A 
ATOM     35  C   UNL     1      16.482  11.249 -26.799  1.00  0.00     0.108 A 
ATOM     36  N   UNL     1      17.975   9.607 -26.350  1.00  0.00    -0.241 NA
ATOM     37  N   UNL     1      17.727  11.792 -26.630  1.00  0.00    -0.351 N 
ATOM     38  C   UNL     1      18.595  10.770 -26.365  1.00  0.00     0.196 A 
ATOM     39  H   UNL     1      17.965  12.777 -26.685  1.00  0.00     0.167 HD
ENDBRANCH  33  34
ENDBRANCH  30  33
ENDBRANCH  28  29
ENDBRANCH  27  28
ENDBRANCH  21  27
ENDBRANCH  20  21
ENDBRANCH  19  20
ENDBRANCH  16  19
ENDBRANCH   1  15
BRANCH   6  40
ATOM     40  N   UNL     1      22.387  10.298 -24.466  1.00  0.00    -0.384 N 
ATOM     41  H   UNL     1      22.356  11.236 -24.864  1.00  0.00     0.160 HD
BRANCH  40  42
ATOM     42  C   UNL     1      23.587  10.166 -23.625  1.00  0.00     0.113 C 
BRANCH  42  43
ATOM     43  C   UNL     1      24.730   9.454 -24.350  1.00  0.00     0.023 C 
BRANCH  43  44
ATOM     44  C   UNL     1      24.431   9.208 -25.835  1.00  0.00     0.023 C 
BRANCH  44  45
ATOM     45  C   UNL     1      25.438   9.931 -26.738  1.00  0.00     0.116 C 
BRANCH  45  46
ATOM     46  N   UNL     1      24.799  10.950 -27.546  1.00  0.00    -0.354 N 
ATOM     47  H   UNL     1      24.168  10.620 -28.264  1.00  0.00     0.163 HD
BRANCH  46  48
ATOM     48  C   UNL     1      24.178  12.009 -26.891  1.00  0.00     0.229 A 
ATOM     49  N   UNL     1      22.876  12.213 -27.018  1.00  0.00    -0.177 NA
ATOM     50  N   UNL     1      24.978  12.746 -26.136  1.00  0.00    -0.177 NA
ATOM     51  C   UNL     1      22.382  13.200 -26.295  1.00  0.00     0.226 A 
ATOM     52  C   UNL     1      24.383  13.723 -25.477  1.00  0.00     0.226 A 
ATOM     53  N   UNL     1      23.091  14.002 -25.519  1.00  0.00    -0.177 NA
BRANCH  51  54
ATOM     54  N   UNL     1      21.030  13.449 -26.404  1.00  0.00    -0.368 N 
ATOM     55  H   UNL     1      20.520  12.768 -25.860  1.00  0.00     0.159 HD
ATOM     56  H   UNL     1      20.776  13.565 -27.372  1.00  0.00     0.159 HD
ENDBRANCH  51  54
BRANCH  52  57
ATOM     57  N   UNL     1      25.187  14.501 -24.665  1.00  0.00    -0.368 N 
ATOM     58  H   UNL     1      24.717  15.359 -24.403  1.00  0.00     0.159 HD
ATOM     59  H   UNL     1      25.525  13.946 -23.891  1.00  0.00     0.159 HD
ENDBRANCH  52  57
ENDBRANCH  46  48
ENDBRANCH  45  46
ENDBRANCH  44  45
ENDBRANCH  43  44
ENDBRANCH  42  43
ENDBRANCH  40  42
ENDBRANCH   6  40
TORSDOF 21
ENDMDL
