MODEL 1
REMARK VINA RESULT:      -7.2      0.000      0.000
REMARK SMILES CN(c1ccc(-c2ccc(-c3cn[nH]c3)cc2O)nn1)C1CC(C)(C)NC(C)(C)C1
REMARK SMILES IDX 3 1 4 2 5 3 6 4 19 5 20 6 2 7 1 8 21 9 22 10 30 11 23 12
REMARK SMILES IDX 27 13 26 14 24 15 25 16 28 17 29 18 7 20 8 21 17 22 9 23
REMARK SMILES IDX 16 24 10 25 18 26 11 28 12 29 15 30 13 31 14 32
REMARK H PARENT 26 19 18 27 14 33
ROOT
ATOM      1  C   UNL     1      19.526  12.049 -24.124  1.00  0.00     0.151 A 
ATOM      2  C   UNL     1      20.073  13.078 -23.368  1.00  0.00     0.051 A 
ATOM      3  C   UNL     1      21.456  13.264 -23.349  1.00  0.00     0.035 A 
ATOM      4  C   UNL     1      22.265  12.424 -24.101  1.00  0.00     0.097 A 
ATOM      5  N   UNL     1      21.703  11.431 -24.830  1.00  0.00    -0.148 NA
ATOM      6  N   UNL     1      20.336  11.243 -24.841  1.00  0.00    -0.132 NA
ENDROOT
BRANCH   1   7
ATOM      7  N   UNL     1      18.108  11.897 -24.125  1.00  0.00    -0.355 N 
ATOM      8  C   UNL     1      17.715  12.023 -25.542  1.00  0.00     0.145 C 
BRANCH   7   9
ATOM      9  C   UNL     1      17.670  10.615 -23.485  1.00  0.00     0.087 C 
ATOM     10  C   UNL     1      16.374  10.787 -22.672  1.00  0.00     0.047 C 
ATOM     11  C   UNL     1      18.744   9.997 -22.554  1.00  0.00     0.047 C 
ATOM     12  C   UNL     1      16.535  11.693 -21.430  1.00  0.00     0.015 C 
ATOM     13  C   UNL     1      18.649  10.399 -21.058  1.00  0.00     0.015 C 
ATOM     14  N   UNL     1      17.884  11.635 -20.836  1.00  0.00    -0.307 NA
ATOM     15  C   UNL     1      16.255  13.173 -21.783  1.00  0.00     0.028 C 
ATOM     16  C   UNL     1      15.485  11.310 -20.364  1.00  0.00     0.028 C 
ATOM     17  C   UNL     1      20.078  10.688 -20.538  1.00  0.00     0.028 C 
ATOM     18  C   UNL     1      18.102   9.233 -20.210  1.00  0.00     0.028 C 
ATOM     19  H   UNL     1      18.431  12.397 -21.246  1.00  0.00     0.123 HD
ENDBRANCH   7   9
ENDBRANCH   1   7
BRANCH   4  20
ATOM     20  C   UNL     1      23.740  12.514 -24.160  1.00  0.00     0.044 A 
ATOM     21  C   UNL     1      24.381  13.655 -24.682  1.00  0.00     0.015 A 
ATOM     22  C   UNL     1      24.582  11.478 -23.709  1.00  0.00     0.125 A 
ATOM     23  C   UNL     1      25.779  13.758 -24.735  1.00  0.00     0.010 A 
ATOM     24  C   UNL     1      25.978  11.579 -23.754  1.00  0.00     0.055 A 
ATOM     25  C   UNL     1      26.594  12.723 -24.268  1.00  0.00    -0.012 A 
BRANCH  22  26
ATOM     26  O   UNL     1      24.103  10.301 -23.188  1.00  0.00    -0.507 OA
ATOM     27  H   UNL     1      23.458  10.520 -22.483  1.00  0.00     0.293 HD
ENDBRANCH  22  26
BRANCH  25  28
ATOM     28  C   UNL     1      28.041  12.839 -24.340  1.00  0.00     0.020 A 
ATOM     29  C   UNL     1      28.875  13.447 -25.308  1.00  0.00     0.143 A 
ATOM     30  C   UNL     1      28.930  12.350 -23.403  1.00  0.00     0.113 A 
ATOM     31  N   UNL     1      30.173  13.352 -25.008  1.00  0.00    -0.184 NA
ATOM     32  N   UNL     1      30.178  12.677 -23.848  1.00  0.00    -0.285 N 
ATOM     33  H   UNL     1      31.072  12.475 -23.412  1.00  0.00     0.189 HD
ENDBRANCH  25  28
ENDBRANCH   4  20
TORSDOF 5
ENDMDL
MODEL 2
REMARK VINA RESULT:      -7.2      2.272      3.045
REMARK SMILES CN(c1ccc(-c2ccc(-c3cn[nH]c3)cc2O)nn1)C1CC(C)(C)NC(C)(C)C1
REMARK SMILES IDX 3 1 4 2 5 3 6 4 19 5 20 6 2 7 1 8 21 9 22 10 30 11 23 12
REMARK SMILES IDX 27 13 26 14 24 15 25 16 28 17 29 18 7 20 8 21 17 22 9 23
REMARK SMILES IDX 16 24 10 25 18 26 11 28 12 29 15 30 13 31 14 32
REMARK H PARENT 26 19 18 27 14 33
ROOT
ATOM      1  C   UNL     1      18.233  12.348 -22.490  1.00  0.00     0.151 A 
ATOM      2  C   UNL     1      19.155  13.137 -21.815  1.00  0.00     0.051 A 
ATOM      3  C   UNL     1      20.372  13.452 -22.422  1.00  0.00     0.035 A 
ATOM      4  C   UNL     1      20.636  12.981 -23.701  1.00  0.00     0.097 A 
ATOM      5  N   UNL     1      19.717  12.214 -24.333  1.00  0.00    -0.148 NA
ATOM      6  N   UNL     1      18.518  11.897 -23.729  1.00  0.00    -0.132 NA
ENDROOT
BRANCH   1   7
ATOM      7  N   UNL     1      16.997  12.056 -21.840  1.00  0.00    -0.355 N 
ATOM      8  C   UNL     1      16.096  13.159 -22.226  1.00  0.00     0.145 C 
BRANCH   7   9
ATOM      9  C   UNL     1      16.475  10.695 -22.189  1.00  0.00     0.087 C 
ATOM     10  C   UNL     1      15.101  10.422 -21.551  1.00  0.00     0.047 C 
ATOM     11  C   UNL     1      17.432   9.547 -21.779  1.00  0.00     0.047 C 
ATOM     12  C   UNL     1      15.137  10.333 -20.008  1.00  0.00     0.015 C 
ATOM     13  C   UNL     1      17.180   8.929 -20.378  1.00  0.00     0.015 C 
ATOM     14  N   UNL     1      16.412   9.809 -19.485  1.00  0.00    -0.307 NA
ATOM     15  C   UNL     1      14.917  11.724 -19.368  1.00  0.00     0.028 C 
ATOM     16  C   UNL     1      13.972   9.452 -19.508  1.00  0.00     0.028 C 
ATOM     17  C   UNL     1      18.548   8.714 -19.685  1.00  0.00     0.028 C 
ATOM     18  C   UNL     1      16.528   7.538 -20.501  1.00  0.00     0.028 C 
ATOM     19  H   UNL     1      17.011  10.613 -19.278  1.00  0.00     0.123 HD
ENDBRANCH   7   9
ENDBRANCH   1   7
BRANCH   4  20
ATOM     20  C   UNL     1      21.886  13.238 -24.447  1.00  0.00     0.044 A 
ATOM     21  C   UNL     1      23.128  13.308 -23.786  1.00  0.00     0.015 A 
ATOM     22  C   UNL     1      21.912  13.430 -25.843  1.00  0.00     0.125 A 
ATOM     23  C   UNL     1      24.324  13.541 -24.482  1.00  0.00     0.010 A 
ATOM     24  C   UNL     1      23.102  13.657 -26.543  1.00  0.00     0.055 A 
ATOM     25  C   UNL     1      24.325  13.715 -25.869  1.00  0.00    -0.012 A 
BRANCH  22  26
ATOM     26  O   UNL     1      20.779  13.404 -26.619  1.00  0.00    -0.507 OA
ATOM     27  H   UNL     1      20.065  12.975 -26.103  1.00  0.00     0.293 HD
ENDBRANCH  22  26
BRANCH  25  28
ATOM     28  C   UNL     1      25.570  13.967 -26.576  1.00  0.00     0.020 A 
ATOM     29  C   UNL     1      26.846  14.350 -26.097  1.00  0.00     0.143 A 
ATOM     30  C   UNL     1      25.751  13.862 -27.941  1.00  0.00     0.113 A 
ATOM     31  N   UNL     1      27.750  14.473 -27.073  1.00  0.00    -0.184 NA
ATOM     32  N   UNL     1      27.056  14.176 -28.183  1.00  0.00    -0.285 N 
ATOM     33  H   UNL     1      27.540  14.203 -29.075  1.00  0.00     0.189 HD
ENDBRANCH  25  28
ENDBRANCH   4  20
TORSDOF 5
ENDMDL
MODEL 3
REMARK VINA RESULT:      -7.1     17.567     19.023
REMARK SMILES CN(c1ccc(-c2ccc(-c3cn[nH]c3)cc2O)nn1)C1CC(C)(C)NC(C)(C)C1
REMARK SMILES IDX 3 1 4 2 5 3 6 4 19 5 20 6 2 7 1 8 21 9 22 10 30 11 23 12
REMARK SMILES IDX 27 13 26 14 24 15 25 16 28 17 29 18 7 20 8 21 17 22 9 23
REMARK SMILES IDX 16 24 10 25 18 26 11 28 12 29 15 30 13 31 14 32
REMARK H PARENT 26 19 18 27 14 33
ROOT
ATOM      1  C   UNL     1      22.031  20.607  -4.908  1.00  0.00     0.151 A 
ATOM      2  C   UNL     1      23.270  20.003  -4.735  1.00  0.00     0.051 A 
ATOM      3  C   UNL     1      23.988  19.565  -5.848  1.00  0.00     0.035 A 
ATOM      4  C   UNL     1      23.457  19.753  -7.117  1.00  0.00     0.097 A 
ATOM      5  N   UNL     1      22.247  20.346  -7.254  1.00  0.00    -0.148 NA
ATOM      6  N   UNL     1      21.535  20.771  -6.151  1.00  0.00    -0.132 NA
ENDROOT
BRANCH   1   7
ATOM      7  N   UNL     1      21.332  21.050  -3.745  1.00  0.00    -0.355 N 
ATOM      8  C   UNL     1      21.418  19.921  -2.799  1.00  0.00     0.145 C 
BRANCH   7   9
ATOM      9  C   UNL     1      21.877  22.337  -3.206  1.00  0.00     0.087 C 
ATOM     10  C   UNL     1      20.760  23.340  -2.865  1.00  0.00     0.047 C 
ATOM     11  C   UNL     1      22.871  23.033  -4.170  1.00  0.00     0.047 C 
ATOM     12  C   UNL     1      19.982  23.848  -4.100  1.00  0.00     0.015 C 
ATOM     13  C   UNL     1      22.252  24.077  -5.137  1.00  0.00     0.015 C 
ATOM     14  N   UNL     1      20.803  23.907  -5.323  1.00  0.00    -0.307 NA
ATOM     15  C   UNL     1      18.771  22.935  -4.406  1.00  0.00     0.028 C 
ATOM     16  C   UNL     1      19.390  25.244  -3.807  1.00  0.00     0.028 C 
ATOM     17  C   UNL     1      22.883  23.881  -6.537  1.00  0.00     0.028 C 
ATOM     18  C   UNL     1      22.603  25.511  -4.695  1.00  0.00     0.028 C 
ATOM     19  H   UNL     1      20.672  23.023  -5.823  1.00  0.00     0.123 HD
ENDBRANCH   7   9
ENDBRANCH   1   7
BRANCH   4  20
ATOM     20  C   UNL     1      24.114  19.329  -8.372  1.00  0.00     0.044 A 
ATOM     21  C   UNL     1      25.437  19.711  -8.667  1.00  0.00     0.015 A 
ATOM     22  C   UNL     1      23.466  18.531  -9.336  1.00  0.00     0.125 A 
ATOM     23  C   UNL     1      26.077  19.307  -9.848  1.00  0.00     0.010 A 
ATOM     24  C   UNL     1      24.102  18.121 -10.514  1.00  0.00     0.055 A 
ATOM     25  C   UNL     1      25.418  18.504 -10.784  1.00  0.00    -0.012 A 
BRANCH  22  26
ATOM     26  O   UNL     1      22.172  18.093  -9.193  1.00  0.00    -0.507 OA
ATOM     27  H   UNL     1      22.081  17.694  -8.303  1.00  0.00     0.293 HD
ENDBRANCH  22  26
BRANCH  25  28
ATOM     28  C   UNL     1      26.089  18.104 -12.009  1.00  0.00     0.020 A 
ATOM     29  C   UNL     1      26.142  16.853 -12.671  1.00  0.00     0.143 A 
ATOM     30  C   UNL     1      26.845  18.932 -12.815  1.00  0.00     0.113 A 
ATOM     31  N   UNL     1      26.864  16.891 -13.794  1.00  0.00    -0.184 NA
ATOM     32  N   UNL     1      27.283  18.165 -13.854  1.00  0.00    -0.285 N 
ATOM     33  H   UNL     1      27.865  18.443 -14.638  1.00  0.00     0.189 HD
ENDBRANCH  25  28
ENDBRANCH   4  20
TORSDOF 5
ENDMDL
