MODEL 1
REMARK VINA RESULT:      -8.1      0.000      0.000
REMARK SMILES O=c1cc(-c2cccs2)nc([C@H]2CCCN(Cc3cn(-c4ncccn4)cn3)C2)[nH]1
REMARK SMILES IDX 12 1 13 2 14 3 15 4 16 5 29 6 11 7 1 8 2 9 3 10 30 11 4 12
REMARK SMILES IDX 10 13 5 15 6 16 9 17 7 18 8 19 17 20 18 21 19 22 28 23 20 24
REMARK SMILES IDX 27 25 21 26 22 27 26 28 23 29 25 30 24 31
REMARK H PARENT 30 14
ROOT
ATOM      1  C   UNL     1      24.631  20.364  -7.519  1.00  0.00     0.070 C 
ATOM      2  C   UNL     1      25.042  19.643  -6.226  1.00  0.00     0.014 C 
ATOM      3  C   UNL     1      25.994  20.481  -5.369  1.00  0.00     0.016 C 
ATOM      4  C   UNL     1      25.792  21.977  -5.609  1.00  0.00     0.085 C 
ATOM      5  N   UNL     1      26.098  22.339  -6.994  1.00  0.00    -0.297 NA
ATOM      6  C   UNL     1      25.730  21.325  -7.993  1.00  0.00     0.096 C 
ENDROOT
BRANCH   1   7
ATOM      7  C   UNL     1      24.249  19.374  -8.608  1.00  0.00     0.113 C 
ATOM      8  O   UNL     1      21.525  17.274  -9.331  1.00  0.00    -0.269 OA
ATOM      9  C   UNL     1      22.608  17.839  -9.415  1.00  0.00     0.251 C 
ATOM     10  C   UNL     1      23.511  17.601 -10.545  1.00  0.00     0.101 C 
ATOM     11  N   UNL     1      23.054  18.726  -8.483  1.00  0.00    -0.310 N 
ATOM     12  C   UNL     1      24.661  18.287 -10.573  1.00  0.00     0.088 C 
ATOM     13  N   UNL     1      25.041  19.195  -9.616  1.00  0.00    -0.233 NA
ATOM     14  H   UNL     1      22.434  18.897  -7.705  1.00  0.00     0.171 HD
BRANCH  12  15
ATOM     15  C   UNL     1      25.576  18.093 -11.662  1.00  0.00     0.053 A 
ATOM     16  C   UNL     1      25.727  16.999 -12.504  1.00  0.00     0.022 A 
ATOM     17  S   UNL     1      26.722  19.319 -12.086  1.00  0.00    -0.142 S 
ATOM     18  C   UNL     1      26.761  17.164 -13.472  1.00  0.00     0.012 A 
ATOM     19  C   UNL     1      27.382  18.384 -13.351  1.00  0.00     0.065 A 
ENDBRANCH  12  15
ENDBRANCH   1   7
BRANCH   5  20
ATOM     20  C   UNL     1      25.685  23.706  -7.352  1.00  0.00     0.142 C 
BRANCH  20  21
ATOM     21  C   UNL     1      26.364  24.236  -8.580  1.00  0.00     0.073 A 
ATOM     22  C   UNL     1      27.320  25.226  -8.694  1.00  0.00     0.121 A 
ATOM     23  N   UNL     1      26.066  23.727  -9.828  1.00  0.00    -0.240 NA
ATOM     24  N   UNL     1      27.579  25.353 -10.042  1.00  0.00    -0.274 N 
ATOM     25  C   UNL     1      26.792  24.424 -10.675  1.00  0.00     0.207 A 
BRANCH  24  26
ATOM     26  C   UNL     1      28.475  26.260 -10.662  1.00  0.00     0.234 A 
ATOM     27  N   UNL     1      28.336  27.574 -10.381  1.00  0.00    -0.221 NA
ATOM     28  N   UNL     1      29.411  25.752 -11.491  1.00  0.00    -0.221 NA
ATOM     29  C   UNL     1      29.199  28.410 -10.987  1.00  0.00     0.117 A 
ATOM     30  C   UNL     1      30.245  26.637 -12.069  1.00  0.00     0.117 A 
ATOM     31  C   UNL     1      30.183  27.992 -11.850  1.00  0.00     0.040 A 
ENDBRANCH  24  26
ENDBRANCH  20  21
ENDBRANCH   5  20
TORSDOF 5
ENDMDL
MODEL 2
REMARK VINA RESULT:      -7.8      0.831      1.016
REMARK SMILES O=c1cc(-c2cccs2)nc([C@H]2CCCN(Cc3cn(-c4ncccn4)cn3)C2)[nH]1
REMARK SMILES IDX 12 1 13 2 14 3 15 4 16 5 29 6 11 7 1 8 2 9 3 10 30 11 4 12
REMARK SMILES IDX 10 13 5 15 6 16 9 17 7 18 8 19 17 20 18 21 19 22 28 23 20 24
REMARK SMILES IDX 27 25 21 26 22 27 26 28 23 29 25 30 24 31
REMARK H PARENT 30 14
ROOT
ATOM      1  C   UNL     1      24.653  20.400  -7.549  1.00  0.00     0.070 C 
ATOM      2  C   UNL     1      25.426  19.720  -6.409  1.00  0.00     0.014 C 
ATOM      3  C   UNL     1      26.344  20.694  -5.666  1.00  0.00     0.016 C 
ATOM      4  C   UNL     1      25.820  22.127  -5.746  1.00  0.00     0.085 C 
ATOM      5  N   UNL     1      25.788  22.605  -7.130  1.00  0.00    -0.297 NA
ATOM      6  C   UNL     1      25.441  21.583  -8.128  1.00  0.00     0.096 C 
ENDROOT
BRANCH   1   7
ATOM      7  C   UNL     1      24.270  19.403  -8.631  1.00  0.00     0.113 C 
ATOM      8  O   UNL     1      21.547  17.295  -9.336  1.00  0.00    -0.269 OA
ATOM      9  C   UNL     1      22.630  17.861  -9.425  1.00  0.00     0.251 C 
ATOM     10  C   UNL     1      23.530  17.618 -10.556  1.00  0.00     0.101 C 
ATOM     11  N   UNL     1      23.076  18.754  -8.500  1.00  0.00    -0.310 N 
ATOM     12  C   UNL     1      24.679  18.305 -10.590  1.00  0.00     0.088 C 
ATOM     13  N   UNL     1      25.060  19.220  -9.639  1.00  0.00    -0.233 NA
ATOM     14  H   UNL     1      22.457  18.929  -7.721  1.00  0.00     0.171 HD
BRANCH  12  15
ATOM     15  C   UNL     1      25.592  18.105 -11.680  1.00  0.00     0.053 A 
ATOM     16  C   UNL     1      25.741  17.008 -12.519  1.00  0.00     0.022 A 
ATOM     17  S   UNL     1      26.740  19.328 -12.110  1.00  0.00    -0.142 S 
ATOM     18  C   UNL     1      26.773  17.169 -13.488  1.00  0.00     0.012 A 
ATOM     19  C   UNL     1      27.397  18.388 -13.373  1.00  0.00     0.065 A 
ENDBRANCH  12  15
ENDBRANCH   1   7
BRANCH   5  20
ATOM     20  C   UNL     1      25.064  23.876  -7.299  1.00  0.00     0.142 C 
BRANCH  20  21
ATOM     21  C   UNL     1      25.880  24.948  -7.957  1.00  0.00     0.073 A 
ATOM     22  C   UNL     1      26.731  24.860  -9.041  1.00  0.00     0.121 A 
ATOM     23  N   UNL     1      25.847  26.247  -7.492  1.00  0.00    -0.240 NA
ATOM     24  N   UNL     1      27.259  26.121  -9.215  1.00  0.00    -0.274 N 
ATOM     25  C   UNL     1      26.690  26.914  -8.250  1.00  0.00     0.207 A 
BRANCH  24  26
ATOM     26  C   UNL     1      28.204  26.529 -10.190  1.00  0.00     0.234 A 
ATOM     27  N   UNL     1      28.393  27.855 -10.368  1.00  0.00    -0.221 NA
ATOM     28  N   UNL     1      28.857  25.566 -10.875  1.00  0.00    -0.221 NA
ATOM     29  C   UNL     1      29.294  28.211 -11.303  1.00  0.00     0.117 A 
ATOM     30  C   UNL     1      29.745  25.983 -11.797  1.00  0.00     0.117 A 
ATOM     31  C   UNL     1      30.006  27.307 -12.055  1.00  0.00     0.040 A 
ENDBRANCH  24  26
ENDBRANCH  20  21
ENDBRANCH   5  20
TORSDOF 5
ENDMDL
MODEL 3
REMARK VINA RESULT:      -7.4      1.874      3.018
REMARK SMILES O=c1cc(-c2cccs2)nc([C@H]2CCCN(Cc3cn(-c4ncccn4)cn3)C2)[nH]1
REMARK SMILES IDX 12 1 13 2 14 3 15 4 16 5 29 6 11 7 1 8 2 9 3 10 30 11 4 12
REMARK SMILES IDX 10 13 5 15 6 16 9 17 7 18 8 19 17 20 18 21 19 22 28 23 20 24
REMARK SMILES IDX 27 25 21 26 22 27 26 28 23 29 25 30 24 31
REMARK H PARENT 30 14
ROOT
ATOM      1  C   UNL     1      22.507  18.892  -7.980  1.00  0.00     0.070 C 
ATOM      2  C   UNL     1      22.094  17.927  -6.857  1.00  0.00     0.014 C 
ATOM      3  C   UNL     1      22.219  18.560  -5.470  1.00  0.00     0.016 C 
ATOM      4  C   UNL     1      22.062  20.080  -5.533  1.00  0.00     0.085 C 
ATOM      5  N   UNL     1      23.124  20.691  -6.334  1.00  0.00    -0.297 NA
ATOM      6  C   UNL     1      23.559  19.896  -7.492  1.00  0.00     0.096 C 
ENDROOT
BRANCH   1   7
ATOM      7  C   UNL     1      22.984  18.139  -9.211  1.00  0.00     0.113 C 
ATOM      8  O   UNL     1      21.943  15.351 -11.083  1.00  0.00    -0.269 OA
ATOM      9  C   UNL     1      22.596  16.316 -10.703  1.00  0.00     0.251 C 
ATOM     10  C   UNL     1      23.792  16.763 -11.424  1.00  0.00     0.101 C 
ATOM     11  N   UNL     1      22.267  17.045  -9.602  1.00  0.00    -0.310 N 
ATOM     12  C   UNL     1      24.425  17.847 -10.957  1.00  0.00     0.088 C 
ATOM     13  N   UNL     1      24.024  18.561  -9.856  1.00  0.00    -0.233 NA
ATOM     14  H   UNL     1      21.441  16.743  -9.105  1.00  0.00     0.171 HD
BRANCH  12  15
ATOM     15  C   UNL     1      25.598  18.327 -11.632  1.00  0.00     0.053 A 
ATOM     16  C   UNL     1      26.333  19.486 -11.412  1.00  0.00     0.022 A 
ATOM     17  S   UNL     1      26.297  17.433 -12.940  1.00  0.00    -0.142 S 
ATOM     18  C   UNL     1      27.439  19.635 -12.298  1.00  0.00     0.012 A 
ATOM     19  C   UNL     1      27.531  18.586 -13.181  1.00  0.00     0.065 A 
ENDBRANCH  12  15
ENDBRANCH   1   7
BRANCH   5  20
ATOM     20  C   UNL     1      22.889  22.112  -6.640  1.00  0.00     0.142 C 
BRANCH  20  21
ATOM     21  C   UNL     1      24.148  22.888  -6.889  1.00  0.00     0.073 A 
ATOM     22  C   UNL     1      24.444  23.774  -7.906  1.00  0.00     0.121 A 
ATOM     23  N   UNL     1      25.228  22.774  -6.038  1.00  0.00    -0.240 NA
ATOM     24  N   UNL     1      25.744  24.178  -7.693  1.00  0.00    -0.274 N 
ATOM     25  C   UNL     1      26.165  23.540  -6.553  1.00  0.00     0.207 A 
BRANCH  24  26
ATOM     26  C   UNL     1      26.507  25.070  -8.489  1.00  0.00     0.234 A 
ATOM     27  N   UNL     1      27.119  24.570  -9.585  1.00  0.00    -0.221 NA
ATOM     28  N   UNL     1      26.570  26.361  -8.101  1.00  0.00    -0.221 NA
ATOM     29  C   UNL     1      27.838  25.441 -10.318  1.00  0.00     0.117 A 
ATOM     30  C   UNL     1      27.305  27.184  -8.873  1.00  0.00     0.117 A 
ATOM     31  C   UNL     1      27.967  26.773 -10.005  1.00  0.00     0.040 A 
ENDBRANCH  24  26
ENDBRANCH  20  21
ENDBRANCH   5  20
TORSDOF 5
ENDMDL
