MODEL 1
REMARK VINA RESULT:      -7.0      0.000      0.000
REMARK SMILES O=C(Nc1ccc(NC(=O)c2ccc(F)cc2)nc1)c1ccncc1
REMARK SMILES IDX 4 1 5 2 6 3 7 4 18 5 19 6 3 7 1 8 2 9 20 11 21 12 25 13
REMARK SMILES IDX 22 14 24 15 23 16 8 17 9 18 10 19 11 21 12 22 17 23 13 24
REMARK SMILES IDX 16 25 14 26 15 27
REMARK H PARENT 3 10 8 20
ROOT
ATOM      1  C   UNL     1      27.316  24.623  -9.363  1.00  0.00     0.060 A 
ATOM      2  C   UNL     1      27.446  24.391  -8.000  1.00  0.00     0.031 A 
ATOM      3  C   UNL     1      26.645  23.428  -7.375  1.00  0.00     0.049 A 
ATOM      4  C   UNL     1      25.729  22.716  -8.133  1.00  0.00     0.132 A 
ATOM      5  N   UNL     1      25.571  22.923  -9.458  1.00  0.00    -0.237 NA
ATOM      6  C   UNL     1      26.362  23.861 -10.034  1.00  0.00     0.139 A 
ENDROOT
BRANCH   1   7
ATOM      7  N   UNL     1      28.065  25.572 -10.093  1.00  0.00    -0.321 N 
ATOM      8  O   UNL     1      27.250  27.587  -9.246  1.00  0.00    -0.269 OA
ATOM      9  C   UNL     1      27.961  26.949 -10.013  1.00  0.00     0.255 C 
ATOM     10  H   UNL     1      28.802  25.198 -10.678  1.00  0.00     0.170 HD
BRANCH   9  11
ATOM     11  C   UNL     1      28.848  27.702 -10.938  1.00  0.00     0.043 A 
ATOM     12  C   UNL     1      29.674  28.734 -10.490  1.00  0.00     0.034 A 
ATOM     13  C   UNL     1      28.869  27.333 -12.283  1.00  0.00     0.034 A 
ATOM     14  C   UNL     1      30.469  29.374 -11.424  1.00  0.00     0.112 A 
ATOM     15  C   UNL     1      29.697  28.038 -13.136  1.00  0.00     0.112 A 
ATOM     16  N   UNL     1      30.489  29.057 -12.735  1.00  0.00    -0.265 NA
ENDBRANCH   9  11
ENDBRANCH   1   7
BRANCH   4  17
ATOM     17  N   UNL     1      24.873  21.737  -7.626  1.00  0.00    -0.307 N 
ATOM     18  C   UNL     1      24.968  20.374  -7.763  1.00  0.00     0.256 C 
ATOM     19  O   UNL     1      25.813  19.762  -8.406  1.00  0.00    -0.269 OA
ATOM     20  H   UNL     1      24.070  22.146  -7.170  1.00  0.00     0.171 HD
BRANCH  18  21
ATOM     21  C   UNL     1      23.900  19.592  -7.074  1.00  0.00     0.040 A 
ATOM     22  C   UNL     1      22.861  18.969  -7.783  1.00  0.00     0.017 A 
ATOM     23  C   UNL     1      23.932  19.511  -5.673  1.00  0.00     0.017 A 
ATOM     24  C   UNL     1      21.880  18.251  -7.093  1.00  0.00     0.040 A 
ATOM     25  C   UNL     1      22.948  18.793  -4.989  1.00  0.00     0.040 A 
ATOM     26  C   UNL     1      21.935  18.168  -5.705  1.00  0.00     0.123 A 
ATOM     27  F   UNL     1      20.992  17.480  -5.049  1.00  0.00    -0.207 F 
ENDBRANCH  18  21
ENDBRANCH   4  17
TORSDOF 4
ENDMDL
MODEL 2
REMARK VINA RESULT:      -6.9      3.777     10.411
REMARK SMILES O=C(Nc1ccc(NC(=O)c2ccc(F)cc2)nc1)c1ccncc1
REMARK SMILES IDX 4 1 5 2 6 3 7 4 18 5 19 6 3 7 1 8 2 9 20 11 21 12 25 13
REMARK SMILES IDX 22 14 24 15 23 16 8 17 9 18 10 19 11 21 12 22 17 23 13 24
REMARK SMILES IDX 16 25 14 26 15 27
REMARK H PARENT 3 10 8 20
ROOT
ATOM      1  C   UNL     1      25.673  22.618  -8.028  1.00  0.00     0.060 A 
ATOM      2  C   UNL     1      26.597  23.354  -7.297  1.00  0.00     0.031 A 
ATOM      3  C   UNL     1      27.384  24.320  -7.936  1.00  0.00     0.049 A 
ATOM      4  C   UNL     1      27.226  24.528  -9.297  1.00  0.00     0.132 A 
ATOM      5  N   UNL     1      26.343  23.824 -10.038  1.00  0.00    -0.237 NA
ATOM      6  C   UNL     1      25.595  22.897  -9.391  1.00  0.00     0.139 A 
ENDROOT
BRANCH   1   7
ATOM      7  N   UNL     1      24.834  21.617  -7.490  1.00  0.00    -0.321 N 
ATOM      8  O   UNL     1      26.057  19.678  -7.920  1.00  0.00    -0.269 OA
ATOM      9  C   UNL     1      25.060  20.253  -7.502  1.00  0.00     0.255 C 
ATOM     10  H   UNL     1      24.024  21.947  -6.980  1.00  0.00     0.170 HD
BRANCH   9  11
ATOM     11  C   UNL     1      23.977  19.430  -6.899  1.00  0.00     0.043 A 
ATOM     12  C   UNL     1      24.123  18.819  -5.654  1.00  0.00     0.034 A 
ATOM     13  C   UNL     1      22.775  19.304  -7.596  1.00  0.00     0.034 A 
ATOM     14  C   UNL     1      23.059  18.078  -5.171  1.00  0.00     0.112 A 
ATOM     15  C   UNL     1      21.774  18.539  -7.029  1.00  0.00     0.112 A 
ATOM     16  N   UNL     1      21.896  17.916  -5.836  1.00  0.00    -0.265 NA
ENDBRANCH   9  11
ENDBRANCH   1   7
BRANCH   4  17
ATOM     17  N   UNL     1      27.953  25.454 -10.045  1.00  0.00    -0.307 N 
ATOM     18  C   UNL     1      27.925  26.825  -9.957  1.00  0.00     0.256 C 
ATOM     19  O   UNL     1      27.208  27.494  -9.223  1.00  0.00    -0.269 OA
ATOM     20  H   UNL     1      28.496  25.004 -10.767  1.00  0.00     0.171 HD
BRANCH  18  21
ATOM     21  C   UNL     1      28.847  27.539 -10.887  1.00  0.00     0.040 A 
ATOM     22  C   UNL     1      29.664  28.596 -10.458  1.00  0.00     0.017 A 
ATOM     23  C   UNL     1      28.865  27.151 -12.236  1.00  0.00     0.017 A 
ATOM     24  C   UNL     1      30.509  29.238 -11.367  1.00  0.00     0.040 A 
ATOM     25  C   UNL     1      29.711  27.795 -13.141  1.00  0.00     0.040 A 
ATOM     26  C   UNL     1      30.526  28.829 -12.698  1.00  0.00     0.123 A 
ATOM     27  F   UNL     1      31.337  29.449 -13.565  1.00  0.00    -0.207 F 
ENDBRANCH  18  21
ENDBRANCH   4  17
TORSDOF 4
ENDMDL
MODEL 3
REMARK VINA RESULT:      -6.9      3.837     10.435
REMARK SMILES O=C(Nc1ccc(NC(=O)c2ccc(F)cc2)nc1)c1ccncc1
REMARK SMILES IDX 4 1 5 2 6 3 7 4 18 5 19 6 3 7 1 8 2 9 20 11 21 12 25 13
REMARK SMILES IDX 22 14 24 15 23 16 8 17 9 18 10 19 11 21 12 22 17 23 13 24
REMARK SMILES IDX 16 25 14 26 15 27
REMARK H PARENT 3 10 8 20
ROOT
ATOM      1  C   UNL     1      25.736  22.922  -8.208  1.00  0.00     0.060 A 
ATOM      2  C   UNL     1      26.672  23.639  -7.474  1.00  0.00     0.031 A 
ATOM      3  C   UNL     1      27.502  24.567  -8.114  1.00  0.00     0.049 A 
ATOM      4  C   UNL     1      27.375  24.757  -9.482  1.00  0.00     0.132 A 
ATOM      5  N   UNL     1      26.481  24.070 -10.226  1.00  0.00    -0.237 NA
ATOM      6  C   UNL     1      25.691  23.180  -9.577  1.00  0.00     0.139 A 
ENDROOT
BRANCH   1   7
ATOM      7  N   UNL     1      24.856  21.959  -7.668  1.00  0.00    -0.321 N 
ATOM      8  O   UNL     1      25.763  19.967  -8.476  1.00  0.00    -0.269 OA
ATOM      9  C   UNL     1      24.907  20.590  -7.861  1.00  0.00     0.255 C 
ATOM     10  H   UNL     1      24.165  22.309  -7.016  1.00  0.00     0.170 HD
BRANCH   9  11
ATOM     11  C   UNL     1      23.816  19.821  -7.204  1.00  0.00     0.043 A 
ATOM     12  C   UNL     1      23.009  18.933  -7.915  1.00  0.00     0.034 A 
ATOM     13  C   UNL     1      23.630  19.977  -5.830  1.00  0.00     0.034 A 
ATOM     14  C   UNL     1      22.023  18.258  -7.218  1.00  0.00     0.112 A 
ATOM     15  C   UNL     1      22.616  19.258  -5.227  1.00  0.00     0.112 A 
ATOM     16  N   UNL     1      21.803  18.410  -5.895  1.00  0.00    -0.265 NA
ENDBRANCH   9  11
ENDBRANCH   1   7
BRANCH   4  17
ATOM     17  N   UNL     1      28.144  25.646 -10.232  1.00  0.00    -0.307 N 
ATOM     18  C   UNL     1      28.141  27.019 -10.186  1.00  0.00     0.256 C 
ATOM     19  O   UNL     1      27.414  27.724  -9.496  1.00  0.00    -0.269 OA
ATOM     20  H   UNL     1      28.702  25.164 -10.922  1.00  0.00     0.171 HD
BRANCH  18  21
ATOM     21  C   UNL     1      29.108  27.686 -11.105  1.00  0.00     0.040 A 
ATOM     22  C   UNL     1      29.112  27.439 -12.487  1.00  0.00     0.017 A 
ATOM     23  C   UNL     1      30.057  28.560 -10.553  1.00  0.00     0.017 A 
ATOM     24  C   UNL     1      30.041  28.084 -13.308  1.00  0.00     0.040 A 
ATOM     25  C   UNL     1      30.984  29.202 -11.378  1.00  0.00     0.040 A 
ATOM     26  C   UNL     1      30.964  28.961 -12.746  1.00  0.00     0.123 A 
ATOM     27  F   UNL     1      31.853  29.575 -13.538  1.00  0.00    -0.207 F 
ENDBRANCH  18  21
ENDBRANCH   4  17
TORSDOF 4
ENDMDL
