MODEL 1
REMARK VINA RESULT:      -6.4      0.000      0.000
REMARK SMILES COC(=O)c1ccc(O)c2[nH]c3c(C=O)c(=O)cc(O)c-3nc12
REMARK SMILES IDX 5 1 6 2 7 3 8 4 10 5 11 6 12 7 13 8 16 9 17 10 18 11 19 12
REMARK SMILES IDX 21 13 22 14 23 15 3 17 4 18 2 19 1 20 9 21 20 23 14 25 15 26
REMARK H PARENT 11 16 9 22 20 24
ROOT
ATOM      1  C   UNL     1      24.183  17.202 -11.615  1.00  0.00     0.088 A 
ATOM      2  C   UNL     1      25.196  16.974 -12.563  1.00  0.00     0.022 A 
ATOM      3  C   UNL     1      26.404  17.667 -12.493  1.00  0.00     0.049 A 
ATOM      4  C   UNL     1      26.599  18.584 -11.465  1.00  0.00     0.141 A 
ATOM      5  C   UNL     1      25.606  18.810 -10.499  1.00  0.00     0.108 A 
ATOM      6  N   UNL     1      25.829  19.725  -9.456  1.00  0.00    -0.348 N 
ATOM      7  C   UNL     1      24.902  19.970  -8.469  1.00  0.00     0.083 C 
ATOM      8  C   UNL     1      25.027  20.821  -7.434  1.00  0.00     0.088 C 
ATOM      9  C   UNL     1      23.952  20.993  -6.432  1.00  0.00     0.195 C 
ATOM     10  O   UNL     1      24.072  21.769  -5.489  1.00  0.00    -0.289 OA
ATOM     11  C   UNL     1      22.718  20.212  -6.585  1.00  0.00     0.101 C 
ATOM     12  C   UNL     1      22.567  19.363  -7.598  1.00  0.00     0.147 C 
ATOM     13  C   UNL     1      23.635  19.166  -8.614  1.00  0.00     0.130 C 
ATOM     14  N   UNL     1      23.388  18.305  -9.564  1.00  0.00    -0.240 NA
ATOM     15  C   UNL     1      24.379  18.109 -10.560  1.00  0.00     0.106 A 
ATOM     16  H   UNL     1      26.725  20.221  -9.441  1.00  0.00     0.167 HD
ENDROOT
BRANCH   1  17
ATOM     17  C   UNL     1      22.941  16.417 -11.769  1.00  0.00     0.340 C 
ATOM     18  O   UNL     1      22.535  15.646 -10.914  1.00  0.00    -0.246 OA
BRANCH  17  19
ATOM     19  O   UNL     1      22.407  16.599 -13.003  1.00  0.00    -0.465 OA
ATOM     20  C   UNL     1      21.991  17.940 -13.261  1.00  0.00     0.282 C 
ENDBRANCH  17  19
ENDBRANCH   1  17
BRANCH   4  21
ATOM     21  O   UNL     1      27.771  19.283 -11.364  1.00  0.00    -0.506 OA
ATOM     22  H   UNL     1      27.631  20.061 -10.798  1.00  0.00     0.293 HD
ENDBRANCH   4  21
BRANCH  12  23
ATOM     23  O   UNL     1      21.404  18.631  -7.751  1.00  0.00    -0.505 OA
ATOM     24  H   UNL     1      20.682  19.283  -7.604  1.00  0.00     0.293 HD
ENDBRANCH  12  23
BRANCH   8  25
ATOM     25  C   UNL     1      26.273  21.619  -7.279  1.00  0.00     0.266 C 
ATOM     26  O   UNL     1      26.379  22.796  -7.609  1.00  0.00    -0.298 OA
ENDBRANCH   8  25
TORSDOF 5
ENDMDL
MODEL 2
REMARK VINA RESULT:      -6.2      1.894      5.938
REMARK SMILES COC(=O)c1ccc(O)c2[nH]c3c(C=O)c(=O)cc(O)c-3nc12
REMARK SMILES IDX 5 1 6 2 7 3 8 4 10 5 11 6 12 7 13 8 16 9 17 10 18 11 19 12
REMARK SMILES IDX 21 13 22 14 23 15 3 17 4 18 2 19 1 20 9 21 20 23 14 25 15 26
REMARK H PARENT 11 16 9 22 20 24
ROOT
ATOM      1  C   UNL     1      23.501  20.611  -5.139  1.00  0.00     0.088 A 
ATOM      2  C   UNL     1      24.349  21.487  -4.440  1.00  0.00     0.022 A 
ATOM      3  C   UNL     1      25.571  21.880  -4.986  1.00  0.00     0.049 A 
ATOM      4  C   UNL     1      25.937  21.399  -6.238  1.00  0.00     0.141 A 
ATOM      5  C   UNL     1      25.095  20.538  -6.958  1.00  0.00     0.108 A 
ATOM      6  N   UNL     1      25.473  20.079  -8.232  1.00  0.00    -0.348 N 
ATOM      7  C   UNL     1      24.678  19.253  -8.992  1.00  0.00     0.083 C 
ATOM      8  C   UNL     1      24.953  18.766 -10.216  1.00  0.00     0.088 C 
ATOM      9  C   UNL     1      24.008  17.884 -10.935  1.00  0.00     0.195 C 
ATOM     10  O   UNL     1      24.262  17.446 -12.053  1.00  0.00    -0.289 OA
ATOM     11  C   UNL     1      22.740  17.533 -10.283  1.00  0.00     0.101 C 
ATOM     12  C   UNL     1      22.442  18.000  -9.073  1.00  0.00     0.147 C 
ATOM     13  C   UNL     1      23.371  18.893  -8.332  1.00  0.00     0.130 C 
ATOM     14  N   UNL     1      22.980  19.299  -7.155  1.00  0.00    -0.240 NA
ATOM     15  C   UNL     1      23.852  20.137  -6.414  1.00  0.00     0.106 A 
ATOM     16  H   UNL     1      26.380  20.382  -8.596  1.00  0.00     0.167 HD
ENDROOT
BRANCH   1  17
ATOM     17  C   UNL     1      22.226  20.255  -4.482  1.00  0.00     0.340 C 
ATOM     18  O   UNL     1      21.236  20.968  -4.529  1.00  0.00    -0.246 OA
BRANCH  17  19
ATOM     19  O   UNL     1      22.360  19.117  -3.757  1.00  0.00    -0.465 OA
ATOM     20  C   UNL     1      21.395  18.114  -4.072  1.00  0.00     0.282 C 
ENDBRANCH  17  19
ENDBRANCH   1  17
BRANCH   4  21
ATOM     21  O   UNL     1      27.129  21.762  -6.806  1.00  0.00    -0.506 OA
ATOM     22  H   UNL     1      27.370  22.653  -6.500  1.00  0.00     0.293 HD
ENDBRANCH   4  21
BRANCH  12  23
ATOM     23  O   UNL     1      21.253  17.665  -8.450  1.00  0.00    -0.505 OA
ATOM     24  H   UNL     1      21.225  18.237  -7.650  1.00  0.00     0.293 HD
ENDBRANCH  12  23
BRANCH   8  25
ATOM     25  C   UNL     1      26.238  19.116 -10.879  1.00  0.00     0.266 C 
ATOM     26  O   UNL     1      26.531  20.249 -11.249  1.00  0.00    -0.298 OA
ENDBRANCH   8  25
TORSDOF 5
ENDMDL
MODEL 3
REMARK VINA RESULT:      -6.1      1.165      6.638
REMARK SMILES COC(=O)c1ccc(O)c2[nH]c3c(C=O)c(=O)cc(O)c-3nc12
REMARK SMILES IDX 5 1 6 2 7 3 8 4 10 5 11 6 12 7 13 8 16 9 17 10 18 11 19 12
REMARK SMILES IDX 21 13 22 14 23 15 3 17 4 18 2 19 1 20 9 21 20 23 14 25 15 26
REMARK H PARENT 11 16 9 22 20 24
ROOT
ATOM      1  C   UNL     1      24.535  21.256  -7.309  1.00  0.00     0.088 A 
ATOM      2  C   UNL     1      23.580  21.388  -6.285  1.00  0.00     0.022 A 
ATOM      3  C   UNL     1      22.472  20.544  -6.236  1.00  0.00     0.049 A 
ATOM      4  C   UNL     1      22.326  19.561  -7.209  1.00  0.00     0.141 A 
ATOM      5  C   UNL     1      23.279  19.402  -8.226  1.00  0.00     0.108 A 
ATOM      6  N   UNL     1      23.126  18.390  -9.189  1.00  0.00    -0.348 N 
ATOM      7  C   UNL     1      24.040  18.174 -10.194  1.00  0.00     0.083 C 
ATOM      8  C   UNL     1      23.979  17.232 -11.154  1.00  0.00     0.088 C 
ATOM      9  C   UNL     1      25.033  17.100 -12.184  1.00  0.00     0.195 C 
ATOM     10  O   UNL     1      24.975  16.238 -13.055  1.00  0.00    -0.289 OA
ATOM     11  C   UNL     1      26.169  18.030 -12.149  1.00  0.00     0.101 C 
ATOM     12  C   UNL     1      26.255  18.970 -11.212  1.00  0.00     0.147 C 
ATOM     13  C   UNL     1      25.213  19.120 -10.162  1.00  0.00     0.130 C 
ATOM     14  N   UNL     1      25.395  20.070  -9.286  1.00  0.00    -0.240 NA
ATOM     15  C   UNL     1      24.409  20.252  -8.283  1.00  0.00     0.106 A 
ATOM     16  H   UNL     1      22.295  17.795  -9.124  1.00  0.00     0.167 HD
ENDROOT
BRANCH   1  17
ATOM     17  C   UNL     1      25.678  22.193  -7.276  1.00  0.00     0.340 C 
ATOM     18  O   UNL     1      26.718  21.948  -6.685  1.00  0.00    -0.246 OA
BRANCH  17  19
ATOM     19  O   UNL     1      25.358  23.362  -7.884  1.00  0.00    -0.465 OA
ATOM     20  C   UNL     1      26.391  23.879  -8.722  1.00  0.00     0.282 C 
ENDBRANCH  17  19
ENDBRANCH   1  17
BRANCH   4  21
ATOM     21  O   UNL     1      21.250  18.714  -7.192  1.00  0.00    -0.506 OA
ATOM     22  H   UNL     1      21.259  18.203  -6.365  1.00  0.00     0.293 HD
ENDBRANCH   4  21
BRANCH  12  23
ATOM     23  O   UNL     1      27.318  19.854 -11.180  1.00  0.00    -0.505 OA
ATOM     24  H   UNL     1      26.969  20.674 -11.597  1.00  0.00     0.293 HD
ENDBRANCH  12  23
BRANCH   8  25
ATOM     25  C   UNL     1      22.827  16.291 -11.196  1.00  0.00     0.266 C 
ATOM     26  O   UNL     1      22.197  15.937 -10.204  1.00  0.00    -0.298 OA
ENDBRANCH   8  25
TORSDOF 5
ENDMDL
