MODEL 1
REMARK VINA RESULT:      -4.8      0.000      0.000
REMARK SMILES CC(=O)NCCCNCCCNCCCNC(=O)c1cccc2c(NCCCCNc3nc(N)nc(N)n3)c3ccccc3nc12
REMARK SMILES IDX 14 1 13 2 12 3 11 5 10 6 9 7 8 8 7 10 6 11 5 12 4 13 2 14
REMARK SMILES IDX 3 15 1 16 15 18 16 19 17 20 18 21 19 23 20 24 46 25 21 26
REMARK SMILES IDX 45 27 23 28 22 29 44 30 24 31 43 32 39 33 42 34 40 35 41 36
REMARK SMILES IDX 25 37 26 39 27 40 28 41 29 42 30 43 31 45 32 46 38 47 33 48
REMARK SMILES IDX 36 49 35 50 34 51 37 54
REMARK H PARENT 12 4 8 9 4 17 16 22 25 38 30 44 34 52 34 53 37 55 37 56
ROOT
ATOM      1  C   UNL     1      27.598  12.483 -26.901  1.00  0.00     0.036 C 
ENDROOT
BRANCH   1   2
ATOM      2  C   UNL     1      28.759  12.789 -25.946  1.00  0.00     0.082 C 
BRANCH   2   3
ATOM      3  N   UNL     1      28.370  12.551 -24.561  1.00  0.00    -0.317 NA
ATOM      4  H   UNL     1      27.737  13.295 -24.264  1.00  0.00     0.122 HD
BRANCH   3   5
ATOM      5  C   UNL     1      29.477  12.422 -23.619  1.00  0.00     0.082 C 
BRANCH   5   6
ATOM      6  C   UNL     1      30.872  12.511 -24.251  1.00  0.00     0.030 C 
BRANCH   6   7
ATOM      7  C   UNL     1      32.025  12.133 -23.312  1.00  0.00     0.082 C 
BRANCH   7   8
ATOM      8  N   UNL     1      32.640  10.858 -23.695  1.00  0.00    -0.317 NA
ATOM      9  H   UNL     1      33.625  11.036 -23.899  1.00  0.00     0.122 HD
BRANCH   8  10
ATOM     10  C   UNL     1      32.011  10.265 -24.879  1.00  0.00     0.082 C 
BRANCH  10  11
ATOM     11  C   UNL     1      31.486   8.830 -24.700  1.00  0.00     0.036 C 
BRANCH  11  12
ATOM     12  C   UNL     1      30.300   8.698 -23.748  1.00  0.00     0.117 C 
BRANCH  12  13
ATOM     13  N   UNL     1      30.667   8.903 -22.364  1.00  0.00    -0.356 N 
ATOM     14  C   UNL     1      31.106   7.888 -21.547  1.00  0.00     0.216 C 
ATOM     15  O   UNL     1      31.218   6.718 -21.898  1.00  0.00    -0.275 OA
ATOM     16  C   UNL     1      31.414   8.333 -20.144  1.00  0.00     0.114 C 
ATOM     17  H   UNL     1      30.695   9.864 -22.045  1.00  0.00     0.163 HD
ENDBRANCH  12  13
ENDBRANCH  11  12
ENDBRANCH  10  11
ENDBRANCH   8  10
ENDBRANCH   7   8
ENDBRANCH   6   7
ENDBRANCH   5   6
ENDBRANCH   3   5
ENDBRANCH   2   3
ENDBRANCH   1   2
BRANCH   1  18
ATOM     18  C   UNL     1      26.499  13.552 -26.948  1.00  0.00     0.117 C 
BRANCH  18  19
ATOM     19  N   UNL     1      25.218  13.163 -26.401  1.00  0.00    -0.352 N 
ATOM     20  C   UNL     1      24.942  13.196 -25.047  1.00  0.00     0.253 C 
ATOM     21  O   UNL     1      25.693  13.660 -24.200  1.00  0.00    -0.269 OA
ATOM     22  H   UNL     1      24.684  12.476 -26.926  1.00  0.00     0.163 HD
BRANCH  20  23
ATOM     23  C   UNL     1      23.586  12.718 -24.667  1.00  0.00     0.066 A 
ATOM     24  C   UNL     1      22.729  13.669 -24.092  1.00  0.00     0.016 A 
ATOM     25  C   UNL     1      23.184  11.395 -24.899  1.00  0.00     0.086 A 
ATOM     26  C   UNL     1      21.425  13.323 -23.779  1.00  0.00     0.002 A 
ATOM     27  N   UNL     1      24.045  10.487 -25.410  1.00  0.00    -0.247 NA
ATOM     28  C   UNL     1      21.858  11.047 -24.582  1.00  0.00     0.025 A 
ATOM     29  C   UNL     1      20.991  12.028 -24.043  1.00  0.00     0.012 A 
ATOM     30  C   UNL     1      23.691   9.200 -25.516  1.00  0.00     0.073 A 
ATOM     31  C   UNL     1      21.446   9.706 -24.813  1.00  0.00     0.053 A 
ATOM     32  C   UNL     1      24.659   8.296 -25.945  1.00  0.00     0.029 A 
ATOM     33  C   UNL     1      22.403   8.732 -25.210  1.00  0.00     0.024 A 
ATOM     34  C   UNL     1      24.404   6.930 -26.052  1.00  0.00     0.002 A 
ATOM     35  C   UNL     1      22.159   7.335 -25.300  1.00  0.00     0.012 A 
ATOM     36  C   UNL     1      23.149   6.446 -25.723  1.00  0.00     0.001 A 
BRANCH  31  37
ATOM     37  N   UNL     1      20.066   9.390 -24.623  1.00  0.00    -0.384 N 
ATOM     38  H   UNL     1      19.518  10.175 -24.988  1.00  0.00     0.160 HD
BRANCH  37  39
ATOM     39  C   UNL     1      19.662   9.120 -23.227  1.00  0.00     0.113 C 
BRANCH  39  40
ATOM     40  C   UNL     1      19.096   7.712 -23.016  1.00  0.00     0.023 C 
BRANCH  40  41
ATOM     41  C   UNL     1      17.889   7.674 -22.063  1.00  0.00     0.023 C 
BRANCH  41  42
ATOM     42  C   UNL     1      16.723   8.554 -22.521  1.00  0.00     0.116 C 
BRANCH  42  43
ATOM     43  N   UNL     1      16.428   9.543 -21.496  1.00  0.00    -0.354 N 
ATOM     44  H   UNL     1      16.722   9.266 -20.563  1.00  0.00     0.163 HD
BRANCH  43  45
ATOM     45  C   UNL     1      17.061  10.770 -21.719  1.00  0.00     0.229 A 
ATOM     46  N   UNL     1      18.018  11.180 -20.892  1.00  0.00    -0.177 NA
ATOM     47  N   UNL     1      16.646  11.449 -22.780  1.00  0.00    -0.177 NA
ATOM     48  C   UNL     1      18.549  12.354 -21.181  1.00  0.00     0.226 A 
ATOM     49  C   UNL     1      17.242  12.616 -22.969  1.00  0.00     0.226 A 
ATOM     50  N   UNL     1      18.207  13.114 -22.211  1.00  0.00    -0.177 NA
BRANCH  48  51
ATOM     51  N   UNL     1      19.568  12.813 -20.367  1.00  0.00    -0.368 N 
ATOM     52  H   UNL     1      19.719  13.796 -20.523  1.00  0.00     0.159 HD
ATOM     53  H   UNL     1      20.366  12.197 -20.430  1.00  0.00     0.159 HD
ENDBRANCH  48  51
BRANCH  49  54
ATOM     54  N   UNL     1      16.846  13.369 -24.052  1.00  0.00    -0.368 N 
ATOM     55  H   UNL     1      16.749  14.339 -23.791  1.00  0.00     0.159 HD
ATOM     56  H   UNL     1      17.410  13.165 -24.862  1.00  0.00     0.159 HD
ENDBRANCH  49  54
ENDBRANCH  43  45
ENDBRANCH  42  43
ENDBRANCH  41  42
ENDBRANCH  40  41
ENDBRANCH  39  40
ENDBRANCH  37  39
ENDBRANCH  31  37
ENDBRANCH  20  23
ENDBRANCH  18  19
ENDBRANCH   1  18
TORSDOF 22
ENDMDL
MODEL 2
REMARK VINA RESULT:      -4.8      3.919     10.558
REMARK SMILES CC(=O)NCCCNCCCNCCCNC(=O)c1cccc2c(NCCCCNc3nc(N)nc(N)n3)c3ccccc3nc12
REMARK SMILES IDX 14 1 13 2 12 3 11 5 10 6 9 7 8 8 7 10 6 11 5 12 4 13 2 14
REMARK SMILES IDX 3 15 1 16 15 18 16 19 17 20 18 21 19 23 20 24 46 25 21 26
REMARK SMILES IDX 45 27 23 28 22 29 44 30 24 31 43 32 39 33 42 34 40 35 41 36
REMARK SMILES IDX 25 37 26 39 27 40 28 41 29 42 30 43 31 45 32 46 38 47 33 48
REMARK SMILES IDX 36 49 35 50 34 51 37 54
REMARK H PARENT 12 4 8 9 4 17 16 22 25 38 30 44 34 52 34 53 37 55 37 56
ROOT
ATOM      1  C   UNL     1      12.872  11.243 -24.905  1.00  0.00     0.036 C 
ENDROOT
BRANCH   1   2
ATOM      2  C   UNL     1      12.677  10.990 -23.403  1.00  0.00     0.082 C 
BRANCH   2   3
ATOM      3  N   UNL     1      13.795  11.530 -22.638  1.00  0.00    -0.317 NA
ATOM      4  H   UNL     1      14.187  12.326 -23.142  1.00  0.00     0.122 HD
BRANCH   3   5
ATOM      5  C   UNL     1      14.845  10.569 -22.313  1.00  0.00     0.082 C 
BRANCH   5   6
ATOM      6  C   UNL     1      14.343   9.239 -21.735  1.00  0.00     0.030 C 
BRANCH   6   7
ATOM      7  C   UNL     1      15.402   8.435 -20.970  1.00  0.00     0.082 C 
BRANCH   7   8
ATOM      8  N   UNL     1      15.958   9.199 -19.848  1.00  0.00    -0.317 NA
ATOM      9  H   UNL     1      15.472  10.096 -19.811  1.00  0.00     0.122 HD
BRANCH   8  10
ATOM     10  C   UNL     1      17.395   9.444 -19.995  1.00  0.00     0.082 C 
BRANCH  10  11
ATOM     11  C   UNL     1      18.144   8.458 -20.908  1.00  0.00     0.036 C 
BRANCH  11  12
ATOM     12  C   UNL     1      19.007   9.113 -21.983  1.00  0.00     0.117 C 
BRANCH  12  13
ATOM     13  N   UNL     1      18.737   8.600 -23.309  1.00  0.00    -0.356 N 
ATOM     14  C   UNL     1      19.686   8.554 -24.302  1.00  0.00     0.216 C 
ATOM     15  O   UNL     1      20.840   8.950 -24.174  1.00  0.00    -0.275 OA
ATOM     16  C   UNL     1      19.174   7.996 -25.601  1.00  0.00     0.114 C 
ATOM     17  H   UNL     1      17.833   8.163 -23.445  1.00  0.00     0.163 HD
ENDBRANCH  12  13
ENDBRANCH  11  12
ENDBRANCH  10  11
ENDBRANCH   8  10
ENDBRANCH   7   8
ENDBRANCH   6   7
ENDBRANCH   5   6
ENDBRANCH   3   5
ENDBRANCH   2   3
ENDBRANCH   1   2
BRANCH   1  18
ATOM     18  C   UNL     1      13.712  12.478 -25.251  1.00  0.00     0.117 C 
BRANCH  18  19
ATOM     19  N   UNL     1      15.103  12.227 -25.560  1.00  0.00    -0.352 N 
ATOM     20  C   UNL     1      15.544  11.937 -26.837  1.00  0.00     0.253 C 
ATOM     21  O   UNL     1      14.840  11.978 -27.837  1.00  0.00    -0.269 OA
ATOM     22  H   UNL     1      15.676  11.842 -24.814  1.00  0.00     0.163 HD
BRANCH  20  23
ATOM     23  C   UNL     1      17.002  11.666 -26.955  1.00  0.00     0.066 A 
ATOM     24  C   UNL     1      17.440  11.139 -28.179  1.00  0.00     0.016 A 
ATOM     25  C   UNL     1      17.886  11.949 -25.905  1.00  0.00     0.086 A 
ATOM     26  C   UNL     1      18.792  10.929 -28.395  1.00  0.00     0.002 A 
ATOM     27  N   UNL     1      17.431  12.412 -24.718  1.00  0.00    -0.247 NA
ATOM     28  C   UNL     1      19.259  11.737 -26.128  1.00  0.00     0.025 A 
ATOM     29  C   UNL     1      19.692  11.247 -27.383  1.00  0.00     0.012 A 
ATOM     30  C   UNL     1      18.267  12.565 -23.684  1.00  0.00     0.073 A 
ATOM     31  C   UNL     1      20.160  12.021 -25.066  1.00  0.00     0.053 A 
ATOM     32  C   UNL     1      17.719  12.937 -22.459  1.00  0.00     0.029 A 
ATOM     33  C   UNL     1      19.653  12.363 -23.782  1.00  0.00     0.024 A 
ATOM     34  C   UNL     1      18.497  13.086 -21.312  1.00  0.00     0.002 A 
ATOM     35  C   UNL     1      20.434  12.494 -22.602  1.00  0.00     0.012 A 
ATOM     36  C   UNL     1      19.861  12.859 -21.382  1.00  0.00     0.001 A 
BRANCH  31  37
ATOM     37  N   UNL     1      21.560  11.938 -25.338  1.00  0.00    -0.384 N 
ATOM     38  H   UNL     1      22.042  11.826 -24.441  1.00  0.00     0.160 HD
BRANCH  37  39
ATOM     39  C   UNL     1      22.137  13.091 -26.061  1.00  0.00     0.113 C 
BRANCH  39  40
ATOM     40  C   UNL     1      23.438  13.611 -25.442  1.00  0.00     0.023 C 
BRANCH  40  41
ATOM     41  C   UNL     1      23.761  12.982 -24.075  1.00  0.00     0.023 C 
BRANCH  41  42
ATOM     42  C   UNL     1      24.980  12.057 -24.103  1.00  0.00     0.116 C 
BRANCH  42  43
ATOM     43  N   UNL     1      25.293  11.707 -25.480  1.00  0.00    -0.354 N 
ATOM     44  H   UNL     1      26.237  11.958 -25.762  1.00  0.00     0.163 HD
BRANCH  43  45
ATOM     45  C   UNL     1      25.199  10.335 -25.733  1.00  0.00     0.229 A 
ATOM     46  N   UNL     1      24.006   9.747 -25.757  1.00  0.00    -0.177 NA
ATOM     47  N   UNL     1      26.348   9.707 -25.943  1.00  0.00    -0.177 NA
ATOM     48  C   UNL     1      24.021   8.449 -25.996  1.00  0.00     0.226 A 
ATOM     49  C   UNL     1      26.245   8.406 -26.164  1.00  0.00     0.226 A 
ATOM     50  N   UNL     1      25.110   7.726 -26.215  1.00  0.00    -0.177 NA
BRANCH  48  51
ATOM     51  N   UNL     1      22.805   7.795 -26.059  1.00  0.00    -0.368 N 
ATOM     52  H   UNL     1      22.943   6.830 -26.312  1.00  0.00     0.159 HD
ATOM     53  H   UNL     1      22.148   8.336 -26.603  1.00  0.00     0.159 HD
ENDBRANCH  48  51
BRANCH  49  54
ATOM     54  N   UNL     1      27.407   7.699 -26.382  1.00  0.00    -0.368 N 
ATOM     55  H   UNL     1      27.763   7.329 -25.514  1.00  0.00     0.159 HD
ATOM     56  H   UNL     1      27.302   7.053 -27.149  1.00  0.00     0.159 HD
ENDBRANCH  49  54
ENDBRANCH  43  45
ENDBRANCH  42  43
ENDBRANCH  41  42
ENDBRANCH  40  41
ENDBRANCH  39  40
ENDBRANCH  37  39
ENDBRANCH  31  37
ENDBRANCH  20  23
ENDBRANCH  18  19
ENDBRANCH   1  18
TORSDOF 22
ENDMDL
MODEL 3
REMARK VINA RESULT:      -4.8      3.218     11.953
REMARK SMILES CC(=O)NCCCNCCCNCCCNC(=O)c1cccc2c(NCCCCNc3nc(N)nc(N)n3)c3ccccc3nc12
REMARK SMILES IDX 14 1 13 2 12 3 11 5 10 6 9 7 8 8 7 10 6 11 5 12 4 13 2 14
REMARK SMILES IDX 3 15 1 16 15 18 16 19 17 20 18 21 19 23 20 24 46 25 21 26
REMARK SMILES IDX 45 27 23 28 22 29 44 30 24 31 43 32 39 33 42 34 40 35 41 36
REMARK SMILES IDX 25 37 26 39 27 40 28 41 29 42 30 43 31 45 32 46 38 47 33 48
REMARK SMILES IDX 36 49 35 50 34 51 37 54
REMARK H PARENT 12 4 8 9 4 17 16 22 25 38 30 44 34 52 34 53 37 55 37 56
ROOT
ATOM      1  C   UNL     1      22.388   8.991 -24.806  1.00  0.00     0.036 C 
ENDROOT
BRANCH   1   2
ATOM      2  C   UNL     1      21.172   9.183 -23.889  1.00  0.00     0.082 C 
BRANCH   2   3
ATOM      3  N   UNL     1      20.631  10.530 -24.019  1.00  0.00    -0.317 NA
ATOM      4  H   UNL     1      21.159  11.030 -24.737  1.00  0.00     0.122 HD
BRANCH   3   5
ATOM      5  C   UNL     1      20.598  11.307 -22.783  1.00  0.00     0.082 C 
BRANCH   5   6
ATOM      6  C   UNL     1      19.982  10.577 -21.582  1.00  0.00     0.030 C 
BRANCH   6   7
ATOM      7  C   UNL     1      18.465  10.365 -21.673  1.00  0.00     0.082 C 
BRANCH   7   8
ATOM      8  N   UNL     1      17.757  11.049 -20.585  1.00  0.00    -0.317 NA
ATOM      9  H   UNL     1      17.316  10.335 -20.004  1.00  0.00     0.122 HD
BRANCH   8  10
ATOM     10  C   UNL     1      16.724  11.964 -21.078  1.00  0.00     0.082 C 
BRANCH  10  11
ATOM     11  C   UNL     1      15.286  11.420 -21.042  1.00  0.00     0.036 C 
BRANCH  11  12
ATOM     12  C   UNL     1      14.639  11.234 -22.412  1.00  0.00     0.117 C 
BRANCH  12  13
ATOM     13  N   UNL     1      14.166  12.476 -22.983  1.00  0.00    -0.356 N 
ATOM     14  C   UNL     1      14.778  13.092 -24.049  1.00  0.00     0.216 C 
ATOM     15  O   UNL     1      15.781  12.665 -24.612  1.00  0.00    -0.275 OA
ATOM     16  C   UNL     1      14.120  14.380 -24.460  1.00  0.00     0.114 C 
ATOM     17  H   UNL     1      13.282  12.823 -22.630  1.00  0.00     0.163 HD
ENDBRANCH  12  13
ENDBRANCH  11  12
ENDBRANCH  10  11
ENDBRANCH   8  10
ENDBRANCH   7   8
ENDBRANCH   6   7
ENDBRANCH   5   6
ENDBRANCH   3   5
ENDBRANCH   2   3
ENDBRANCH   1   2
BRANCH   1  18
ATOM     18  C   UNL     1      22.707  10.184 -25.717  1.00  0.00     0.117 C 
BRANCH  18  19
ATOM     19  N   UNL     1      24.027  10.755 -25.566  1.00  0.00    -0.352 N 
ATOM     20  C   UNL     1      24.348  11.638 -24.552  1.00  0.00     0.253 C 
ATOM     21  O   UNL     1      23.601  11.931 -23.629  1.00  0.00    -0.269 OA
ATOM     22  H   UNL     1      24.582  10.859 -26.411  1.00  0.00     0.163 HD
BRANCH  20  23
ATOM     23  C   UNL     1      25.743  12.154 -24.583  1.00  0.00     0.066 A 
ATOM     24  C   UNL     1      25.892  13.537 -24.765  1.00  0.00     0.016 A 
ATOM     25  C   UNL     1      26.842  11.301 -24.411  1.00  0.00     0.086 A 
ATOM     26  C   UNL     1      27.154  14.106 -24.731  1.00  0.00     0.002 A 
ATOM     27  N   UNL     1      26.673   9.965 -24.285  1.00  0.00    -0.247 NA
ATOM     28  C   UNL     1      28.124  11.881 -24.374  1.00  0.00     0.025 A 
ATOM     29  C   UNL     1      28.256  13.284 -24.515  1.00  0.00     0.012 A 
ATOM     30  C   UNL     1      27.732   9.148 -24.242  1.00  0.00     0.073 A 
ATOM     31  C   UNL     1      29.242  11.021 -24.202  1.00  0.00     0.053 A 
ATOM     32  C   UNL     1      27.491   7.777 -24.225  1.00  0.00     0.029 A 
ATOM     33  C   UNL     1      29.058   9.611 -24.221  1.00  0.00     0.024 A 
ATOM     34  C   UNL     1      28.524   6.841 -24.220  1.00  0.00     0.002 A 
ATOM     35  C   UNL     1      30.103   8.650 -24.238  1.00  0.00     0.012 A 
ATOM     36  C   UNL     1      29.837   7.279 -24.231  1.00  0.00     0.001 A 
BRANCH  31  37
ATOM     37  N   UNL     1      30.526  11.623 -24.025  1.00  0.00    -0.384 N 
ATOM     38  H   UNL     1      31.229  10.937 -24.317  1.00  0.00     0.160 HD
BRANCH  37  39
ATOM     39  C   UNL     1      30.830  12.080 -22.653  1.00  0.00     0.113 C 
BRANCH  39  40
ATOM     40  C   UNL     1      30.586  11.011 -21.584  1.00  0.00     0.023 C 
BRANCH  40  41
ATOM     41  C   UNL     1      31.872  10.306 -21.118  1.00  0.00     0.023 C 
BRANCH  41  42
ATOM     42  C   UNL     1      31.927  10.079 -19.605  1.00  0.00     0.116 C 
BRANCH  42  43
ATOM     43  N   UNL     1      31.792  11.354 -18.917  1.00  0.00    -0.354 N 
ATOM     44  H   UNL     1      31.793  11.274 -17.903  1.00  0.00     0.163 HD
BRANCH  43  45
ATOM     45  C   UNL     1      32.831  12.246 -19.204  1.00  0.00     0.229 A 
ATOM     46  N   UNL     1      34.094  11.837 -19.125  1.00  0.00    -0.177 NA
ATOM     47  N   UNL     1      32.459  13.471 -19.551  1.00  0.00    -0.177 NA
ATOM     48  C   UNL     1      35.002  12.754 -19.407  1.00  0.00     0.226 A 
ATOM     49  C   UNL     1      33.452  14.309 -19.804  1.00  0.00     0.226 A 
ATOM     50  N   UNL     1      34.740  14.004 -19.760  1.00  0.00    -0.177 NA
BRANCH  48  51
ATOM     51  N   UNL     1      36.330  12.373 -19.367  1.00  0.00    -0.368 N 
ATOM     52  H   UNL     1      36.568  12.045 -18.446  1.00  0.00     0.159 HD
ATOM     53  H   UNL     1      36.909  13.091 -19.778  1.00  0.00     0.159 HD
ENDBRANCH  48  51
BRANCH  49  54
ATOM     54  N   UNL     1      33.127  15.598 -20.162  1.00  0.00    -0.368 N 
ATOM     55  H   UNL     1      33.136  15.698 -21.166  1.00  0.00     0.159 HD
ATOM     56  H   UNL     1      32.302  15.914 -19.676  1.00  0.00     0.159 HD
ENDBRANCH  49  54
ENDBRANCH  43  45
ENDBRANCH  42  43
ENDBRANCH  41  42
ENDBRANCH  40  41
ENDBRANCH  39  40
ENDBRANCH  37  39
ENDBRANCH  31  37
ENDBRANCH  20  23
ENDBRANCH  18  19
ENDBRANCH   1  18
TORSDOF 22
ENDMDL
