MODEL 1
REMARK VINA RESULT:      -7.3      0.000      0.000
REMARK SMILES CC(=O)c1ccc(-c2ccc3oc(C(=O)c4cc(O)c(O)c(O)c4)cc3c2)cc1
REMARK SMILES IDX 8 1 9 2 10 3 11 4 12 5 13 6 25 7 26 8 27 9 7 10 4 11 5 12
REMARK SMILES IDX 29 13 6 14 28 15 2 16 3 17 1 18 14 19 15 20 16 21 17 22
REMARK SMILES IDX 24 23 18 24 22 25 20 26 19 27 23 29 21 31
REMARK H PARENT 19 28 23 30 21 32
ROOT
ATOM      1  C   UNL     1      24.042  12.318 -24.093  1.00  0.00    -0.018 A 
ATOM      2  C   UNL     1      23.284  13.470 -24.375  1.00  0.00     0.012 A 
ATOM      3  C   UNL     1      21.884  13.450 -24.422  1.00  0.00     0.048 A 
ATOM      4  C   UNL     1      21.275  12.224 -24.176  1.00  0.00     0.135 A 
ATOM      5  O   UNL     1      19.936  11.995 -24.170  1.00  0.00    -0.453 OA
ATOM      6  C   UNL     1      19.742  10.669 -23.890  1.00  0.00     0.176 A 
ATOM      7  C   UNL     1      20.972  10.058 -23.707  1.00  0.00     0.063 A 
ATOM      8  C   UNL     1      21.965  11.056 -23.896  1.00  0.00     0.022 A 
ATOM      9  C   UNL     1      23.372  11.099 -23.851  1.00  0.00     0.020 A 
ENDROOT
BRANCH   1  10
ATOM     10  C   UNL     1      25.513  12.380 -24.047  1.00  0.00    -0.018 A 
ATOM     11  C   UNL     1      28.341  12.492 -23.961  1.00  0.00     0.017 A 
ATOM     12  C   UNL     1      27.665  11.369 -23.476  1.00  0.00     0.012 A 
ATOM     13  C   UNL     1      27.603  13.558 -24.488  1.00  0.00     0.012 A 
ATOM     14  C   UNL     1      26.266  11.318 -23.520  1.00  0.00     0.009 A 
ATOM     15  C   UNL     1      26.205  13.501 -24.530  1.00  0.00     0.009 A 
BRANCH  11  16
ATOM     16  C   UNL     1      29.831  12.600 -23.940  1.00  0.00     0.159 C 
ATOM     17  O   UNL     1      30.455  12.269 -22.933  1.00  0.00    -0.295 OA
ATOM     18  C   UNL     1      30.543  13.117 -25.162  1.00  0.00     0.093 C 
ENDBRANCH  11  16
ENDBRANCH   1  10
BRANCH   6  19
ATOM     19  C   UNL     1      18.377  10.187 -23.823  1.00  0.00     0.228 C 
ATOM     20  O   UNL     1      17.915   9.304 -24.543  1.00  0.00    -0.285 OA
BRANCH  19  21
ATOM     21  C   UNL     1      17.460  10.795 -22.828  1.00  0.00     0.033 A 
ATOM     22  C   UNL     1      17.509  10.335 -21.505  1.00  0.00     0.062 A 
ATOM     23  C   UNL     1      16.591  11.837 -23.199  1.00  0.00     0.062 A 
ATOM     24  C   UNL     1      16.656  10.898 -20.566  1.00  0.00     0.162 A 
ATOM     25  C   UNL     1      15.752  12.388 -22.236  1.00  0.00     0.162 A 
ATOM     26  C   UNL     1      15.782  11.915 -20.928  1.00  0.00     0.200 A 
BRANCH  24  27
ATOM     27  O   UNL     1      16.683  10.445 -19.280  1.00  0.00    -0.504 OA
ATOM     28  H   UNL     1      15.856   9.933 -19.175  1.00  0.00     0.293 HD
ENDBRANCH  24  27
BRANCH  25  29
ATOM     29  O   UNL     1      14.882  13.402 -22.524  1.00  0.00    -0.504 OA
ATOM     30  H   UNL     1      15.132  13.800 -23.376  1.00  0.00     0.293 HD
ENDBRANCH  25  29
BRANCH  26  31
ATOM     31  O   UNL     1      14.955  12.449 -19.976  1.00  0.00    -0.502 OA
ATOM     32  H   UNL     1      14.283  12.945 -20.486  1.00  0.00     0.293 HD
ENDBRANCH  26  31
ENDBRANCH  19  21
ENDBRANCH   6  19
TORSDOF 7
ENDMDL
MODEL 2
REMARK VINA RESULT:      -7.2      2.478      3.757
REMARK SMILES CC(=O)c1ccc(-c2ccc3oc(C(=O)c4cc(O)c(O)c(O)c4)cc3c2)cc1
REMARK SMILES IDX 8 1 9 2 10 3 11 4 12 5 13 6 25 7 26 8 27 9 7 10 4 11 5 12
REMARK SMILES IDX 29 13 6 14 28 15 2 16 3 17 1 18 14 19 15 20 16 21 17 22
REMARK SMILES IDX 24 23 18 24 22 25 20 26 19 27 23 29 21 31
REMARK H PARENT 19 28 23 30 21 32
ROOT
ATOM      1  C   UNL     1      22.226  13.237 -24.970  1.00  0.00    -0.018 A 
ATOM      2  C   UNL     1      21.411  12.508 -25.856  1.00  0.00     0.012 A 
ATOM      3  C   UNL     1      20.158  12.006 -25.477  1.00  0.00     0.048 A 
ATOM      4  C   UNL     1      19.758  12.266 -24.171  1.00  0.00     0.135 A 
ATOM      5  O   UNL     1      18.583  11.873 -23.613  1.00  0.00    -0.453 OA
ATOM      6  C   UNL     1      18.567  12.321 -22.319  1.00  0.00     0.176 A 
ATOM      7  C   UNL     1      19.740  13.011 -22.062  1.00  0.00     0.063 A 
ATOM      8  C   UNL     1      20.515  12.975 -23.252  1.00  0.00     0.022 A 
ATOM      9  C   UNL     1      21.769  13.472 -23.654  1.00  0.00     0.020 A 
ENDROOT
BRANCH   1  10
ATOM     10  C   UNL     1      23.535  13.753 -25.406  1.00  0.00    -0.018 A 
ATOM     11  C   UNL     1      26.047  14.750 -26.249  1.00  0.00     0.017 A 
ATOM     12  C   UNL     1      24.998  14.619 -27.163  1.00  0.00     0.012 A 
ATOM     13  C   UNL     1      25.839  14.382 -24.915  1.00  0.00     0.012 A 
ATOM     14  C   UNL     1      23.757  14.125 -26.743  1.00  0.00     0.009 A 
ATOM     15  C   UNL     1      24.597  13.890 -24.500  1.00  0.00     0.009 A 
BRANCH  11  16
ATOM     16  C   UNL     1      27.390  15.271 -26.643  1.00  0.00     0.159 C 
ATOM     17  O   UNL     1      28.402  14.629 -26.367  1.00  0.00    -0.295 OA
ATOM     18  C   UNL     1      27.478  16.586 -27.374  1.00  0.00     0.093 C 
ENDBRANCH  11  16
ENDBRANCH   1  10
BRANCH   6  19
ATOM     19  C   UNL     1      17.397  12.024 -21.518  1.00  0.00     0.228 C 
ATOM     20  O   UNL     1      16.507  12.831 -21.260  1.00  0.00    -0.285 OA
BRANCH  19  21
ATOM     21  C   UNL     1      17.251  10.658 -20.958  1.00  0.00     0.033 A 
ATOM     22  C   UNL     1      15.999  10.267 -20.464  1.00  0.00     0.062 A 
ATOM     23  C   UNL     1      18.338   9.763 -20.961  1.00  0.00     0.062 A 
ATOM     24  C   UNL     1      15.852   8.991 -19.939  1.00  0.00     0.162 A 
ATOM     25  C   UNL     1      18.161   8.488 -20.435  1.00  0.00     0.162 A 
ATOM     26  C   UNL     1      16.925   8.108 -19.921  1.00  0.00     0.200 A 
BRANCH  24  27
ATOM     27  O   UNL     1      14.642   8.607 -19.439  1.00  0.00    -0.504 OA
ATOM     28  H   UNL     1      14.285   9.406 -19.001  1.00  0.00     0.293 HD
ENDBRANCH  24  27
BRANCH  25  29
ATOM     29  O   UNL     1      19.170   7.568 -20.404  1.00  0.00    -0.504 OA
ATOM     30  H   UNL     1      19.850   7.866 -19.774  1.00  0.00     0.293 HD
ENDBRANCH  25  29
BRANCH  26  31
ATOM     31  O   UNL     1      16.745   6.856 -19.398  1.00  0.00    -0.502 OA
ATOM     32  H   UNL     1      15.785   6.804 -19.210  1.00  0.00     0.293 HD
ENDBRANCH  26  31
ENDBRANCH  19  21
ENDBRANCH   6  19
TORSDOF 7
ENDMDL
MODEL 3
REMARK VINA RESULT:      -7.2      0.754      1.911
REMARK SMILES CC(=O)c1ccc(-c2ccc3oc(C(=O)c4cc(O)c(O)c(O)c4)cc3c2)cc1
REMARK SMILES IDX 8 1 9 2 10 3 11 4 12 5 13 6 25 7 26 8 27 9 7 10 4 11 5 12
REMARK SMILES IDX 29 13 6 14 28 15 2 16 3 17 1 18 14 19 15 20 16 21 17 22
REMARK SMILES IDX 24 23 18 24 22 25 20 26 19 27 23 29 21 31
REMARK H PARENT 19 28 23 30 21 32
ROOT
ATOM      1  C   UNL     1      24.483  12.388 -24.066  1.00  0.00    -0.018 A 
ATOM      2  C   UNL     1      23.751  13.551 -24.369  1.00  0.00     0.012 A 
ATOM      3  C   UNL     1      22.350  13.564 -24.410  1.00  0.00     0.048 A 
ATOM      4  C   UNL     1      21.714  12.359 -24.135  1.00  0.00     0.135 A 
ATOM      5  O   UNL     1      20.370  12.162 -24.120  1.00  0.00    -0.453 OA
ATOM      6  C   UNL     1      20.145  10.846 -23.811  1.00  0.00     0.176 A 
ATOM      7  C   UNL     1      21.361  10.211 -23.621  1.00  0.00     0.063 A 
ATOM      8  C   UNL     1      22.377  11.180 -23.834  1.00  0.00     0.022 A 
ATOM      9  C   UNL     1      23.784  11.190 -23.795  1.00  0.00     0.020 A 
ENDROOT
BRANCH   1  10
ATOM     10  C   UNL     1      25.955  12.416 -24.027  1.00  0.00    -0.018 A 
ATOM     11  C   UNL     1      28.785  12.476 -23.954  1.00  0.00     0.017 A 
ATOM     12  C   UNL     1      28.089  13.199 -24.926  1.00  0.00     0.012 A 
ATOM     13  C   UNL     1      28.065  11.724 -23.018  1.00  0.00     0.012 A 
ATOM     14  C   UNL     1      26.689  13.166 -24.960  1.00  0.00     0.009 A 
ATOM     15  C   UNL     1      26.666  11.695 -23.056  1.00  0.00     0.009 A 
BRANCH  11  16
ATOM     16  C   UNL     1      30.276  12.476 -23.871  1.00  0.00     0.159 C 
ATOM     17  O   UNL     1      30.836  11.964 -22.904  1.00  0.00    -0.295 OA
ATOM     18  C   UNL     1      31.069  13.111 -24.983  1.00  0.00     0.093 C 
ENDBRANCH  11  16
ENDBRANCH   1  10
BRANCH   6  19
ATOM     19  C   UNL     1      18.769  10.399 -23.729  1.00  0.00     0.228 C 
ATOM     20  O   UNL     1      18.169   9.826 -24.636  1.00  0.00    -0.285 OA
BRANCH  19  21
ATOM     21  C   UNL     1      18.019  10.646 -22.474  1.00  0.00     0.033 A 
ATOM     22  C   UNL     1      17.145  11.742 -22.422  1.00  0.00     0.062 A 
ATOM     23  C   UNL     1      18.151   9.776 -21.377  1.00  0.00     0.062 A 
ATOM     24  C   UNL     1      16.438  11.982 -21.253  1.00  0.00     0.162 A 
ATOM     25  C   UNL     1      17.425  10.036 -20.220  1.00  0.00     0.162 A 
ATOM     26  C   UNL     1      16.577  11.138 -20.158  1.00  0.00     0.200 A 
BRANCH  24  27
ATOM     27  O   UNL     1      15.600  13.056 -21.185  1.00  0.00    -0.504 OA
ATOM     28  H   UNL     1      15.985  13.634 -20.496  1.00  0.00     0.293 HD
ENDBRANCH  24  27
BRANCH  25  29
ATOM     29  O   UNL     1      17.504   9.235 -19.116  1.00  0.00    -0.504 OA
ATOM     30  H   UNL     1      18.183   8.554 -19.268  1.00  0.00     0.293 HD
ENDBRANCH  25  29
BRANCH  26  31
ATOM     31  O   UNL     1      15.863  11.402 -19.021  1.00  0.00    -0.502 OA
ATOM     32  H   UNL     1      15.868  12.379 -18.949  1.00  0.00     0.293 HD
ENDBRANCH  26  31
ENDBRANCH  19  21
ENDBRANCH   6  19
TORSDOF 7
ENDMDL
