MODEL 1
REMARK VINA RESULT:      -8.0      0.000      0.000
REMARK SMILES Cn1cc(C(=O)O)c(=O)c2cc(N)c(N3CCN(c4ccccn4)CC3)cc21
REMARK SMILES IDX 1 1 2 2 3 3 4 4 8 5 9 6 10 7 11 8 12 9 14 10 27 11 28 12
REMARK SMILES IDX 5 13 6 14 7 15 15 17 16 18 26 19 17 20 25 21 18 22 19 23
REMARK SMILES IDX 20 24 24 25 21 26 23 27 22 28 13 29
REMARK H PARENT 7 16 13 30 13 31
ROOT
ATOM      1  C   UNL     1      22.548  16.912 -10.375  1.00  0.00     0.149 C 
ATOM      2  N   UNL     1      23.828  17.541 -10.704  1.00  0.00    -0.349 N 
ATOM      3  C   UNL     1      24.607  17.111 -11.765  1.00  0.00     0.105 C 
ATOM      4  C   UNL     1      25.797  17.607 -12.139  1.00  0.00     0.124 C 
ATOM      5  C   UNL     1      26.324  18.752 -11.356  1.00  0.00     0.204 C 
ATOM      6  O   UNL     1      27.369  19.331 -11.641  1.00  0.00    -0.288 OA
ATOM      7  C   UNL     1      25.522  19.218 -10.191  1.00  0.00     0.049 A 
ATOM      8  C   UNL     1      26.017  20.273  -9.410  1.00  0.00     0.042 A 
ATOM      9  C   UNL     1      25.287  20.773  -8.328  1.00  0.00     0.056 A 
ATOM     10  C   UNL     1      24.083  20.131  -7.966  1.00  0.00     0.062 A 
ATOM     11  C   UNL     1      23.602  19.074  -8.767  1.00  0.00     0.055 A 
ATOM     12  C   UNL     1      24.294  18.599  -9.892  1.00  0.00     0.054 A 
ENDROOT
BRANCH   4  13
ATOM     13  C   UNL     1      26.459  16.970 -13.286  1.00  0.00     0.341 C 
ATOM     14  O   UNL     1      27.128  17.548 -14.131  1.00  0.00    -0.246 OA
BRANCH  13  15
ATOM     15  O   UNL     1      26.242  15.652 -13.389  1.00  0.00    -0.477 OA
ATOM     16  H   UNL     1      25.337  15.515 -13.049  1.00  0.00     0.297 HD
ENDBRANCH  13  15
ENDBRANCH   4  13
BRANCH  10  17
ATOM     17  N   UNL     1      23.316  20.458  -6.839  1.00  0.00    -0.366 N 
ATOM     18  C   UNL     1      24.042  20.546  -5.555  1.00  0.00     0.138 C 
ATOM     19  C   UNL     1      21.955  19.887  -6.805  1.00  0.00     0.138 C 
ATOM     20  C   UNL     1      23.091  20.349  -4.359  1.00  0.00     0.139 C 
ATOM     21  C   UNL     1      21.749  18.772  -5.757  1.00  0.00     0.139 C 
ATOM     22  N   UNL     1      22.352  19.071  -4.436  1.00  0.00    -0.353 N 
BRANCH  22  23
ATOM     23  C   UNL     1      23.021  17.972  -3.874  1.00  0.00     0.128 A 
ATOM     24  C   UNL     1      22.425  16.709  -3.910  1.00  0.00     0.047 A 
ATOM     25  N   UNL     1      24.229  18.148  -3.295  1.00  0.00    -0.239 NA
ATOM     26  C   UNL     1      23.078  15.614  -3.347  1.00  0.00     0.005 A 
ATOM     27  C   UNL     1      24.842  17.074  -2.747  1.00  0.00     0.113 A 
ATOM     28  C   UNL     1      24.313  15.797  -2.750  1.00  0.00     0.020 A 
ENDBRANCH  22  23
ENDBRANCH  10  17
BRANCH   9  29
ATOM     29  N   UNL     1      25.885  21.757  -7.518  1.00  0.00    -0.397 N 
ATOM     30  H   UNL     1      25.309  22.582  -7.395  1.00  0.00     0.156 HD
ATOM     31  H   UNL     1      26.186  21.384  -6.620  1.00  0.00     0.156 HD
ENDBRANCH   9  29
TORSDOF 5
ENDMDL
MODEL 2
REMARK VINA RESULT:      -8.0      1.808      3.399
REMARK SMILES Cn1cc(C(=O)O)c(=O)c2cc(N)c(N3CCN(c4ccccn4)CC3)cc21
REMARK SMILES IDX 1 1 2 2 3 3 4 4 8 5 9 6 10 7 11 8 12 9 14 10 27 11 28 12
REMARK SMILES IDX 5 13 6 14 7 15 15 17 16 18 26 19 17 20 25 21 18 22 19 23
REMARK SMILES IDX 20 24 24 25 21 26 23 27 22 28 13 29
REMARK H PARENT 7 16 13 30 13 31
ROOT
ATOM      1  C   UNL     1      22.548  16.420 -10.885  1.00  0.00     0.149 C 
ATOM      2  N   UNL     1      23.786  17.188 -11.029  1.00  0.00    -0.349 N 
ATOM      3  C   UNL     1      24.688  16.942 -12.051  1.00  0.00     0.105 C 
ATOM      4  C   UNL     1      25.853  17.576 -12.260  1.00  0.00     0.124 C 
ATOM      5  C   UNL     1      26.201  18.672 -11.322  1.00  0.00     0.204 C 
ATOM      6  O   UNL     1      27.207  19.365 -11.450  1.00  0.00    -0.288 OA
ATOM      7  C   UNL     1      25.264  18.939 -10.197  1.00  0.00     0.049 A 
ATOM      8  C   UNL     1      25.590  19.942  -9.272  1.00  0.00     0.042 A 
ATOM      9  C   UNL     1      24.727  20.260  -8.219  1.00  0.00     0.056 A 
ATOM     10  C   UNL     1      23.563  19.482  -8.036  1.00  0.00     0.062 A 
ATOM     11  C   UNL     1      23.254  18.479  -8.979  1.00  0.00     0.055 A 
ATOM     12  C   UNL     1      24.080  18.189 -10.076  1.00  0.00     0.054 A 
ENDROOT
BRANCH   4  13
ATOM     13  C   UNL     1      26.666  17.125 -13.399  1.00  0.00     0.341 C 
ATOM     14  O   UNL     1      26.783  15.968 -13.774  1.00  0.00    -0.246 OA
BRANCH  13  15
ATOM     15  O   UNL     1      27.350  18.102 -14.012  1.00  0.00    -0.477 OA
ATOM     16  H   UNL     1      27.559  18.747 -13.310  1.00  0.00     0.297 HD
ENDBRANCH  13  15
ENDBRANCH   4  13
BRANCH  10  17
ATOM     17  N   UNL     1      22.676  19.618  -6.958  1.00  0.00    -0.366 N 
ATOM     18  C   UNL     1      22.007  20.929  -6.822  1.00  0.00     0.138 C 
ATOM     19  C   UNL     1      23.075  18.933  -5.713  1.00  0.00     0.138 C 
ATOM     20  C   UNL     1      21.530  21.166  -5.377  1.00  0.00     0.139 C 
ATOM     21  C   UNL     1      23.511  19.875  -4.570  1.00  0.00     0.139 C 
ATOM     22  N   UNL     1      22.632  21.058  -4.398  1.00  0.00    -0.353 N 
BRANCH  22  23
ATOM     23  C   UNL     1      23.346  22.247  -4.184  1.00  0.00     0.128 A 
ATOM     24  C   UNL     1      22.718  23.327  -3.559  1.00  0.00     0.047 A 
ATOM     25  N   UNL     1      24.631  22.340  -4.593  1.00  0.00    -0.239 NA
ATOM     26  C   UNL     1      23.416  24.515  -3.350  1.00  0.00     0.005 A 
ATOM     27  C   UNL     1      25.288  23.505  -4.389  1.00  0.00     0.113 A 
ATOM     28  C   UNL     1      24.730  24.610  -3.775  1.00  0.00     0.020 A 
ENDBRANCH  22  23
ENDBRANCH  10  17
BRANCH   9  29
ATOM     29  N   UNL     1      25.159  21.198  -7.262  1.00  0.00    -0.397 N 
ATOM     30  H   UNL     1      26.166  21.313  -7.238  1.00  0.00     0.156 HD
ATOM     31  H   UNL     1      24.691  22.096  -7.367  1.00  0.00     0.156 HD
ENDBRANCH   9  29
TORSDOF 5
ENDMDL
MODEL 3
REMARK VINA RESULT:      -7.8      2.670      5.039
REMARK SMILES Cn1cc(C(=O)O)c(=O)c2cc(N)c(N3CCN(c4ccccn4)CC3)cc21
REMARK SMILES IDX 1 1 2 2 3 3 4 4 8 5 9 6 10 7 11 8 12 9 14 10 27 11 28 12
REMARK SMILES IDX 5 13 6 14 7 15 15 17 16 18 26 19 17 20 25 21 18 22 19 23
REMARK SMILES IDX 20 24 24 25 21 26 23 27 22 28 13 29
REMARK H PARENT 7 16 13 30 13 31
ROOT
ATOM      1  C   UNL     1      25.723  20.349  -9.340  1.00  0.00     0.149 C 
ATOM      2  N   UNL     1      24.718  19.294  -9.485  1.00  0.00    -0.349 N 
ATOM      3  C   UNL     1      24.586  18.561 -10.651  1.00  0.00     0.105 C 
ATOM      4  C   UNL     1      23.692  17.588 -10.890  1.00  0.00     0.124 C 
ATOM      5  C   UNL     1      22.765  17.241  -9.784  1.00  0.00     0.204 C 
ATOM      6  O   UNL     1      21.948  16.327  -9.860  1.00  0.00    -0.288 OA
ATOM      7  C   UNL     1      22.864  18.033  -8.527  1.00  0.00     0.049 A 
ATOM      8  C   UNL     1      21.973  17.752  -7.481  1.00  0.00     0.042 A 
ATOM      9  C   UNL     1      22.048  18.439  -6.266  1.00  0.00     0.056 A 
ATOM     10  C   UNL     1      22.972  19.500  -6.142  1.00  0.00     0.062 A 
ATOM     11  C   UNL     1      23.860  19.764  -7.205  1.00  0.00     0.055 A 
ATOM     12  C   UNL     1      23.837  19.042  -8.409  1.00  0.00     0.054 A 
ENDROOT
BRANCH   4  13
ATOM     13  C   UNL     1      23.719  16.963 -12.220  1.00  0.00     0.341 C 
ATOM     14  O   UNL     1      24.727  16.668 -12.846  1.00  0.00    -0.246 OA
BRANCH  13  15
ATOM     15  O   UNL     1      22.510  16.762 -12.762  1.00  0.00    -0.477 OA
ATOM     16  H   UNL     1      21.919  17.397 -12.312  1.00  0.00     0.297 HD
ENDBRANCH  13  15
ENDBRANCH   4  13
BRANCH  10  17
ATOM     17  N   UNL     1      23.069  20.341  -5.024  1.00  0.00    -0.366 N 
ATOM     18  C   UNL     1      22.764  21.769  -5.251  1.00  0.00     0.138 C 
ATOM     19  C   UNL     1      24.161  20.027  -4.081  1.00  0.00     0.138 C 
ATOM     20  C   UNL     1      23.418  22.659  -4.176  1.00  0.00     0.139 C 
ATOM     21  C   UNL     1      25.322  21.045  -4.078  1.00  0.00     0.139 C 
ATOM     22  N   UNL     1      24.880  22.461  -4.098  1.00  0.00    -0.353 N 
BRANCH  22  23
ATOM     23  C   UNL     1      25.628  23.258  -4.978  1.00  0.00     0.128 A 
ATOM     24  C   UNL     1      26.136  22.700  -6.153  1.00  0.00     0.047 A 
ATOM     25  N   UNL     1      25.857  24.555  -4.676  1.00  0.00    -0.239 NA
ATOM     26  C   UNL     1      26.888  23.482  -7.029  1.00  0.00     0.005 A 
ATOM     27  C   UNL     1      26.596  25.295  -5.534  1.00  0.00     0.113 A 
ATOM     28  C   UNL     1      27.126  24.809  -6.714  1.00  0.00     0.020 A 
ENDBRANCH  22  23
ENDBRANCH  10  17
BRANCH   9  29
ATOM     29  N   UNL     1      21.059  18.189  -5.296  1.00  0.00    -0.397 N 
ATOM     30  H   UNL     1      20.122  18.417  -5.610  1.00  0.00     0.156 HD
ATOM     31  H   UNL     1      21.104  17.237  -4.939  1.00  0.00     0.156 HD
ENDBRANCH   9  29
TORSDOF 5
ENDMDL
