MODEL 1
REMARK VINA RESULT:      -9.2      0.000      0.000
REMARK SMILES N=C(N)c1ccc(-c2ccc(-c3ccc(-c4ccc(C(=N)N)cn4)o3)o2)nc1
REMARK SMILES IDX 8 1 9 2 10 3 11 4 26 5 7 6 4 7 5 8 28 9 6 10 27 11 2 12 1 13
REMARK SMILES IDX 3 14 12 18 13 19 25 20 14 21 15 22 16 23 17 24 24 25 18 26
REMARK SMILES IDX 23 27 19 28 20 29 21 30 22 31
REMARK H PARENT 1 15 3 16 3 17 21 32 22 33 22 34
ROOT
ATOM      1  C   UNL     1      27.204  25.670  -8.888  1.00  0.00     0.153 A 
ATOM      2  C   UNL     1      26.460  26.077  -7.798  1.00  0.00     0.053 A 
ATOM      3  C   UNL     1      25.924  24.903  -7.212  1.00  0.00     0.055 A 
ATOM      4  C   UNL     1      26.362  23.829  -7.968  1.00  0.00     0.170 A 
ATOM      5  O   UNL     1      27.142  24.308  -8.988  1.00  0.00    -0.451 OA
ENDROOT
BRANCH   1   6
ATOM      6  C   UNL     1      28.000  26.365  -9.898  1.00  0.00     0.106 A 
ATOM      7  C   UNL     1      29.554  27.573 -11.834  1.00  0.00     0.034 A 
ATOM      8  C   UNL     1      28.830  28.363 -10.944  1.00  0.00     0.016 A 
ATOM      9  C   UNL     1      29.436  26.196 -11.710  1.00  0.00     0.123 A 
ATOM     10  C   UNL     1      28.044  27.757  -9.963  1.00  0.00     0.033 A 
ATOM     11  N   UNL     1      28.689  25.579 -10.762  1.00  0.00    -0.252 NA
BRANCH   7  12
ATOM     12  C   UNL     1      30.406  28.194 -12.884  1.00  0.00     0.124 C 
ATOM     13  N   UNL     1      30.322  27.762 -14.099  1.00  0.00    -0.284 NA
ATOM     14  N   UNL     1      31.261  29.216 -12.584  1.00  0.00    -0.384 N 
ATOM     15  H   UNL     1      30.987  28.258 -14.696  1.00  0.00     0.189 HD
ATOM     16  H   UNL     1      31.589  29.759 -13.374  1.00  0.00     0.158 HD
ATOM     17  H   UNL     1      30.990  29.822 -11.814  1.00  0.00     0.158 HD
ENDBRANCH   7  12
ENDBRANCH   1   6
BRANCH   4  18
ATOM     18  C   UNL     1      26.100  22.430  -7.794  1.00  0.00     0.170 A 
ATOM     19  C   UNL     1      26.334  21.622  -6.693  1.00  0.00     0.055 A 
ATOM     20  O   UNL     1      25.537  21.664  -8.783  1.00  0.00    -0.451 OA
ATOM     21  C   UNL     1      25.897  20.319  -7.030  1.00  0.00     0.053 A 
ATOM     22  C   UNL     1      25.414  20.386  -8.320  1.00  0.00     0.153 A 
BRANCH  22  23
ATOM     23  C   UNL     1      24.830  19.411  -9.229  1.00  0.00     0.106 A 
ATOM     24  C   UNL     1      25.486  18.965 -10.374  1.00  0.00     0.033 A 
ATOM     25  N   UNL     1      23.597  18.971  -8.873  1.00  0.00    -0.252 NA
ATOM     26  C   UNL     1      24.854  18.033 -11.199  1.00  0.00     0.016 A 
ATOM     27  C   UNL     1      23.008  18.058  -9.690  1.00  0.00     0.123 A 
ATOM     28  C   UNL     1      23.582  17.572 -10.859  1.00  0.00     0.034 A 
BRANCH  28  29
ATOM     29  C   UNL     1      22.848  16.585 -11.697  1.00  0.00     0.124 C 
ATOM     30  N   UNL     1      22.314  15.552 -11.134  1.00  0.00    -0.284 NA
ATOM     31  N   UNL     1      22.724  16.764 -13.045  1.00  0.00    -0.384 N 
ATOM     32  H   UNL     1      21.879  14.954 -11.839  1.00  0.00     0.189 HD
ATOM     33  H   UNL     1      21.984  16.237 -13.492  1.00  0.00     0.158 HD
ATOM     34  H   UNL     1      22.738  17.725 -13.372  1.00  0.00     0.158 HD
ENDBRANCH  28  29
ENDBRANCH  22  23
ENDBRANCH   4  18
TORSDOF 5
ENDMDL
MODEL 2
REMARK VINA RESULT:      -9.2      0.527      9.745
REMARK SMILES N=C(N)c1ccc(-c2ccc(-c3ccc(-c4ccc(C(=N)N)cn4)o3)o2)nc1
REMARK SMILES IDX 8 1 9 2 10 3 11 4 26 5 7 6 4 7 5 8 28 9 6 10 27 11 2 12 1 13
REMARK SMILES IDX 3 14 12 18 13 19 25 20 14 21 15 22 16 23 17 24 24 25 18 26
REMARK SMILES IDX 23 27 19 28 20 29 21 30 22 31
REMARK H PARENT 1 15 3 16 3 17 21 32 22 33 22 34
ROOT
ATOM      1  C   UNL     1      25.289  20.379  -8.237  1.00  0.00     0.153 A 
ATOM      2  C   UNL     1      25.770  20.336  -6.943  1.00  0.00     0.053 A 
ATOM      3  C   UNL     1      26.246  21.637  -6.645  1.00  0.00     0.055 A 
ATOM      4  C   UNL     1      26.037  22.419  -7.768  1.00  0.00     0.170 A 
ATOM      5  O   UNL     1      25.453  21.642  -8.733  1.00  0.00    -0.451 OA
ENDROOT
BRANCH   1   6
ATOM      6  C   UNL     1      24.673  19.399  -9.130  1.00  0.00     0.106 A 
ATOM      7  C   UNL     1      23.422  17.532 -10.733  1.00  0.00     0.034 A 
ATOM      8  C   UNL     1      24.691  17.991 -11.077  1.00  0.00     0.016 A 
ATOM      9  C   UNL     1      22.835  18.063  -9.594  1.00  0.00     0.123 A 
ATOM     10  C   UNL     1      25.328  18.934 -10.268  1.00  0.00     0.033 A 
ATOM     11  N   UNL     1      23.433  18.972  -8.784  1.00  0.00    -0.252 NA
BRANCH   7  12
ATOM     12  C   UNL     1      22.725  16.521 -11.573  1.00  0.00     0.124 C 
ATOM     13  N   UNL     1      22.241  15.463 -11.011  1.00  0.00    -0.284 NA
ATOM     14  N   UNL     1      22.581  16.701 -12.920  1.00  0.00    -0.384 N 
ATOM     15  H   UNL     1      21.824  14.849 -11.713  1.00  0.00     0.189 HD
ATOM     16  H   UNL     1      21.873  16.128 -13.364  1.00  0.00     0.158 HD
ATOM     17  H   UNL     1      22.527  17.662 -13.244  1.00  0.00     0.158 HD
ENDBRANCH   7  12
ENDBRANCH   1   6
BRANCH   4  18
ATOM     18  C   UNL     1      26.343  23.804  -7.979  1.00  0.00     0.170 A 
ATOM     19  C   UNL     1      25.940  24.914  -7.254  1.00  0.00     0.055 A 
ATOM     20  O   UNL     1      27.141  24.227  -9.012  1.00  0.00    -0.451 OA
ATOM     21  C   UNL     1      26.515  26.050  -7.872  1.00  0.00     0.053 A 
ATOM     22  C   UNL     1      27.245  25.586  -8.947  1.00  0.00     0.153 A 
BRANCH  22  23
ATOM     23  C   UNL     1      28.060  26.232  -9.966  1.00  0.00     0.106 A 
ATOM     24  C   UNL     1      28.815  25.514 -10.890  1.00  0.00     0.033 A 
ATOM     25  N   UNL     1      28.025  27.588  -9.944  1.00  0.00    -0.252 NA
ATOM     26  C   UNL     1      29.576  26.209 -11.831  1.00  0.00     0.016 A 
ATOM     27  C   UNL     1      28.769  28.239 -10.876  1.00  0.00     0.123 A 
ATOM     28  C   UNL     1      29.564  27.604 -11.824  1.00  0.00     0.034 A 
BRANCH  28  29
ATOM     29  C   UNL     1      30.358  28.408 -12.793  1.00  0.00     0.124 C 
ATOM     30  N   UNL     1      30.820  29.557 -12.430  1.00  0.00    -0.284 NA
ATOM     31  N   UNL     1      30.609  27.941 -14.051  1.00  0.00    -0.384 N 
ATOM     32  H   UNL     1      31.310  30.001 -13.209  1.00  0.00     0.189 HD
ATOM     33  H   UNL     1      31.380  28.383 -14.538  1.00  0.00     0.158 HD
ATOM     34  H   UNL     1      30.640  26.931 -14.156  1.00  0.00     0.158 HD
ENDBRANCH  28  29
ENDBRANCH  22  23
ENDBRANCH   4  18
TORSDOF 5
ENDMDL
MODEL 3
REMARK VINA RESULT:      -9.2      0.524      1.103
REMARK SMILES N=C(N)c1ccc(-c2ccc(-c3ccc(-c4ccc(C(=N)N)cn4)o3)o2)nc1
REMARK SMILES IDX 8 1 9 2 10 3 11 4 26 5 7 6 4 7 5 8 28 9 6 10 27 11 2 12 1 13
REMARK SMILES IDX 3 14 12 18 13 19 25 20 14 21 15 22 16 23 17 24 24 25 18 26
REMARK SMILES IDX 23 27 19 28 20 29 21 30 22 31
REMARK H PARENT 1 15 3 16 3 17 21 32 22 33 22 34
ROOT
ATOM      1  C   UNL     1      27.213  25.602  -8.891  1.00  0.00     0.153 A 
ATOM      2  C   UNL     1      26.486  26.044  -7.804  1.00  0.00     0.053 A 
ATOM      3  C   UNL     1      25.915  24.894  -7.204  1.00  0.00     0.055 A 
ATOM      4  C   UNL     1      26.316  23.799  -7.950  1.00  0.00     0.170 A 
ATOM      5  O   UNL     1      27.107  24.243  -8.977  1.00  0.00    -0.451 OA
ENDROOT
BRANCH   1   6
ATOM      6  C   UNL     1      28.027  26.262  -9.910  1.00  0.00     0.106 A 
ATOM      7  C   UNL     1      29.517  27.614 -11.801  1.00  0.00     0.034 A 
ATOM      8  C   UNL     1      29.493  26.221 -11.814  1.00  0.00     0.016 A 
ATOM      9  C   UNL     1      28.795  28.258 -10.807  1.00  0.00     0.123 A 
ATOM     10  C   UNL     1      28.740  25.534 -10.861  1.00  0.00     0.033 A 
ATOM     11  N   UNL     1      28.046  27.618  -9.875  1.00  0.00    -0.252 NA
BRANCH   7  12
ATOM     12  C   UNL     1      30.305  28.372 -12.811  1.00  0.00     0.124 C 
ATOM     13  N   UNL     1      30.489  27.855 -13.981  1.00  0.00    -0.284 NA
ATOM     14  N   UNL     1      30.821  29.604 -12.523  1.00  0.00    -0.384 N 
ATOM     15  H   UNL     1      31.072  28.471 -14.551  1.00  0.00     0.189 HD
ATOM     16  H   UNL     1      31.093  30.162 -13.324  1.00  0.00     0.158 HD
ATOM     17  H   UNL     1      30.307  30.163 -11.848  1.00  0.00     0.158 HD
ENDBRANCH   7  12
ENDBRANCH   1   6
BRANCH   4  18
ATOM     18  C   UNL     1      26.010  22.411  -7.761  1.00  0.00     0.170 A 
ATOM     19  C   UNL     1      26.171  21.621  -6.634  1.00  0.00     0.055 A 
ATOM     20  O   UNL     1      25.476  21.638  -8.760  1.00  0.00    -0.451 OA
ATOM     21  C   UNL     1      25.718  20.322  -6.965  1.00  0.00     0.053 A 
ATOM     22  C   UNL     1      25.298  20.374  -8.277  1.00  0.00     0.153 A 
BRANCH  22  23
ATOM     23  C   UNL     1      24.733  19.394  -9.194  1.00  0.00     0.106 A 
ATOM     24  C   UNL     1      25.401  18.964 -10.339  1.00  0.00     0.033 A 
ATOM     25  N   UNL     1      23.507  18.932  -8.845  1.00  0.00    -0.252 NA
ATOM     26  C   UNL     1      24.787  18.026 -11.170  1.00  0.00     0.016 A 
ATOM     27  C   UNL     1      22.935  18.014  -9.669  1.00  0.00     0.123 A 
ATOM     28  C   UNL     1      23.521  17.543 -10.838  1.00  0.00     0.034 A 
BRANCH  28  29
ATOM     29  C   UNL     1      22.806  16.549 -11.683  1.00  0.00     0.124 C 
ATOM     30  N   UNL     1      22.750  16.731 -12.961  1.00  0.00    -0.284 NA
ATOM     31  N   UNL     1      22.221  15.448 -11.128  1.00  0.00    -0.384 N 
ATOM     32  H   UNL     1      22.200  15.989 -13.398  1.00  0.00     0.189 HD
ATOM     33  H   UNL     1      22.022  14.686 -11.766  1.00  0.00     0.158 HD
ATOM     34  H   UNL     1      22.637  15.105 -10.268  1.00  0.00     0.158 HD
ENDBRANCH  28  29
ENDBRANCH  22  23
ENDBRANCH   4  18
TORSDOF 5
ENDMDL
