MODEL 1
REMARK VINA RESULT:      -7.3      0.000      0.000
REMARK SMILES O=[N+]([O-])c1ccc2[nH]c(CCCc3nc4cc([N+](=O)[O-])ccc4[nH]3)nc2c1
REMARK SMILES IDX 11 1 10 2 9 3 4 4 5 5 27 6 6 7 26 8 7 9 25 10 8 11 2 13 1 14
REMARK SMILES IDX 3 15 12 16 13 17 14 18 24 19 15 20 23 21 16 22 22 23 17 24
REMARK SMILES IDX 21 25 18 27 19 28 20 29
REMARK H PARENT 8 12 24 26
ROOT
ATOM      1  C   UNL     1      22.157  18.366  -6.894  1.00  0.00     0.016 C 
ENDROOT
BRANCH   1   2
ATOM      2  C   UNL     1      21.774  19.708  -6.266  1.00  0.00     0.076 C 
BRANCH   2   3
ATOM      3  C   UNL     1      22.694  20.835  -6.621  1.00  0.00     0.107 A 
ATOM      4  C   UNL     1      25.746  23.975  -7.661  1.00  0.00     0.271 A 
ATOM      5  C   UNL     1      24.608  24.791  -7.755  1.00  0.00     0.088 A 
ATOM      6  C   UNL     1      25.653  22.614  -7.319  1.00  0.00     0.116 A 
ATOM      7  C   UNL     1      23.332  24.271  -7.511  1.00  0.00     0.035 A 
ATOM      8  C   UNL     1      24.376  22.092  -7.075  1.00  0.00     0.095 A 
ATOM      9  C   UNL     1      23.263  22.917  -7.175  1.00  0.00     0.066 A 
ATOM     10  N   UNL     1      24.009  20.814  -6.730  1.00  0.00    -0.233 NA
ATOM     11  N   UNL     1      22.205  22.095  -6.879  1.00  0.00    -0.342 N 
ATOM     12  H   UNL     1      21.232  22.365  -6.858  1.00  0.00     0.168 HD
BRANCH   4  13
ATOM     13  N   UNL     1      27.072  24.549  -7.926  1.00  0.00     0.062 N 
ATOM     14  O   UNL     1      27.135  25.526  -8.685  1.00  0.00    -0.258 OA
ATOM     15  O   UNL     1      28.048  24.023  -7.374  1.00  0.00    -0.258 OA
ENDBRANCH   4  13
ENDBRANCH   2   3
ENDBRANCH   1   2
BRANCH   1  16
ATOM     16  C   UNL     1      21.719  18.239  -8.359  1.00  0.00     0.076 C 
BRANCH  16  17
ATOM     17  C   UNL     1      22.877  18.214  -9.298  1.00  0.00     0.107 A 
ATOM     18  N   UNL     1      23.011  17.473 -10.378  1.00  0.00    -0.233 NA
ATOM     19  N   UNL     1      23.985  19.001  -9.102  1.00  0.00    -0.342 N 
ATOM     20  C   UNL     1      24.242  17.793 -10.895  1.00  0.00     0.095 A 
ATOM     21  C   UNL     1      24.876  18.751 -10.112  1.00  0.00     0.066 A 
ATOM     22  C   UNL     1      24.880  17.297 -12.038  1.00  0.00     0.116 A 
ATOM     23  C   UNL     1      26.141  19.270 -10.397  1.00  0.00     0.035 A 
ATOM     24  C   UNL     1      26.154  17.802 -12.346  1.00  0.00     0.271 A 
ATOM     25  C   UNL     1      26.776  18.773 -11.541  1.00  0.00     0.088 A 
ATOM     26  H   UNL     1      24.086  19.668  -8.343  1.00  0.00     0.168 HD
BRANCH  24  27
ATOM     27  N   UNL     1      26.849  17.304 -13.539  1.00  0.00     0.062 N 
ATOM     28  O   UNL     1      27.520  18.113 -14.197  1.00  0.00    -0.258 OA
ATOM     29  O   UNL     1      26.724  16.104 -13.824  1.00  0.00    -0.258 OA
ENDBRANCH  24  27
ENDBRANCH  16  17
ENDBRANCH   1  16
TORSDOF 6
ENDMDL
MODEL 2
REMARK VINA RESULT:      -7.3      0.347      6.641
REMARK SMILES O=[N+]([O-])c1ccc2[nH]c(CCCc3nc4cc([N+](=O)[O-])ccc4[nH]3)nc2c1
REMARK SMILES IDX 11 1 10 2 9 3 4 4 5 5 27 6 6 7 26 8 7 9 25 10 8 11 2 13 1 14
REMARK SMILES IDX 3 15 12 16 13 17 14 18 24 19 15 20 23 21 16 22 22 23 17 24
REMARK SMILES IDX 21 25 18 27 19 28 20 29
REMARK H PARENT 8 12 24 26
ROOT
ATOM      1  C   UNL     1      22.192  18.363  -6.616  1.00  0.00     0.016 C 
ENDROOT
BRANCH   1   2
ATOM      2  C   UNL     1      21.758  18.497  -8.078  1.00  0.00     0.076 C 
BRANCH   2   3
ATOM      3  C   UNL     1      22.879  18.383  -9.063  1.00  0.00     0.107 A 
ATOM      4  C   UNL     1      26.045  17.776 -12.205  1.00  0.00     0.271 A 
ATOM      5  C   UNL     1      26.702  18.781 -11.478  1.00  0.00     0.088 A 
ATOM      6  C   UNL     1      24.779  17.297 -11.824  1.00  0.00     0.116 A 
ATOM      7  C   UNL     1      26.112  19.345 -10.341  1.00  0.00     0.035 A 
ATOM      8  C   UNL     1      24.187  17.861 -10.686  1.00  0.00     0.095 A 
ATOM      9  C   UNL     1      24.854  18.855  -9.982  1.00  0.00     0.066 A 
ATOM     10  N   UNL     1      22.973  17.579 -10.105  1.00  0.00    -0.233 NA
ATOM     11  N   UNL     1      24.003  19.169  -8.953  1.00  0.00    -0.342 N 
ATOM     12  H   UNL     1      24.169  19.863  -8.237  1.00  0.00     0.168 HD
BRANCH   4  13
ATOM     13  N   UNL     1      26.689  17.206 -13.396  1.00  0.00     0.062 N 
ATOM     14  O   UNL     1      27.353  17.969 -14.112  1.00  0.00    -0.258 OA
ATOM     15  O   UNL     1      26.530  15.997 -13.613  1.00  0.00    -0.258 OA
ENDBRANCH   4  13
ENDBRANCH   2   3
ENDBRANCH   1   2
BRANCH   1  16
ATOM     16  C   UNL     1      22.017  19.660  -5.814  1.00  0.00     0.076 C 
BRANCH  16  17
ATOM     17  C   UNL     1      22.923  20.746  -6.285  1.00  0.00     0.107 A 
ATOM     18  N   UNL     1      24.237  20.705  -6.373  1.00  0.00    -0.233 NA
ATOM     19  N   UNL     1      22.442  21.969  -6.682  1.00  0.00    -0.342 N 
ATOM     20  C   UNL     1      24.614  21.939  -6.842  1.00  0.00     0.095 A 
ATOM     21  C   UNL     1      23.505  22.754  -7.046  1.00  0.00     0.066 A 
ATOM     22  C   UNL     1      25.895  22.429  -7.118  1.00  0.00     0.116 A 
ATOM     23  C   UNL     1      23.584  24.064  -7.522  1.00  0.00     0.035 A 
ATOM     24  C   UNL     1      26.002  23.745  -7.598  1.00  0.00     0.271 A 
ATOM     25  C   UNL     1      24.867  24.551  -7.797  1.00  0.00     0.088 A 
ATOM     26  H   UNL     1      21.457  22.213  -6.718  1.00  0.00     0.168 HD
BRANCH  24  27
ATOM     27  N   UNL     1      27.333  24.288  -7.898  1.00  0.00     0.062 N 
ATOM     28  O   UNL     1      28.222  24.142  -7.046  1.00  0.00    -0.258 OA
ATOM     29  O   UNL     1      27.492  24.864  -8.984  1.00  0.00    -0.258 OA
ENDBRANCH  24  27
ENDBRANCH  16  17
ENDBRANCH   1  16
TORSDOF 6
ENDMDL
MODEL 3
REMARK VINA RESULT:      -7.3      0.989      6.644
REMARK SMILES O=[N+]([O-])c1ccc2[nH]c(CCCc3nc4cc([N+](=O)[O-])ccc4[nH]3)nc2c1
REMARK SMILES IDX 11 1 10 2 9 3 4 4 5 5 27 6 6 7 26 8 7 9 25 10 8 11 2 13 1 14
REMARK SMILES IDX 3 15 12 16 13 17 14 18 24 19 15 20 23 21 16 22 22 23 17 24
REMARK SMILES IDX 21 25 18 27 19 28 20 29
REMARK H PARENT 8 12 24 26
ROOT
ATOM      1  C   UNL     1      21.879  17.565  -6.992  1.00  0.00     0.016 C 
ENDROOT
BRANCH   1   2
ATOM      2  C   UNL     1      21.579  18.122  -8.386  1.00  0.00     0.076 C 
BRANCH   2   3
ATOM      3  C   UNL     1      22.734  18.048  -9.336  1.00  0.00     0.107 A 
ATOM      4  C   UNL     1      26.018  17.547 -12.373  1.00  0.00     0.271 A 
ATOM      5  C   UNL     1      26.603  18.596 -11.646  1.00  0.00     0.088 A 
ATOM      6  C   UNL     1      24.767  17.013 -12.020  1.00  0.00     0.116 A 
ATOM      7  C   UNL     1      25.952  19.149 -10.536  1.00  0.00     0.035 A 
ATOM      8  C   UNL     1      24.114  17.565 -10.910  1.00  0.00     0.095 A 
ATOM      9  C   UNL     1      24.710  18.602 -10.205  1.00  0.00     0.066 A 
ATOM     10  N   UNL     1      22.899  17.233 -10.360  1.00  0.00    -0.233 NA
ATOM     11  N   UNL     1      23.814  18.891  -9.207  1.00  0.00    -0.342 N 
ATOM     12  H   UNL     1      23.924  19.603  -8.500  1.00  0.00     0.168 HD
BRANCH   4  13
ATOM     13  N   UNL     1      26.725  16.991 -13.535  1.00  0.00     0.062 N 
ATOM     14  O   UNL     1      27.345  17.779 -14.263  1.00  0.00    -0.258 OA
ATOM     15  O   UNL     1      26.658  15.768 -13.717  1.00  0.00    -0.258 OA
ENDBRANCH   4  13
ENDBRANCH   2   3
ENDBRANCH   1   2
BRANCH   1  16
ATOM     16  C   UNL     1      21.929  18.650  -5.907  1.00  0.00     0.076 C 
BRANCH  16  17
ATOM     17  C   UNL     1      22.998  19.657  -6.161  1.00  0.00     0.107 A 
ATOM     18  N   UNL     1      22.852  20.860  -6.677  1.00  0.00    -0.233 NA
ATOM     19  N   UNL     1      24.317  19.402  -5.874  1.00  0.00    -0.342 N 
ATOM     20  C   UNL     1      24.115  21.397  -6.723  1.00  0.00     0.095 A 
ATOM     21  C   UNL     1      25.055  20.502  -6.224  1.00  0.00     0.066 A 
ATOM     22  C   UNL     1      24.528  22.653  -7.183  1.00  0.00     0.116 A 
ATOM     23  C   UNL     1      26.422  20.778  -6.146  1.00  0.00     0.035 A 
ATOM     24  C   UNL     1      25.899  22.955  -7.115  1.00  0.00     0.271 A 
ATOM     25  C   UNL     1      26.832  22.035  -6.606  1.00  0.00     0.088 A 
ATOM     26  H   UNL     1      24.654  18.545  -5.447  1.00  0.00     0.168 HD
BRANCH  24  27
ATOM     27  N   UNL     1      26.364  24.265  -7.588  1.00  0.00     0.062 N 
ATOM     28  O   UNL     1      26.225  24.527  -8.792  1.00  0.00    -0.258 OA
ATOM     29  O   UNL     1      26.871  25.033  -6.759  1.00  0.00    -0.258 OA
ENDBRANCH  24  27
ENDBRANCH  16  17
ENDBRANCH   1  16
TORSDOF 6
ENDMDL
