MODEL 1
REMARK VINA RESULT:      -6.9      0.000      0.000
REMARK SMILES Cc1ncc(C[n+]2cccc(CCO)c2C)c(N)n1
REMARK SMILES IDX 7 1 8 2 9 3 10 4 11 5 15 6 16 7 6 8 5 9 2 10 3 11 19 12 4 13
REMARK SMILES IDX 17 14 1 15 18 16 12 19 13 20 14 21
REMARK H PARENT 18 17 18 18 14 22
ROOT
ATOM      1  N   UNL     1      23.484  18.588  -9.507  1.00  0.00    -0.198 N 
ATOM      2  C   UNL     1      22.651  17.613  -9.954  1.00  0.00     0.308 A 
ATOM      3  C   UNL     1      22.980  16.797 -11.017  1.00  0.00     0.071 A 
ATOM      4  C   UNL     1      24.192  16.980 -11.650  1.00  0.00     0.016 A 
ATOM      5  C   UNL     1      25.076  17.967 -11.201  1.00  0.00     0.021 A 
ATOM      6  C   UNL     1      24.715  18.775 -10.090  1.00  0.00     0.181 A 
ATOM      7  C   UNL     1      25.644  19.857  -9.605  1.00  0.00     0.124 C 
ENDROOT
BRANCH   1   8
ATOM      8  C   UNL     1      22.983  19.431  -8.373  1.00  0.00     0.399 C 
BRANCH   8   9
ATOM      9  C   UNL     1      23.203  18.788  -7.045  1.00  0.00     0.077 A 
ATOM     10  C   UNL     1      23.571  17.787  -4.549  1.00  0.00     0.127 A 
ATOM     11  N   UNL     1      24.587  18.466  -5.106  1.00  0.00    -0.241 NA
ATOM     12  N   UNL     1      22.403  17.543  -5.167  1.00  0.00    -0.216 NA
ATOM     13  C   UNL     1      24.381  18.946  -6.343  1.00  0.00     0.127 A 
ATOM     14  C   UNL     1      22.246  18.029  -6.401  1.00  0.00     0.136 A 
ATOM     15  C   UNL     1      23.769  17.220  -3.176  1.00  0.00     0.090 C 
BRANCH  14  16
ATOM     16  N   UNL     1      21.052  17.662  -7.030  1.00  0.00    -0.383 N 
ATOM     17  H   UNL     1      20.825  18.334  -7.761  1.00  0.00     0.158 HD
ATOM     18  H   UNL     1      21.278  16.785  -7.514  1.00  0.00     0.158 HD
ENDBRANCH  14  16
ENDBRANCH   8   9
ENDBRANCH   1   8
BRANCH   5  19
ATOM     19  C   UNL     1      26.374  18.137 -11.978  1.00  0.00     0.070 C 
BRANCH  19  20
ATOM     20  C   UNL     1      26.710  16.935 -12.862  1.00  0.00     0.161 C 
BRANCH  20  21
ATOM     21  O   UNL     1      26.898  17.365 -14.204  1.00  0.00    -0.396 OA
ATOM     22  H   UNL     1      27.793  17.091 -14.477  1.00  0.00     0.210 HD
ENDBRANCH  20  21
ENDBRANCH  19  20
ENDBRANCH   5  19
TORSDOF 6
ENDMDL
MODEL 2
REMARK VINA RESULT:      -6.8      0.580      1.563
REMARK SMILES Cc1ncc(C[n+]2cccc(CCO)c2C)c(N)n1
REMARK SMILES IDX 7 1 8 2 9 3 10 4 11 5 15 6 16 7 6 8 5 9 2 10 3 11 19 12 4 13
REMARK SMILES IDX 17 14 1 15 18 16 12 19 13 20 14 21
REMARK H PARENT 18 17 18 18 14 22
ROOT
ATOM      1  N   UNL     1      23.514  18.637  -9.406  1.00  0.00    -0.198 N 
ATOM      2  C   UNL     1      22.611  17.701  -9.796  1.00  0.00     0.308 A 
ATOM      3  C   UNL     1      22.837  16.865 -10.871  1.00  0.00     0.071 A 
ATOM      4  C   UNL     1      24.016  16.990 -11.577  1.00  0.00     0.016 A 
ATOM      5  C   UNL     1      24.970  17.936 -11.189  1.00  0.00     0.021 A 
ATOM      6  C   UNL     1      24.715  18.765 -10.064  1.00  0.00     0.181 A 
ATOM      7  C   UNL     1      25.720  19.804  -9.643  1.00  0.00     0.124 C 
ENDROOT
BRANCH   1   8
ATOM      8  C   UNL     1      23.122  19.507  -8.250  1.00  0.00     0.399 C 
BRANCH   8   9
ATOM      9  C   UNL     1      23.242  18.802  -6.941  1.00  0.00     0.077 A 
ATOM     10  C   UNL     1      23.533  17.370  -4.653  1.00  0.00     0.127 A 
ATOM     11  N   UNL     1      22.470  17.102  -5.428  1.00  0.00    -0.241 NA
ATOM     12  N   UNL     1      24.436  18.328  -4.924  1.00  0.00    -0.216 NA
ATOM     13  C   UNL     1      22.347  17.826  -6.551  1.00  0.00     0.127 A 
ATOM     14  C   UNL     1      24.268  19.033  -6.046  1.00  0.00     0.136 A 
ATOM     15  C   UNL     1      23.696  16.594  -3.382  1.00  0.00     0.090 C 
BRANCH  14  16
ATOM     16  N   UNL     1      25.180  20.078  -6.225  1.00  0.00    -0.383 N 
ATOM     17  H   UNL     1      24.878  20.672  -6.996  1.00  0.00     0.158 HD
ATOM     18  H   UNL     1      25.085  20.648  -5.376  1.00  0.00     0.158 HD
ENDBRANCH  14  16
ENDBRANCH   8   9
ENDBRANCH   1   8
BRANCH   5  19
ATOM     19  C   UNL     1      26.225  18.042 -12.044  1.00  0.00     0.070 C 
BRANCH  19  20
ATOM     20  C   UNL     1      26.476  16.803 -12.905  1.00  0.00     0.161 C 
BRANCH  20  21
ATOM     21  O   UNL     1      26.889  17.199 -14.206  1.00  0.00    -0.396 OA
ATOM     22  H   UNL     1      26.087  17.427 -14.711  1.00  0.00     0.210 HD
ENDBRANCH  20  21
ENDBRANCH  19  20
ENDBRANCH   5  19
TORSDOF 6
ENDMDL
MODEL 3
REMARK VINA RESULT:      -6.7      1.394      2.169
REMARK SMILES Cc1ncc(C[n+]2cccc(CCO)c2C)c(N)n1
REMARK SMILES IDX 7 1 8 2 9 3 10 4 11 5 15 6 16 7 6 8 5 9 2 10 3 11 19 12 4 13
REMARK SMILES IDX 17 14 1 15 18 16 12 19 13 20 14 21
REMARK H PARENT 18 17 18 18 14 22
ROOT
ATOM      1  N   UNL     1      23.612  18.518  -9.447  1.00  0.00    -0.198 N 
ATOM      2  C   UNL     1      24.566  19.430  -9.124  1.00  0.00     0.308 A 
ATOM      3  C   UNL     1      25.730  19.566  -9.853  1.00  0.00     0.071 A 
ATOM      4  C   UNL     1      25.934  18.745 -10.943  1.00  0.00     0.016 A 
ATOM      5  C   UNL     1      24.963  17.807 -11.307  1.00  0.00     0.021 A 
ATOM      6  C   UNL     1      23.767  17.708 -10.548  1.00  0.00     0.181 A 
ATOM      7  C   UNL     1      22.718  16.690 -10.911  1.00  0.00     0.124 C 
ENDROOT
BRANCH   1   8
ATOM      8  C   UNL     1      22.418  18.446  -8.544  1.00  0.00     0.399 C 
BRANCH   8   9
ATOM      9  C   UNL     1      22.757  18.766  -7.126  1.00  0.00     0.077 A 
ATOM     10  C   UNL     1      23.542  19.412  -4.609  1.00  0.00     0.127 A 
ATOM     11  N   UNL     1      24.007  18.267  -5.135  1.00  0.00    -0.241 NA
ATOM     12  N   UNL     1      22.684  20.233  -5.239  1.00  0.00    -0.216 NA
ATOM     13  C   UNL     1      23.601  17.969  -6.379  1.00  0.00     0.127 A 
ATOM     14  C   UNL     1      22.296  19.890  -6.471  1.00  0.00     0.136 A 
ATOM     15  C   UNL     1      23.959  19.770  -3.216  1.00  0.00     0.090 C 
BRANCH  14  16
ATOM     16  N   UNL     1      21.331  20.729  -7.037  1.00  0.00    -0.383 N 
ATOM     17  H   UNL     1      20.727  21.105  -6.307  1.00  0.00     0.158 HD
ATOM     18  H   UNL     1      21.867  21.527  -7.398  1.00  0.00     0.158 HD
ENDBRANCH  14  16
ENDBRANCH   8   9
ENDBRANCH   1   8
BRANCH   5  19
ATOM     19  C   UNL     1      25.281  16.908 -12.495  1.00  0.00     0.070 C 
BRANCH  19  20
ATOM     20  C   UNL     1      26.762  16.919 -12.881  1.00  0.00     0.161 C 
BRANCH  20  21
ATOM     21  O   UNL     1      26.900  17.328 -14.235  1.00  0.00    -0.396 OA
ATOM     22  H   UNL     1      27.564  18.041 -14.259  1.00  0.00     0.210 HD
ENDBRANCH  20  21
ENDBRANCH  19  20
ENDBRANCH   5  19
TORSDOF 6
ENDMDL
