MODEL 1
REMARK VINA RESULT:      -5.1      0.000      0.000
REMARK SMILES NCCCC[C@H](N)C(=O)Nc1ccc2c(c1)C1c3cc(NC(=O)[C@@H](N)CCCCN)ccc3C2c2ccc(NC(=O)[C@@H](N)CCCCN)cc21
REMARK SMILES IDX 11 1 12 2 13 3 14 4 15 5 16 6 17 7 18 8 19 9 20 10 31 11
REMARK SMILES IDX 32 12 33 13 34 14 35 15 36 16 37 17 38 18 49 19 50 20 10 21
REMARK SMILES IDX 8 22 9 23 6 25 5 26 4 27 3 28 2 29 1 30 7 33 21 36 22 37
REMARK SMILES IDX 23 38 24 40 25 41 26 44 27 45 28 46 29 47 30 48 39 51 40 52
REMARK SMILES IDX 41 53 42 55 43 56 44 59 45 60 46 61 47 62 48 63
REMARK H PARENT 10 24 1 31 1 32 7 34 7 35 21 39 25 42 25 43 30 49 30 50 39 54
REMARK H PARENT 43 57 43 58 48 64 48 65
ROOT
ATOM      1  C   UNL     1      27.078  25.224  -9.178  1.00  0.00     0.041 A 
ATOM      2  C   UNL     1      27.537  25.895  -8.022  1.00  0.00     0.026 A 
ATOM      3  C   UNL     1      26.769  25.963  -6.853  1.00  0.00     0.007 A 
ATOM      4  C   UNL     1      25.534  25.339  -6.846  1.00  0.00    -0.032 A 
ATOM      5  C   UNL     1      25.069  24.645  -8.008  1.00  0.00    -0.030 A 
ATOM      6  C   UNL     1      25.832  24.595  -9.169  1.00  0.00     0.031 A 
ATOM      7  C   UNL     1      23.688  23.990  -7.806  1.00  0.00     0.080 C 
ATOM      8  C   UNL     1      23.840  23.074  -6.568  1.00  0.00    -0.030 A 
ATOM      9  C   UNL     1      23.567  21.712  -6.516  1.00  0.00     0.031 A 
ATOM     10  C   UNL     1      23.743  21.034  -5.304  1.00  0.00     0.041 A 
ATOM     11  C   UNL     1      24.198  21.737  -4.165  1.00  0.00     0.026 A 
ATOM     12  C   UNL     1      24.483  23.105  -4.210  1.00  0.00     0.007 A 
ATOM     13  C   UNL     1      24.304  23.772  -5.408  1.00  0.00    -0.032 A 
ATOM     14  C   UNL     1      24.543  25.270  -5.665  1.00  0.00     0.080 C 
ATOM     15  C   UNL     1      23.203  25.816  -6.197  1.00  0.00    -0.032 A 
ATOM     16  C   UNL     1      22.458  26.844  -5.648  1.00  0.00     0.007 A 
ATOM     17  C   UNL     1      21.265  27.205  -6.283  1.00  0.00     0.026 A 
ATOM     18  C   UNL     1      20.829  26.566  -7.463  1.00  0.00     0.041 A 
ATOM     19  C   UNL     1      21.575  25.517  -8.007  1.00  0.00     0.031 A 
ATOM     20  C   UNL     1      22.748  25.132  -7.369  1.00  0.00    -0.030 A 
ENDROOT
BRANCH   1  21
ATOM     21  N   UNL     1      27.938  25.232 -10.291  1.00  0.00    -0.325 N 
ATOM     22  C   UNL     1      28.597  26.303 -10.873  1.00  0.00     0.241 C 
ATOM     23  O   UNL     1      28.573  27.471 -10.503  1.00  0.00    -0.273 OA
ATOM     24  H   UNL     1      28.040  24.363 -10.812  1.00  0.00     0.169 HD
BRANCH  22  25
ATOM     25  C   UNL     1      29.464  25.823 -12.073  1.00  0.00     0.141 C 
BRANCH  25  26
ATOM     26  C   UNL     1      30.908  25.499 -11.643  1.00  0.00     0.029 C 
BRANCH  26  27
ATOM     27  C   UNL     1      31.297  24.034 -11.874  1.00  0.00     0.003 C 
BRANCH  27  28
ATOM     28  C   UNL     1      32.753  23.727 -11.505  1.00  0.00     0.015 C 
BRANCH  28  29
ATOM     29  C   UNL     1      33.143  22.271 -11.774  1.00  0.00     0.077 C 
BRANCH  29  30
ATOM     30  N   UNL     1      31.949  21.459 -11.973  1.00  0.00    -0.330 NA
ATOM     31  H   UNL     1      31.814  20.845 -11.168  1.00  0.00     0.118 HD
ATOM     32  H   UNL     1      31.130  22.067 -12.003  1.00  0.00     0.118 HD
ENDBRANCH  29  30
ENDBRANCH  28  29
ENDBRANCH  27  28
ENDBRANCH  26  27
ENDBRANCH  25  26
BRANCH  25  33
ATOM     33  N   UNL     1      29.395  26.844 -13.150  1.00  0.00    -0.320 NA
ATOM     34  H   UNL     1      29.018  26.391 -13.988  1.00  0.00     0.119 HD
ATOM     35  H   UNL     1      28.709  27.553 -12.898  1.00  0.00     0.119 HD
ENDBRANCH  25  33
ENDBRANCH  22  25
ENDBRANCH   1  21
BRANCH  10  36
ATOM     36  N   UNL     1      23.483  19.658  -5.127  1.00  0.00    -0.325 N 
ATOM     37  C   UNL     1      22.427  19.073  -4.445  1.00  0.00     0.241 C 
ATOM     38  O   UNL     1      21.501  19.660  -3.889  1.00  0.00    -0.273 OA
ATOM     39  H   UNL     1      24.154  19.032  -5.551  1.00  0.00     0.169 HD
BRANCH  37  40
ATOM     40  C   UNL     1      22.516  17.526  -4.426  1.00  0.00     0.141 C 
BRANCH  40  41
ATOM     41  N   UNL     1      21.380  16.993  -3.642  1.00  0.00    -0.320 NA
ATOM     42  H   UNL     1      20.555  17.545  -3.901  1.00  0.00     0.119 HD
ATOM     43  H   UNL     1      21.527  17.235  -2.660  1.00  0.00     0.119 HD
ENDBRANCH  40  41
BRANCH  40  44
ATOM     44  C   UNL     1      22.471  16.915  -5.834  1.00  0.00     0.029 C 
BRANCH  44  45
ATOM     45  C   UNL     1      21.622  17.704  -6.840  1.00  0.00     0.003 C 
BRANCH  45  46
ATOM     46  C   UNL     1      21.664  17.116  -8.253  1.00  0.00     0.015 C 
BRANCH  46  47
ATOM     47  C   UNL     1      22.411  18.046  -9.212  1.00  0.00     0.077 C 
BRANCH  47  48
ATOM     48  N   UNL     1      23.274  18.952  -8.468  1.00  0.00    -0.330 NA
ATOM     49  H   UNL     1      24.244  18.833  -8.763  1.00  0.00     0.118 HD
ATOM     50  H   UNL     1      23.021  19.917  -8.674  1.00  0.00     0.118 HD
ENDBRANCH  47  48
ENDBRANCH  46  47
ENDBRANCH  45  46
ENDBRANCH  44  45
ENDBRANCH  40  44
ENDBRANCH  37  40
ENDBRANCH  10  36
BRANCH  18  51
ATOM     51  N   UNL     1      19.640  27.050  -8.036  1.00  0.00    -0.325 N 
ATOM     52  C   UNL     1      18.362  26.527  -7.939  1.00  0.00     0.241 C 
ATOM     53  O   UNL     1      18.011  25.553  -7.278  1.00  0.00    -0.273 OA
ATOM     54  H   UNL     1      19.697  27.887  -8.607  1.00  0.00     0.169 HD
BRANCH  52  55
ATOM     55  C   UNL     1      17.358  27.275  -8.845  1.00  0.00     0.141 C 
BRANCH  55  56
ATOM     56  N   UNL     1      18.024  27.620 -10.125  1.00  0.00    -0.320 NA
ATOM     57  H   UNL     1      18.390  26.756 -10.529  1.00  0.00     0.119 HD
ATOM     58  H   UNL     1      18.845  28.190  -9.918  1.00  0.00     0.119 HD
ENDBRANCH  55  56
BRANCH  55  59
ATOM     59  C   UNL     1      16.121  26.421  -9.159  1.00  0.00     0.029 C 
BRANCH  59  60
ATOM     60  C   UNL     1      15.808  26.334 -10.657  1.00  0.00     0.003 C 
BRANCH  60  61
ATOM     61  C   UNL     1      15.628  24.876 -11.094  1.00  0.00     0.015 C 
BRANCH  61  62
ATOM     62  C   UNL     1      14.438  24.182 -10.430  1.00  0.00     0.077 C 
BRANCH  62  63
ATOM     63  N   UNL     1      13.160  24.701 -10.893  1.00  0.00    -0.330 NA
ATOM     64  H   UNL     1      12.622  25.048 -10.098  1.00  0.00     0.118 HD
ATOM     65  H   UNL     1      12.610  23.932 -11.279  1.00  0.00     0.118 HD
ENDBRANCH  62  63
ENDBRANCH  61  62
ENDBRANCH  60  61
ENDBRANCH  59  60
ENDBRANCH  55  59
ENDBRANCH  52  55
ENDBRANCH  18  51
TORSDOF 24
ENDMDL
MODEL 2
REMARK VINA RESULT:      -5.0      3.152      9.202
REMARK SMILES NCCCC[C@H](N)C(=O)Nc1ccc2c(c1)C1c3cc(NC(=O)[C@@H](N)CCCCN)ccc3C2c2ccc(NC(=O)[C@@H](N)CCCCN)cc21
REMARK SMILES IDX 11 1 12 2 13 3 14 4 15 5 16 6 17 7 18 8 19 9 20 10 31 11
REMARK SMILES IDX 32 12 33 13 34 14 35 15 36 16 37 17 38 18 49 19 50 20 10 21
REMARK SMILES IDX 8 22 9 23 6 25 5 26 4 27 3 28 2 29 1 30 7 33 21 36 22 37
REMARK SMILES IDX 23 38 24 40 25 41 26 44 27 45 28 46 29 47 30 48 39 51 40 52
REMARK SMILES IDX 41 53 42 55 43 56 44 59 45 60 46 61 47 62 48 63
REMARK H PARENT 10 24 1 31 1 32 7 34 7 35 21 39 25 42 25 43 30 49 30 50 39 54
REMARK H PARENT 43 57 43 58 48 64 48 65
ROOT
ATOM      1  C   UNL     1      25.078  19.587  -9.248  1.00  0.00     0.041 A 
ATOM      2  C   UNL     1      25.674  19.322  -7.995  1.00  0.00     0.026 A 
ATOM      3  C   UNL     1      25.948  20.342  -7.075  1.00  0.00     0.007 A 
ATOM      4  C   UNL     1      25.607  21.638  -7.417  1.00  0.00    -0.032 A 
ATOM      5  C   UNL     1      24.990  21.914  -8.680  1.00  0.00    -0.030 A 
ATOM      6  C   UNL     1      24.734  20.896  -9.593  1.00  0.00     0.031 A 
ATOM      7  C   UNL     1      24.658  23.406  -8.874  1.00  0.00     0.080 C 
ATOM      8  C   UNL     1      23.775  23.796  -7.665  1.00  0.00    -0.030 A 
ATOM      9  C   UNL     1      22.507  24.363  -7.724  1.00  0.00     0.031 A 
ATOM     10  C   UNL     1      21.850  24.672  -6.527  1.00  0.00     0.041 A 
ATOM     11  C   UNL     1      22.477  24.399  -5.290  1.00  0.00     0.026 A 
ATOM     12  C   UNL     1      23.748  23.821  -5.221  1.00  0.00     0.007 A 
ATOM     13  C   UNL     1      24.396  23.521  -6.406  1.00  0.00    -0.032 A 
ATOM     14  C   UNL     1      25.797  22.901  -6.550  1.00  0.00     0.080 C 
ATOM     15  C   UNL     1      26.601  23.895  -7.411  1.00  0.00    -0.032 A 
ATOM     16  C   UNL     1      27.785  24.518  -7.057  1.00  0.00     0.007 A 
ATOM     17  C   UNL     1      28.373  25.387  -7.982  1.00  0.00     0.026 A 
ATOM     18  C   UNL     1      27.803  25.618  -9.252  1.00  0.00     0.041 A 
ATOM     19  C   UNL     1      26.599  25.001  -9.601  1.00  0.00     0.031 A 
ATOM     20  C   UNL     1      25.992  24.157  -8.679  1.00  0.00    -0.030 A 
ENDROOT
BRANCH   1  21
ATOM     21  N   UNL     1      24.860  18.480 -10.087  1.00  0.00    -0.325 N 
ATOM     22  C   UNL     1      23.679  17.804 -10.348  1.00  0.00     0.241 C 
ATOM     23  O   UNL     1      22.568  18.066  -9.901  1.00  0.00    -0.273 OA
ATOM     24  H   UNL     1      25.678  18.041 -10.506  1.00  0.00     0.169 HD
BRANCH  22  25
ATOM     25  C   UNL     1      23.921  16.655 -11.368  1.00  0.00     0.141 C 
BRANCH  25  26
ATOM     26  C   UNL     1      24.716  17.138 -12.597  1.00  0.00     0.029 C 
BRANCH  26  27
ATOM     27  C   UNL     1      26.224  16.882 -12.484  1.00  0.00     0.003 C 
BRANCH  27  28
ATOM     28  C   UNL     1      27.041  17.584 -13.574  1.00  0.00     0.015 C 
BRANCH  28  29
ATOM     29  C   UNL     1      27.089  19.105 -13.399  1.00  0.00     0.077 C 
BRANCH  29  30
ATOM     30  N   UNL     1      27.894  19.451 -12.233  1.00  0.00    -0.330 NA
ATOM     31  H   UNL     1      27.613  18.874 -11.439  1.00  0.00     0.118 HD
ATOM     32  H   UNL     1      28.870  19.219 -12.417  1.00  0.00     0.118 HD
ENDBRANCH  29  30
ENDBRANCH  28  29
ENDBRANCH  27  28
ENDBRANCH  26  27
ENDBRANCH  25  26
BRANCH  25  33
ATOM     33  N   UNL     1      22.613  16.050 -11.725  1.00  0.00    -0.320 NA
ATOM     34  H   UNL     1      22.346  16.400 -12.650  1.00  0.00     0.119 HD
ATOM     35  H   UNL     1      22.727  15.045 -11.843  1.00  0.00     0.119 HD
ENDBRANCH  25  33
ENDBRANCH  22  25
ENDBRANCH   1  21
BRANCH  10  36
ATOM     36  N   UNL     1      20.571  25.265  -6.461  1.00  0.00    -0.325 N 
ATOM     37  C   UNL     1      20.167  26.479  -6.994  1.00  0.00     0.241 C 
ATOM     38  O   UNL     1      20.857  27.254  -7.653  1.00  0.00    -0.273 OA
ATOM     39  H   UNL     1      19.871  24.732  -5.962  1.00  0.00     0.169 HD
BRANCH  37  40
ATOM     40  C   UNL     1      18.689  26.811  -6.664  1.00  0.00     0.141 C 
BRANCH  40  41
ATOM     41  N   UNL     1      18.645  28.073  -5.892  1.00  0.00    -0.320 NA
ATOM     42  H   UNL     1      19.571  28.194  -5.467  1.00  0.00     0.119 HD
ATOM     43  H   UNL     1      18.032  27.933  -5.086  1.00  0.00     0.119 HD
ENDBRANCH  40  41
BRANCH  40  44
ATOM     44  C   UNL     1      17.826  26.975  -7.924  1.00  0.00     0.029 C 
BRANCH  44  45
ATOM     45  C   UNL     1      18.079  25.918  -9.007  1.00  0.00     0.003 C 
BRANCH  45  46
ATOM     46  C   UNL     1      18.572  26.517 -10.327  1.00  0.00     0.015 C 
BRANCH  46  47
ATOM     47  C   UNL     1      19.648  25.635 -10.963  1.00  0.00     0.077 C 
BRANCH  47  48
ATOM     48  N   UNL     1      20.974  26.148 -10.644  1.00  0.00    -0.330 NA
ATOM     49  H   UNL     1      21.259  26.836 -11.342  1.00  0.00     0.118 HD
ATOM     50  H   UNL     1      20.951  26.631  -9.748  1.00  0.00     0.118 HD
ENDBRANCH  47  48
ENDBRANCH  46  47
ENDBRANCH  45  46
ENDBRANCH  44  45
ENDBRANCH  40  44
ENDBRANCH  37  40
ENDBRANCH  10  36
BRANCH  18  51
ATOM     51  N   UNL     1      28.513  26.474 -10.112  1.00  0.00    -0.325 N 
ATOM     52  C   UNL     1      28.375  27.841 -10.272  1.00  0.00     0.241 C 
ATOM     53  O   UNL     1      27.630  28.588  -9.642  1.00  0.00    -0.273 OA
ATOM     54  H   UNL     1      29.220  26.061 -10.712  1.00  0.00     0.169 HD
BRANCH  52  55
ATOM     55  C   UNL     1      29.243  28.381 -11.432  1.00  0.00     0.141 C 
BRANCH  55  56
ATOM     56  N   UNL     1      30.383  29.146 -10.868  1.00  0.00    -0.320 NA
ATOM     57  H   UNL     1      30.033  29.693 -10.080  1.00  0.00     0.119 HD
ATOM     58  H   UNL     1      30.686  29.832 -11.561  1.00  0.00     0.119 HD
ENDBRANCH  55  56
BRANCH  55  59
ATOM     59  C   UNL     1      29.806  27.249 -12.304  1.00  0.00     0.029 C 
BRANCH  59  60
ATOM     60  C   UNL     1      31.256  26.884 -11.964  1.00  0.00     0.003 C 
BRANCH  60  61
ATOM     61  C   UNL     1      32.174  27.112 -13.170  1.00  0.00     0.015 C 
BRANCH  61  62
ATOM     62  C   UNL     1      31.888  28.416 -13.918  1.00  0.00     0.077 C 
BRANCH  62  63
ATOM     63  N   UNL     1      32.709  29.520 -13.446  1.00  0.00    -0.330 NA
ATOM     64  H   UNL     1      32.189  30.395 -13.531  1.00  0.00     0.118 HD
ATOM     65  H   UNL     1      33.516  29.621 -14.063  1.00  0.00     0.118 HD
ENDBRANCH  62  63
ENDBRANCH  61  62
ENDBRANCH  60  61
ENDBRANCH  59  60
ENDBRANCH  55  59
ENDBRANCH  52  55
ENDBRANCH  18  51
TORSDOF 24
ENDMDL
MODEL 3
REMARK VINA RESULT:      -4.9     12.080     18.641
REMARK SMILES NCCCC[C@H](N)C(=O)Nc1ccc2c(c1)C1c3cc(NC(=O)[C@@H](N)CCCCN)ccc3C2c2ccc(NC(=O)[C@@H](N)CCCCN)cc21
REMARK SMILES IDX 11 1 12 2 13 3 14 4 15 5 16 6 17 7 18 8 19 9 20 10 31 11
REMARK SMILES IDX 32 12 33 13 34 14 35 15 36 16 37 17 38 18 49 19 50 20 10 21
REMARK SMILES IDX 8 22 9 23 6 25 5 26 4 27 3 28 2 29 1 30 7 33 21 36 22 37
REMARK SMILES IDX 23 38 24 40 25 41 26 44 27 45 28 46 29 47 30 48 39 51 40 52
REMARK SMILES IDX 41 53 42 55 43 56 44 59 45 60 46 61 47 62 48 63
REMARK H PARENT 10 24 1 31 1 32 7 34 7 35 21 39 25 42 25 43 30 49 30 50 39 54
REMARK H PARENT 43 57 43 58 48 64 48 65
ROOT
ATOM      1  C   UNL     1      35.378  18.642 -22.891  1.00  0.00     0.041 A 
ATOM      2  C   UNL     1      36.778  18.522 -22.743  1.00  0.00     0.026 A 
ATOM      3  C   UNL     1      37.354  17.884 -21.638  1.00  0.00     0.007 A 
ATOM      4  C   UNL     1      36.509  17.352 -20.679  1.00  0.00    -0.032 A 
ATOM      5  C   UNL     1      35.090  17.457 -20.828  1.00  0.00    -0.030 A 
ATOM      6  C   UNL     1      34.528  18.105 -21.924  1.00  0.00     0.031 A 
ATOM      7  C   UNL     1      34.311  16.784 -19.681  1.00  0.00     0.080 C 
ATOM      8  C   UNL     1      34.814  15.322 -19.639  1.00  0.00    -0.030 A 
ATOM      9  C   UNL     1      34.026  14.180 -19.729  1.00  0.00     0.031 A 
ATOM     10  C   UNL     1      34.644  12.927 -19.656  1.00  0.00     0.041 A 
ATOM     11  C   UNL     1      36.046  12.842 -19.502  1.00  0.00     0.026 A 
ATOM     12  C   UNL     1      36.848  13.984 -19.421  1.00  0.00     0.007 A 
ATOM     13  C   UNL     1      36.234  15.221 -19.488  1.00  0.00    -0.032 A 
ATOM     14  C   UNL     1      36.927  16.592 -19.402  1.00  0.00     0.080 C 
ATOM     15  C   UNL     1      36.248  17.324 -18.227  1.00  0.00    -0.032 A 
ATOM     16  C   UNL     1      36.875  17.827 -17.101  1.00  0.00     0.007 A 
ATOM     17  C   UNL     1      36.087  18.471 -16.141  1.00  0.00     0.026 A 
ATOM     18  C   UNL     1      34.695  18.631 -16.308  1.00  0.00     0.041 A 
ATOM     19  C   UNL     1      34.062  18.108 -17.439  1.00  0.00     0.031 A 
ATOM     20  C   UNL     1      34.832  17.443 -18.386  1.00  0.00    -0.030 A 
ENDROOT
BRANCH   1  21
ATOM     21  N   UNL     1      34.924  19.312 -24.042  1.00  0.00    -0.325 N 
ATOM     22  C   UNL     1      34.974  18.901 -25.364  1.00  0.00     0.241 C 
ATOM     23  O   UNL     1      35.415  17.839 -25.788  1.00  0.00    -0.273 OA
ATOM     24  H   UNL     1      34.586  20.265 -23.926  1.00  0.00     0.169 HD
BRANCH  22  25
ATOM     25  C   UNL     1      34.320  19.966 -26.291  1.00  0.00     0.141 C 
BRANCH  25  26
ATOM     26  C   UNL     1      34.544  19.642 -27.782  1.00  0.00     0.029 C 
BRANCH  26  27
ATOM     27  C   UNL     1      33.246  19.330 -28.537  1.00  0.00     0.003 C 
BRANCH  27  28
ATOM     28  C   UNL     1      32.720  17.914 -28.276  1.00  0.00     0.015 C 
BRANCH  28  29
ATOM     29  C   UNL     1      31.220  17.774 -28.550  1.00  0.00     0.077 C 
BRANCH  29  30
ATOM     30  N   UNL     1      30.669  19.050 -28.990  1.00  0.00    -0.330 NA
ATOM     31  H   UNL     1      31.302  19.806 -28.727  1.00  0.00     0.118 HD
ATOM     32  H   UNL     1      30.623  19.063 -30.009  1.00  0.00     0.118 HD
ENDBRANCH  29  30
ENDBRANCH  28  29
ENDBRANCH  27  28
ENDBRANCH  26  27
ENDBRANCH  25  26
BRANCH  25  33
ATOM     33  N   UNL     1      34.826  21.308 -25.907  1.00  0.00    -0.320 NA
ATOM     34  H   UNL     1      34.334  22.004 -26.475  1.00  0.00     0.119 HD
ATOM     35  H   UNL     1      34.554  21.508 -24.946  1.00  0.00     0.119 HD
ENDBRANCH  25  33
ENDBRANCH  22  25
ENDBRANCH   1  21
BRANCH  10  36
ATOM     36  N   UNL     1      33.947  11.700 -19.717  1.00  0.00    -0.325 N 
ATOM     37  C   UNL     1      33.797  10.860 -20.809  1.00  0.00     0.241 C 
ATOM     38  O   UNL     1      34.277  11.024 -21.929  1.00  0.00    -0.273 OA
ATOM     39  H   UNL     1      33.506  11.409 -18.854  1.00  0.00     0.169 HD
BRANCH  37  40
ATOM     40  C   UNL     1      32.913   9.626 -20.493  1.00  0.00     0.141 C 
BRANCH  40  41
ATOM     41  N   UNL     1      33.377   9.020 -19.225  1.00  0.00    -0.320 NA
ATOM     42  H   UNL     1      33.230   9.719 -18.489  1.00  0.00     0.119 HD
ATOM     43  H   UNL     1      34.395   8.932 -19.266  1.00  0.00     0.119 HD
ENDBRANCH  40  41
BRANCH  40  44
ATOM     44  C   UNL     1      31.427   9.986 -20.351  1.00  0.00     0.029 C 
BRANCH  44  45
ATOM     45  C   UNL     1      31.016  11.275 -21.075  1.00  0.00     0.003 C 
BRANCH  45  46
ATOM     46  C   UNL     1      30.586  11.039 -22.525  1.00  0.00     0.015 C 
BRANCH  46  47
ATOM     47  C   UNL     1      29.443  11.977 -22.919  1.00  0.00     0.077 C 
BRANCH  47  48
ATOM     48  N   UNL     1      28.163  11.295 -22.788  1.00  0.00    -0.330 NA
ATOM     49  H   UNL     1      27.414  11.884 -23.156  1.00  0.00     0.118 HD
ATOM     50  H   UNL     1      28.167  10.443 -23.344  1.00  0.00     0.118 HD
ENDBRANCH  47  48
ENDBRANCH  46  47
ENDBRANCH  45  46
ENDBRANCH  44  45
ENDBRANCH  40  44
ENDBRANCH  37  40
ENDBRANCH  10  36
BRANCH  18  51
ATOM     51  N   UNL     1      34.020  19.339 -15.299  1.00  0.00    -0.325 N 
ATOM     52  C   UNL     1      33.491  20.617 -15.350  1.00  0.00     0.241 C 
ATOM     53  O   UNL     1      33.466  21.368 -16.322  1.00  0.00    -0.273 OA
ATOM     54  H   UNL     1      33.895  18.880 -14.403  1.00  0.00     0.169 HD
BRANCH  52  55
ATOM     55  C   UNL     1      32.961  21.081 -13.974  1.00  0.00     0.141 C 
BRANCH  55  56
ATOM     56  N   UNL     1      33.615  20.283 -12.909  1.00  0.00    -0.320 NA
ATOM     57  H   UNL     1      32.940  20.158 -12.152  1.00  0.00     0.119 HD
ATOM     58  H   UNL     1      34.372  20.839 -12.507  1.00  0.00     0.119 HD
ENDBRANCH  55  56
BRANCH  55  59
ATOM     59  C   UNL     1      33.256  22.566 -13.716  1.00  0.00     0.029 C 
BRANCH  59  60
ATOM     60  C   UNL     1      32.303  23.206 -12.700  1.00  0.00     0.003 C 
BRANCH  60  61
ATOM     61  C   UNL     1      33.065  24.128 -11.741  1.00  0.00     0.015 C 
BRANCH  61  62
ATOM     62  C   UNL     1      32.573  25.577 -11.767  1.00  0.00     0.077 C 
BRANCH  62  63
ATOM     63  N   UNL     1      32.878  26.247 -13.022  1.00  0.00    -0.330 NA
ATOM     64  H   UNL     1      33.505  27.034 -12.847  1.00  0.00     0.118 HD
ATOM     65  H   UNL     1      32.021  26.658 -13.395  1.00  0.00     0.118 HD
ENDBRANCH  62  63
ENDBRANCH  61  62
ENDBRANCH  60  61
ENDBRANCH  59  60
ENDBRANCH  55  59
ENDBRANCH  52  55
ENDBRANCH  18  51
TORSDOF 24
ENDMDL
