MODEL 1
REMARK VINA RESULT:      -6.7      0.000      0.000
REMARK SMILES O=C(Nc1ccc(C2=NCCN2)cc1)c1cc(C(=O)Nc2ccc(C3=NCCN3)cc2)cc(C(=O)Nc2ccc(C3=NCCN3)cc2)c1
REMARK SMILES IDX 15 1 16 2 17 3 32 4 33 5 48 6 2 7 1 8 3 9 4 11 5 12 14 13
REMARK SMILES IDX 6 14 13 15 7 16 8 17 9 18 12 19 10 20 11 21 18 23 19 24
REMARK SMILES IDX 20 25 21 27 22 28 31 29 23 30 30 31 24 32 25 33 26 34 29 35
REMARK SMILES IDX 27 36 28 37 34 39 35 40 36 41 37 43 38 44 47 45 39 46 46 47
REMARK SMILES IDX 40 48 41 49 42 50 45 51 43 52 44 53
REMARK H PARENT 3 10 12 22 20 26 29 38 36 42 45 54
ROOT
ATOM      1  C   UNL     1      34.772  17.353 -20.210  1.00  0.00     0.041 A 
ATOM      2  C   UNL     1      34.136  16.114 -20.330  1.00  0.00     0.027 A 
ATOM      3  C   UNL     1      33.625  15.480 -19.189  1.00  0.00     0.041 A 
ATOM      4  C   UNL     1      33.736  16.089 -17.932  1.00  0.00     0.027 A 
ATOM      5  C   UNL     1      34.375  17.331 -17.829  1.00  0.00     0.041 A 
ATOM      6  C   UNL     1      34.899  17.963 -18.959  1.00  0.00     0.027 A 
ENDROOT
BRANCH   1   7
ATOM      7  C   UNL     1      35.357  18.032 -21.390  1.00  0.00     0.255 C 
ATOM      8  O   UNL     1      36.554  18.285 -21.356  1.00  0.00    -0.269 OA
ATOM      9  N   UNL     1      34.452  18.324 -22.391  1.00  0.00    -0.322 N 
ATOM     10  H   UNL     1      33.476  18.123 -22.207  1.00  0.00     0.170 HD
BRANCH   9  11
ATOM     11  C   UNL     1      34.721  18.967 -23.617  1.00  0.00     0.041 A 
ATOM     12  C   UNL     1      34.129  18.612 -24.831  1.00  0.00     0.027 A 
ATOM     13  C   UNL     1      35.647  20.018 -23.598  1.00  0.00     0.027 A 
ATOM     14  C   UNL     1      34.457  19.291 -26.010  1.00  0.00     0.014 A 
ATOM     15  C   UNL     1      35.980  20.696 -24.776  1.00  0.00     0.014 A 
ATOM     16  C   UNL     1      35.381  20.339 -25.986  1.00  0.00     0.017 A 
BRANCH  16  17
ATOM     17  C   UNL     1      35.745  21.061 -27.231  1.00  0.00     0.128 C 
ATOM     18  N   UNL     1      36.981  21.091 -27.668  1.00  0.00    -0.266 NA
ATOM     19  N   UNL     1      34.821  21.753 -27.983  1.00  0.00    -0.368 N 
ATOM     20  C   UNL     1      36.916  21.883 -28.926  1.00  0.00     0.165 C 
ATOM     21  C   UNL     1      35.547  22.561 -28.936  1.00  0.00     0.138 C 
ATOM     22  H   UNL     1      34.080  22.217 -27.473  1.00  0.00     0.162 HD
ENDBRANCH  16  17
ENDBRANCH   9  11
ENDBRANCH   1   7
BRANCH   3  23
ATOM     23  C   UNL     1      32.917  14.185 -19.366  1.00  0.00     0.255 C 
ATOM     24  O   UNL     1      32.114  13.863 -18.502  1.00  0.00    -0.269 OA
ATOM     25  N   UNL     1      33.242  13.497 -20.517  1.00  0.00    -0.322 N 
ATOM     26  H   UNL     1      33.854  13.958 -21.177  1.00  0.00     0.170 HD
BRANCH  25  27
ATOM     27  C   UNL     1      32.740  12.245 -20.935  1.00  0.00     0.041 A 
ATOM     28  C   UNL     1      31.727  12.256 -21.904  1.00  0.00     0.027 A 
ATOM     29  C   UNL     1      33.191  11.020 -20.443  1.00  0.00     0.027 A 
ATOM     30  C   UNL     1      31.170  11.060 -22.372  1.00  0.00     0.014 A 
ATOM     31  C   UNL     1      32.631   9.822 -20.905  1.00  0.00     0.014 A 
ATOM     32  C   UNL     1      31.625   9.838 -21.873  1.00  0.00     0.017 A 
BRANCH  32  33
ATOM     33  C   UNL     1      31.041   8.562 -22.357  1.00  0.00     0.128 C 
ATOM     34  N   UNL     1      31.408   7.407 -21.858  1.00  0.00    -0.266 NA
ATOM     35  N   UNL     1      30.108   8.518 -23.370  1.00  0.00    -0.368 N 
ATOM     36  C   UNL     1      30.588   6.404 -22.590  1.00  0.00     0.165 C 
ATOM     37  C   UNL     1      29.987   7.137 -23.789  1.00  0.00     0.138 C 
ATOM     38  H   UNL     1      30.232   9.192 -24.116  1.00  0.00     0.162 HD
ENDBRANCH  32  33
ENDBRANCH  25  27
ENDBRANCH   3  23
BRANCH   5  39
ATOM     39  C   UNL     1      34.433  18.040 -16.532  1.00  0.00     0.255 C 
ATOM     40  O   UNL     1      34.599  17.362 -15.529  1.00  0.00    -0.269 OA
ATOM     41  N   UNL     1      34.288  19.409 -16.624  1.00  0.00    -0.322 N 
ATOM     42  H   UNL     1      34.086  19.796 -17.538  1.00  0.00     0.170 HD
BRANCH  41  43
ATOM     43  C   UNL     1      34.309  20.336 -15.561  1.00  0.00     0.041 A 
ATOM     44  C   UNL     1      33.160  20.815 -14.925  1.00  0.00     0.027 A 
ATOM     45  C   UNL     1      35.558  20.800 -15.134  1.00  0.00     0.027 A 
ATOM     46  C   UNL     1      33.256  21.746 -13.884  1.00  0.00     0.014 A 
ATOM     47  C   UNL     1      35.658  21.729 -14.091  1.00  0.00     0.014 A 
ATOM     48  C   UNL     1      34.506  22.202 -13.459  1.00  0.00     0.017 A 
BRANCH  48  49
ATOM     49  C   UNL     1      34.624  23.198 -12.363  1.00  0.00     0.128 C 
ATOM     50  N   UNL     1      35.778  23.739 -12.055  1.00  0.00    -0.266 NA
ATOM     51  N   UNL     1      33.550  23.595 -11.600  1.00  0.00    -0.368 N 
ATOM     52  C   UNL     1      35.467  24.682 -10.945  1.00  0.00     0.165 C 
ATOM     53  C   UNL     1      34.059  24.331 -10.465  1.00  0.00     0.138 C 
ATOM     54  H   UNL     1      32.843  22.898 -11.402  1.00  0.00     0.162 HD
ENDBRANCH  48  49
ENDBRANCH  41  43
ENDBRANCH   5  39
TORSDOF 9
ENDMDL
MODEL 2
REMARK VINA RESULT:      -6.1     11.297     15.942
REMARK SMILES O=C(Nc1ccc(C2=NCCN2)cc1)c1cc(C(=O)Nc2ccc(C3=NCCN3)cc2)cc(C(=O)Nc2ccc(C3=NCCN3)cc2)c1
REMARK SMILES IDX 15 1 16 2 17 3 32 4 33 5 48 6 2 7 1 8 3 9 4 11 5 12 14 13
REMARK SMILES IDX 6 14 13 15 7 16 8 17 9 18 12 19 10 20 11 21 18 23 19 24
REMARK SMILES IDX 20 25 21 27 22 28 31 29 23 30 30 31 24 32 25 33 26 34 29 35
REMARK SMILES IDX 27 36 28 37 34 39 35 40 36 41 37 43 38 44 47 45 39 46 46 47
REMARK SMILES IDX 40 48 41 49 42 50 45 51 43 52 44 53
REMARK H PARENT 3 10 12 22 20 26 29 38 36 42 45 54
ROOT
ATOM      1  C   UNL     1      22.957  10.644 -25.659  1.00  0.00     0.041 A 
ATOM      2  C   UNL     1      21.717  10.175 -25.216  1.00  0.00     0.027 A 
ATOM      3  C   UNL     1      21.563   8.824 -24.877  1.00  0.00     0.041 A 
ATOM      4  C   UNL     1      22.651   7.945 -24.965  1.00  0.00     0.027 A 
ATOM      5  C   UNL     1      23.888   8.430 -25.410  1.00  0.00     0.041 A 
ATOM      6  C   UNL     1      24.044   9.773 -25.763  1.00  0.00     0.027 A 
ENDROOT
BRANCH   1   7
ATOM      7  C   UNL     1      23.143  12.058 -26.062  1.00  0.00     0.255 C 
ATOM      8  O   UNL     1      22.137  12.748 -26.164  1.00  0.00    -0.269 OA
ATOM      9  N   UNL     1      24.453  12.419 -26.303  1.00  0.00    -0.322 N 
ATOM     10  H   UNL     1      25.152  11.687 -26.259  1.00  0.00     0.170 HD
BRANCH   9  11
ATOM     11  C   UNL     1      24.923  13.687 -26.703  1.00  0.00     0.041 A 
ATOM     12  C   UNL     1      24.655  14.261 -27.948  1.00  0.00     0.027 A 
ATOM     13  C   UNL     1      25.711  14.396 -25.787  1.00  0.00     0.027 A 
ATOM     14  C   UNL     1      25.168  15.522 -28.277  1.00  0.00     0.014 A 
ATOM     15  C   UNL     1      26.228  15.653 -26.115  1.00  0.00     0.014 A 
ATOM     16  C   UNL     1      25.954  16.224 -27.360  1.00  0.00     0.017 A 
BRANCH  16  17
ATOM     17  C   UNL     1      26.513  17.557 -27.700  1.00  0.00     0.128 C 
ATOM     18  N   UNL     1      26.957  18.370 -26.773  1.00  0.00    -0.266 NA
ATOM     19  N   UNL     1      26.577  18.023 -28.995  1.00  0.00    -0.368 N 
ATOM     20  C   UNL     1      27.439  19.564 -27.518  1.00  0.00     0.165 C 
ATOM     21  C   UNL     1      26.891  19.433 -28.939  1.00  0.00     0.138 C 
ATOM     22  H   UNL     1      25.819  17.758 -29.610  1.00  0.00     0.162 HD
ENDBRANCH  16  17
ENDBRANCH   9  11
ENDBRANCH   1   7
BRANCH   3  23
ATOM     23  C   UNL     1      20.241   8.376 -24.367  1.00  0.00     0.255 C 
ATOM     24  O   UNL     1      19.766   7.362 -24.858  1.00  0.00    -0.269 OA
ATOM     25  N   UNL     1      19.705   9.164 -23.369  1.00  0.00    -0.322 N 
ATOM     26  H   UNL     1      20.281   9.914 -23.009  1.00  0.00     0.170 HD
BRANCH  25  27
ATOM     27  C   UNL     1      18.467   8.988 -22.714  1.00  0.00     0.041 A 
ATOM     28  C   UNL     1      18.243   7.750 -22.096  1.00  0.00     0.027 A 
ATOM     29  C   UNL     1      17.472   9.964 -22.650  1.00  0.00     0.027 A 
ATOM     30  C   UNL     1      17.041   7.490 -21.427  1.00  0.00     0.014 A 
ATOM     31  C   UNL     1      16.266   9.705 -21.987  1.00  0.00     0.014 A 
ATOM     32  C   UNL     1      16.049   8.471 -21.370  1.00  0.00     0.017 A 
BRANCH  32  33
ATOM     33  C   UNL     1      14.769   8.208 -20.667  1.00  0.00     0.128 C 
ATOM     34  N   UNL     1      14.177   9.132 -19.951  1.00  0.00    -0.266 NA
ATOM     35  N   UNL     1      14.148   6.978 -20.706  1.00  0.00    -0.368 N 
ATOM     36  C   UNL     1      12.940   8.479 -19.444  1.00  0.00     0.165 C 
ATOM     37  C   UNL     1      13.115   6.981 -19.692  1.00  0.00     0.138 C 
ATOM     38  H   UNL     1      14.762   6.172 -20.702  1.00  0.00     0.162 HD
ENDBRANCH  32  33
ENDBRANCH  25  27
ENDBRANCH   3  23
BRANCH   5  39
ATOM     39  C   UNL     1      25.076   7.549 -25.433  1.00  0.00     0.255 C 
ATOM     40  O   UNL     1      25.043   6.584 -26.181  1.00  0.00    -0.269 OA
ATOM     41  N   UNL     1      26.091   7.941 -24.586  1.00  0.00    -0.322 N 
ATOM     42  H   UNL     1      25.915   8.734 -23.982  1.00  0.00     0.170 HD
BRANCH  41  43
ATOM     43  C   UNL     1      27.337   7.302 -24.405  1.00  0.00     0.041 A 
ATOM     44  C   UNL     1      27.532   6.206 -23.561  1.00  0.00     0.027 A 
ATOM     45  C   UNL     1      28.431   7.811 -25.113  1.00  0.00     0.027 A 
ATOM     46  C   UNL     1      28.801   5.631 -23.420  1.00  0.00     0.014 A 
ATOM     47  C   UNL     1      29.701   7.236 -24.977  1.00  0.00     0.014 A 
ATOM     48  C   UNL     1      29.889   6.140 -24.132  1.00  0.00     0.017 A 
BRANCH  48  49
ATOM     49  C   UNL     1      31.243   5.547 -23.985  1.00  0.00     0.128 C 
ATOM     50  N   UNL     1      31.430   4.429 -23.327  1.00  0.00    -0.266 NA
ATOM     51  N   UNL     1      32.372   6.136 -24.506  1.00  0.00    -0.368 N 
ATOM     52  C   UNL     1      32.893   4.170 -23.434  1.00  0.00     0.165 C 
ATOM     53  C   UNL     1      33.522   5.467 -23.943  1.00  0.00     0.138 C 
ATOM     54  H   UNL     1      32.402   7.148 -24.515  1.00  0.00     0.162 HD
ENDBRANCH  48  49
ENDBRANCH  41  43
ENDBRANCH   5  39
TORSDOF 9
ENDMDL
MODEL 3
REMARK VINA RESULT:      -5.5      1.619      1.819
REMARK SMILES O=C(Nc1ccc(C2=NCCN2)cc1)c1cc(C(=O)Nc2ccc(C3=NCCN3)cc2)cc(C(=O)Nc2ccc(C3=NCCN3)cc2)c1
REMARK SMILES IDX 15 1 16 2 17 3 32 4 33 5 48 6 2 7 1 8 3 9 4 11 5 12 14 13
REMARK SMILES IDX 6 14 13 15 7 16 8 17 9 18 12 19 10 20 11 21 18 23 19 24
REMARK SMILES IDX 20 25 21 27 22 28 31 29 23 30 30 31 24 32 25 33 26 34 29 35
REMARK SMILES IDX 27 36 28 37 34 39 35 40 36 41 37 43 38 44 47 45 39 46 46 47
REMARK SMILES IDX 40 48 41 49 42 50 45 51 43 52 44 53
REMARK H PARENT 3 10 12 22 20 26 29 38 36 42 45 54
ROOT
ATOM      1  C   UNL     1      34.744  17.388 -21.462  1.00  0.00     0.041 A 
ATOM      2  C   UNL     1      34.499  16.015 -21.556  1.00  0.00     0.027 A 
ATOM      3  C   UNL     1      34.517  15.223 -20.400  1.00  0.00     0.041 A 
ATOM      4  C   UNL     1      34.765  15.805 -19.149  1.00  0.00     0.027 A 
ATOM      5  C   UNL     1      35.007  17.183 -19.072  1.00  0.00     0.041 A 
ATOM      6  C   UNL     1      35.004  17.975 -20.222  1.00  0.00     0.027 A 
ENDROOT
BRANCH   1   7
ATOM      7  C   UNL     1      34.770  18.246 -22.670  1.00  0.00     0.255 C 
ATOM      8  O   UNL     1      33.900  18.058 -23.511  1.00  0.00    -0.269 OA
ATOM      9  N   UNL     1      35.810  19.152 -22.709  1.00  0.00    -0.322 N 
ATOM     10  H   UNL     1      36.495  19.105 -21.964  1.00  0.00     0.170 HD
BRANCH   9  11
ATOM     11  C   UNL     1      36.086  20.084 -23.731  1.00  0.00     0.041 A 
ATOM     12  C   UNL     1      36.547  19.735 -25.002  1.00  0.00     0.027 A 
ATOM     13  C   UNL     1      35.886  21.438 -23.433  1.00  0.00     0.027 A 
ATOM     14  C   UNL     1      36.810  20.720 -25.961  1.00  0.00     0.014 A 
ATOM     15  C   UNL     1      36.152  22.425 -24.388  1.00  0.00     0.014 A 
ATOM     16  C   UNL     1      36.609  22.069 -25.659  1.00  0.00     0.017 A 
BRANCH  16  17
ATOM     17  C   UNL     1      36.894  23.125 -26.664  1.00  0.00     0.128 C 
ATOM     18  N   UNL     1      37.086  24.372 -26.310  1.00  0.00    -0.266 NA
ATOM     19  N   UNL     1      36.951  22.863 -28.015  1.00  0.00    -0.368 N 
ATOM     20  C   UNL     1      37.355  25.088 -27.586  1.00  0.00     0.165 C 
ATOM     21  C   UNL     1      36.952  24.132 -28.708  1.00  0.00     0.138 C 
ATOM     22  H   UNL     1      36.314  22.161 -28.368  1.00  0.00     0.162 HD
ENDBRANCH  16  17
ENDBRANCH   9  11
ENDBRANCH   1   7
BRANCH   3  23
ATOM     23  C   UNL     1      34.207  13.776 -20.537  1.00  0.00     0.255 C 
ATOM     24  O   UNL     1      34.828  13.001 -19.825  1.00  0.00    -0.269 OA
ATOM     25  N   UNL     1      33.223  13.477 -21.457  1.00  0.00    -0.322 N 
ATOM     26  H   UNL     1      32.739  14.253 -21.890  1.00  0.00     0.170 HD
BRANCH  25  27
ATOM     27  C   UNL     1      32.738  12.198 -21.803  1.00  0.00     0.041 A 
ATOM     28  C   UNL     1      33.058  11.718 -23.081  1.00  0.00     0.027 A 
ATOM     29  C   UNL     1      31.970  11.399 -20.955  1.00  0.00     0.027 A 
ATOM     30  C   UNL     1      32.615  10.460 -23.506  1.00  0.00     0.014 A 
ATOM     31  C   UNL     1      31.519  10.143 -21.381  1.00  0.00     0.014 A 
ATOM     32  C   UNL     1      31.844   9.668 -22.653  1.00  0.00     0.017 A 
BRANCH  32  33
ATOM     33  C   UNL     1      31.364   8.334 -23.092  1.00  0.00     0.128 C 
ATOM     34  N   UNL     1      30.313   7.770 -22.549  1.00  0.00    -0.266 NA
ATOM     35  N   UNL     1      32.008   7.606 -24.068  1.00  0.00    -0.368 N 
ATOM     36  C   UNL     1      30.164   6.478 -23.271  1.00  0.00     0.165 C 
ATOM     37  C   UNL     1      31.472   6.261 -24.031  1.00  0.00     0.138 C 
ATOM     38  H   UNL     1      33.019   7.673 -24.077  1.00  0.00     0.162 HD
ENDBRANCH  32  33
ENDBRANCH  25  27
ENDBRANCH   3  23
BRANCH   5  39
ATOM     39  C   UNL     1      35.187  17.841 -17.759  1.00  0.00     0.255 C 
ATOM     40  O   UNL     1      35.776  17.212 -16.893  1.00  0.00    -0.269 OA
ATOM     41  N   UNL     1      34.652  19.110 -17.681  1.00  0.00    -0.322 N 
ATOM     42  H   UNL     1      34.133  19.447 -18.482  1.00  0.00     0.170 HD
BRANCH  41  43
ATOM     43  C   UNL     1      34.679  19.973 -16.565  1.00  0.00     0.041 A 
ATOM     44  C   UNL     1      33.662  20.039 -15.609  1.00  0.00     0.027 A 
ATOM     45  C   UNL     1      35.792  20.810 -16.424  1.00  0.00     0.027 A 
ATOM     46  C   UNL     1      33.750  20.931 -14.534  1.00  0.00     0.014 A 
ATOM     47  C   UNL     1      35.885  21.701 -15.347  1.00  0.00     0.014 A 
ATOM     48  C   UNL     1      34.865  21.761 -14.395  1.00  0.00     0.017 A 
BRANCH  48  49
ATOM     49  C   UNL     1      34.968  22.719 -13.265  1.00  0.00     0.128 C 
ATOM     50  N   UNL     1      35.700  22.452 -12.209  1.00  0.00    -0.266 NA
ATOM     51  N   UNL     1      34.298  23.921 -13.246  1.00  0.00    -0.368 N 
ATOM     52  C   UNL     1      35.558  23.654 -11.341  1.00  0.00     0.165 C 
ATOM     53  C   UNL     1      34.388  24.458 -11.907  1.00  0.00     0.138 C 
ATOM     54  H   UNL     1      33.384  23.945 -13.678  1.00  0.00     0.162 HD
ENDBRANCH  48  49
ENDBRANCH  41  43
ENDBRANCH   5  39
TORSDOF 9
ENDMDL
