MODEL 1
REMARK VINA RESULT:      -7.7      0.000      0.000
REMARK SMILES O=C(Nc1ccc(-c2nc3cc(NC(=O)c4ccco4)ccc3[nH]2)cc1)c1ccco1
REMARK SMILES IDX 8 1 9 2 10 3 11 4 12 5 21 6 22 7 23 8 24 9 7 11 4 12 5 13
REMARK SMILES IDX 26 14 6 15 25 16 3 17 1 18 2 19 27 21 28 22 31 23 29 24
REMARK SMILES IDX 30 25 13 26 14 27 15 28 16 30 17 31 20 32 18 33 19 34
REMARK H PARENT 24 10 3 20 13 29
ROOT
ATOM      1  C   UNL     1      20.373  12.548 -23.213  1.00  0.00     0.138 A 
ATOM      2  N   UNL     1      19.900  12.369 -21.991  1.00  0.00    -0.228 NA
ATOM      3  C   UNL     1      18.537  12.499 -22.082  1.00  0.00     0.091 A 
ATOM      4  C   UNL     1      17.557  12.408 -21.080  1.00  0.00     0.056 A 
ATOM      5  C   UNL     1      16.205  12.577 -21.423  1.00  0.00     0.043 A 
ATOM      6  C   UNL     1      15.857  12.832 -22.754  1.00  0.00     0.028 A 
ATOM      7  C   UNL     1      16.824  12.926 -23.769  1.00  0.00     0.030 A 
ATOM      8  C   UNL     1      18.153  12.754 -23.387  1.00  0.00     0.066 A 
ATOM      9  N   UNL     1      19.330  12.779 -24.086  1.00  0.00    -0.338 N 
ATOM     10  H   UNL     1      19.417  12.932 -25.078  1.00  0.00     0.168 HD
ENDROOT
BRANCH   1  11
ATOM     11  C   UNL     1      21.788  12.502 -23.598  1.00  0.00     0.017 A 
ATOM     12  C   UNL     1      24.529  12.322 -24.310  1.00  0.00     0.041 A 
ATOM     13  C   UNL     1      23.834  13.524 -24.450  1.00  0.00     0.027 A 
ATOM     14  C   UNL     1      23.846  11.210 -23.811  1.00  0.00     0.027 A 
ATOM     15  C   UNL     1      22.478  13.613 -24.099  1.00  0.00     0.014 A 
ATOM     16  C   UNL     1      22.494  11.300 -23.458  1.00  0.00     0.014 A 
BRANCH  12  17
ATOM     17  N   UNL     1      25.888  12.145 -24.644  1.00  0.00    -0.319 N 
ATOM     18  O   UNL     1      26.831  11.695 -22.580  1.00  0.00    -0.265 OA
ATOM     19  C   UNL     1      26.948  11.864 -23.790  1.00  0.00     0.291 C 
ATOM     20  H   UNL     1      26.102  12.202 -25.627  1.00  0.00     0.170 HD
BRANCH  19  21
ATOM     21  C   UNL     1      28.240  11.778 -24.463  1.00  0.00     0.191 A 
ATOM     22  C   UNL     1      28.784  10.900 -25.390  1.00  0.00     0.056 A 
ATOM     23  O   UNL     1      29.173  12.744 -24.176  1.00  0.00    -0.459 OA
ATOM     24  C   UNL     1      30.097  11.355 -25.673  1.00  0.00     0.043 A 
ATOM     25  C   UNL     1      30.284  12.479 -24.906  1.00  0.00     0.196 A 
ENDBRANCH  19  21
ENDBRANCH  12  17
ENDBRANCH   1  11
BRANCH   5  26
ATOM     26  N   UNL     1      15.271  12.475 -20.367  1.00  0.00    -0.319 N 
ATOM     27  C   UNL     1      14.830  11.329 -19.716  1.00  0.00     0.291 C 
ATOM     28  O   UNL     1      15.221  10.194 -19.979  1.00  0.00    -0.265 OA
ATOM     29  H   UNL     1      14.890  13.353 -20.045  1.00  0.00     0.170 HD
BRANCH  27  30
ATOM     30  C   UNL     1      13.849  11.585 -18.667  1.00  0.00     0.191 A 
ATOM     31  C   UNL     1      12.548  11.157 -18.441  1.00  0.00     0.056 A 
ATOM     32  O   UNL     1      14.220  12.417 -17.640  1.00  0.00    -0.459 OA
ATOM     33  C   UNL     1      12.116  11.763 -17.235  1.00  0.00     0.043 A 
ATOM     34  C   UNL     1      13.170  12.522 -16.790  1.00  0.00     0.196 A 
ENDBRANCH  27  30
ENDBRANCH   5  26
TORSDOF 5
ENDMDL
MODEL 2
REMARK VINA RESULT:      -7.7      0.615      1.146
REMARK SMILES O=C(Nc1ccc(-c2nc3cc(NC(=O)c4ccco4)ccc3[nH]2)cc1)c1ccco1
REMARK SMILES IDX 8 1 9 2 10 3 11 4 12 5 21 6 22 7 23 8 24 9 7 11 4 12 5 13
REMARK SMILES IDX 26 14 6 15 25 16 3 17 1 18 2 19 27 21 28 22 31 23 29 24
REMARK SMILES IDX 30 25 13 26 14 27 15 28 16 30 17 31 20 32 18 33 19 34
REMARK H PARENT 24 10 3 20 13 29
ROOT
ATOM      1  C   UNL     1      20.339  12.412 -23.206  1.00  0.00     0.138 A 
ATOM      2  N   UNL     1      19.860  12.143 -22.003  1.00  0.00    -0.228 NA
ATOM      3  C   UNL     1      18.510  12.381 -22.064  1.00  0.00     0.091 A 
ATOM      4  C   UNL     1      17.530  12.259 -21.065  1.00  0.00     0.056 A 
ATOM      5  C   UNL     1      16.193  12.561 -21.373  1.00  0.00     0.043 A 
ATOM      6  C   UNL     1      15.859  12.977 -22.667  1.00  0.00     0.028 A 
ATOM      7  C   UNL     1      16.826  13.104 -23.678  1.00  0.00     0.030 A 
ATOM      8  C   UNL     1      18.140  12.797 -23.332  1.00  0.00     0.066 A 
ATOM      9  N   UNL     1      19.313  12.807 -24.038  1.00  0.00    -0.338 N 
ATOM     10  H   UNL     1      19.406  13.055 -25.011  1.00  0.00     0.168 HD
ENDROOT
BRANCH   1  11
ATOM     11  C   UNL     1      21.746  12.302 -23.611  1.00  0.00     0.017 A 
ATOM     12  C   UNL     1      24.460  12.178 -24.427  1.00  0.00     0.041 A 
ATOM     13  C   UNL     1      23.820  11.051 -23.912  1.00  0.00     0.027 A 
ATOM     14  C   UNL     1      23.735  13.368 -24.533  1.00  0.00     0.027 A 
ATOM     15  C   UNL     1      22.477  11.112 -23.507  1.00  0.00     0.014 A 
ATOM     16  C   UNL     1      22.395  13.427 -24.132  1.00  0.00     0.014 A 
BRANCH  12  17
ATOM     17  N   UNL     1      25.806  12.205 -24.851  1.00  0.00    -0.319 N 
ATOM     18  O   UNL     1      26.928  11.636 -22.910  1.00  0.00    -0.265 OA
ATOM     19  C   UNL     1      26.944  11.958 -24.095  1.00  0.00     0.291 C 
ATOM     20  H   UNL     1      25.946  12.402 -25.830  1.00  0.00     0.170 HD
BRANCH  19  21
ATOM     21  C   UNL     1      28.190  12.107 -24.839  1.00  0.00     0.191 A 
ATOM     22  C   UNL     1      28.753  11.435 -25.915  1.00  0.00     0.056 A 
ATOM     23  O   UNL     1      29.043  13.113 -24.458  1.00  0.00    -0.459 OA
ATOM     24  C   UNL     1      29.994  12.062 -26.194  1.00  0.00     0.043 A 
ATOM     25  C   UNL     1      30.123  13.075 -25.277  1.00  0.00     0.196 A 
ENDBRANCH  19  21
ENDBRANCH  12  17
ENDBRANCH   1  11
BRANCH   5  26
ATOM     26  N   UNL     1      15.259  12.420 -20.321  1.00  0.00    -0.319 N 
ATOM     27  C   UNL     1      14.762  11.248 -19.764  1.00  0.00     0.291 C 
ATOM     28  O   UNL     1      15.093  10.120 -20.123  1.00  0.00    -0.265 OA
ATOM     29  H   UNL     1      14.924  13.286 -19.925  1.00  0.00     0.170 HD
BRANCH  27  30
ATOM     30  C   UNL     1      13.799  11.465 -18.690  1.00  0.00     0.191 A 
ATOM     31  C   UNL     1      13.670  12.420 -17.691  1.00  0.00     0.056 A 
ATOM     32  O   UNL     1      12.759  10.576 -18.579  1.00  0.00    -0.459 OA
ATOM     33  C   UNL     1      12.513  12.087 -16.944  1.00  0.00     0.043 A 
ATOM     34  C   UNL     1      11.997  10.955 -17.525  1.00  0.00     0.196 A 
ENDBRANCH  27  30
ENDBRANCH   5  26
TORSDOF 5
ENDMDL
MODEL 3
REMARK VINA RESULT:      -7.6      1.016      1.332
REMARK SMILES O=C(Nc1ccc(-c2nc3cc(NC(=O)c4ccco4)ccc3[nH]2)cc1)c1ccco1
REMARK SMILES IDX 8 1 9 2 10 3 11 4 12 5 21 6 22 7 23 8 24 9 7 11 4 12 5 13
REMARK SMILES IDX 26 14 6 15 25 16 3 17 1 18 2 19 27 21 28 22 31 23 29 24
REMARK SMILES IDX 30 25 13 26 14 27 15 28 16 30 17 31 20 32 18 33 19 34
REMARK H PARENT 24 10 3 20 13 29
ROOT
ATOM      1  C   UNL     1      20.373  12.554 -23.213  1.00  0.00     0.138 A 
ATOM      2  N   UNL     1      19.897  12.391 -21.989  1.00  0.00    -0.228 NA
ATOM      3  C   UNL     1      18.533  12.499 -22.089  1.00  0.00     0.091 A 
ATOM      4  C   UNL     1      17.550  12.413 -21.091  1.00  0.00     0.056 A 
ATOM      5  C   UNL     1      16.197  12.556 -21.443  1.00  0.00     0.043 A 
ATOM      6  C   UNL     1      15.852  12.781 -22.781  1.00  0.00     0.028 A 
ATOM      7  C   UNL     1      16.822  12.869 -23.793  1.00  0.00     0.030 A 
ATOM      8  C   UNL     1      18.151  12.724 -23.401  1.00  0.00     0.066 A 
ATOM      9  N   UNL     1      19.332  12.753 -24.095  1.00  0.00    -0.338 N 
ATOM     10  H   UNL     1      19.421  12.888 -25.090  1.00  0.00     0.168 HD
ENDROOT
BRANCH   1  11
ATOM     11  C   UNL     1      21.791  12.520 -23.591  1.00  0.00     0.017 A 
ATOM     12  C   UNL     1      24.523  12.543 -24.358  1.00  0.00     0.041 A 
ATOM     13  C   UNL     1      23.949  11.400 -23.800  1.00  0.00     0.027 A 
ATOM     14  C   UNL     1      23.722  13.676 -24.531  1.00  0.00     0.027 A 
ATOM     15  C   UNL     1      22.598  11.389 -23.420  1.00  0.00     0.014 A 
ATOM     16  C   UNL     1      22.374  13.662 -24.154  1.00  0.00     0.014 A 
BRANCH  12  17
ATOM     17  N   UNL     1      25.871  12.642 -24.762  1.00  0.00    -0.319 N 
ATOM     18  O   UNL     1      25.923  11.237 -26.598  1.00  0.00    -0.265 OA
ATOM     19  C   UNL     1      26.496  11.993 -25.819  1.00  0.00     0.291 C 
ATOM     20  H   UNL     1      26.435  13.286 -24.229  1.00  0.00     0.170 HD
BRANCH  19  21
ATOM     21  C   UNL     1      27.919  12.294 -25.938  1.00  0.00     0.191 A 
ATOM     22  C   UNL     1      28.887  12.001 -26.888  1.00  0.00     0.056 A 
ATOM     23  O   UNL     1      28.499  13.031 -24.935  1.00  0.00    -0.459 OA
ATOM     24  C   UNL     1      30.099  12.585 -26.440  1.00  0.00     0.043 A 
ATOM     25  C   UNL     1      29.808  13.197 -25.246  1.00  0.00     0.196 A 
ENDBRANCH  19  21
ENDBRANCH  12  17
ENDBRANCH   1  11
BRANCH   5  26
ATOM     26  N   UNL     1      15.259  12.460 -20.389  1.00  0.00    -0.319 N 
ATOM     27  C   UNL     1      14.823  11.319 -19.727  1.00  0.00     0.291 C 
ATOM     28  O   UNL     1      15.220  10.184 -19.976  1.00  0.00    -0.265 OA
ATOM     29  H   UNL     1      14.872  13.340 -20.079  1.00  0.00     0.170 HD
BRANCH  27  30
ATOM     30  C   UNL     1      13.836  11.581 -18.685  1.00  0.00     0.191 A 
ATOM     31  C   UNL     1      12.563  11.095 -18.420  1.00  0.00     0.056 A 
ATOM     32  O   UNL     1      14.166  12.493 -17.713  1.00  0.00    -0.459 OA
ATOM     33  C   UNL     1      12.105  11.747 -17.248  1.00  0.00     0.043 A 
ATOM     34  C   UNL     1      13.117  12.589 -16.860  1.00  0.00     0.196 A 
ENDBRANCH  27  30
ENDBRANCH   5  26
TORSDOF 5
ENDMDL
