MODEL 1
REMARK VINA RESULT:      -7.1      0.000      0.000
REMARK SMILES Nc1cc2c(=O)c(C(=O)O)cn(CCN3CCN(c4ccccn4)CC3)c2nc1N1CCN(c2nc3ccccc3s2)CC1
REMARK SMILES IDX 2 1 3 2 4 3 5 4 6 5 7 6 11 7 12 8 27 9 28 10 29 11 1 12
REMARK SMILES IDX 30 15 31 16 44 17 32 18 43 19 33 20 34 21 35 22 42 23 36 24
REMARK SMILES IDX 41 25 37 26 40 27 38 28 39 29 8 30 9 31 10 32 13 34 14 35
REMARK SMILES IDX 15 36 16 37 26 38 17 39 25 40 18 41 19 42 20 43 24 44 21 45
REMARK SMILES IDX 23 46 22 47
REMARK H PARENT 1 13 1 14 10 33
ROOT
ATOM      1  C   UNL     1      29.834   9.261 -23.783  1.00  0.00     0.076 A 
ATOM      2  C   UNL     1      30.835   8.549 -23.141  1.00  0.00     0.045 A 
ATOM      3  C   UNL     1      31.695   9.223 -22.273  1.00  0.00     0.068 A 
ATOM      4  C   UNL     1      32.753   8.463 -21.564  1.00  0.00     0.205 C 
ATOM      5  O   UNL     1      32.951   7.291 -21.862  1.00  0.00    -0.288 OA
ATOM      6  C   UNL     1      33.532   9.177 -20.525  1.00  0.00     0.124 C 
ATOM      7  C   UNL     1      33.298  10.492 -20.401  1.00  0.00     0.107 C 
ATOM      8  N   UNL     1      32.395  11.242 -21.136  1.00  0.00    -0.330 N 
ATOM      9  C   UNL     1      31.547  10.601 -22.069  1.00  0.00     0.146 A 
ATOM     10  N   UNL     1      30.592  11.307 -22.732  1.00  0.00    -0.211 NA
ATOM     11  C   UNL     1      29.763  10.656 -23.581  1.00  0.00     0.154 A 
ENDROOT
BRANCH   1  12
ATOM     12  N   UNL     1      28.942   8.594 -24.658  1.00  0.00    -0.396 N 
ATOM     13  H   UNL     1      28.013   9.019 -24.553  1.00  0.00     0.156 HD
ATOM     14  H   UNL     1      29.255   8.669 -25.625  1.00  0.00     0.156 HD
ENDBRANCH   1  12
BRANCH  11  15
ATOM     15  N   UNL     1      28.796  11.375 -24.312  1.00  0.00    -0.351 N 
ATOM     16  C   UNL     1      28.610  12.765 -23.844  1.00  0.00     0.139 C 
ATOM     17  C   UNL     1      29.001  11.239 -25.770  1.00  0.00     0.139 C 
ATOM     18  C   UNL     1      27.875  13.638 -24.892  1.00  0.00     0.140 C 
ATOM     19  C   UNL     1      27.852  11.887 -26.591  1.00  0.00     0.140 C 
ATOM     20  N   UNL     1      27.029  12.822 -25.790  1.00  0.00    -0.345 N 
BRANCH  20  21
ATOM     21  C   UNL     1      25.847  12.318 -25.302  1.00  0.00     0.186 A 
ATOM     22  N   UNL     1      24.871  13.073 -24.838  1.00  0.00    -0.220 NA
ATOM     23  S   UNL     1      25.525  10.618 -25.182  1.00  0.00    -0.097 S 
ATOM     24  C   UNL     1      23.809  12.307 -24.393  1.00  0.00     0.084 A 
ATOM     25  C   UNL     1      23.982  10.929 -24.501  1.00  0.00     0.056 A 
ATOM     26  C   UNL     1      22.605  12.800 -23.853  1.00  0.00     0.030 A 
ATOM     27  C   UNL     1      22.995  10.020 -24.087  1.00  0.00     0.021 A 
ATOM     28  C   UNL     1      21.615  11.904 -23.435  1.00  0.00     0.002 A 
ATOM     29  C   UNL     1      21.811  10.531 -23.550  1.00  0.00     0.002 A 
ENDBRANCH  20  21
ENDBRANCH  11  15
BRANCH   6  30
ATOM     30  C   UNL     1      34.536   8.580 -19.630  1.00  0.00     0.341 C 
ATOM     31  O   UNL     1      34.835   9.000 -18.522  1.00  0.00    -0.246 OA
BRANCH  30  32
ATOM     32  O   UNL     1      35.116   7.474 -20.109  1.00  0.00    -0.477 OA
ATOM     33  H   UNL     1      34.382   6.897 -20.398  1.00  0.00     0.297 HD
ENDBRANCH  30  32
ENDBRANCH   6  30
BRANCH   8  34
ATOM     34  C   UNL     1      32.261  12.703 -20.991  1.00  0.00     0.139 C 
BRANCH  34  35
ATOM     35  C   UNL     1      33.633  13.425 -21.057  1.00  0.00     0.106 C 
BRANCH  35  36
ATOM     36  N   UNL     1      34.001  14.181 -19.848  1.00  0.00    -0.298 NA
ATOM     37  C   UNL     1      35.337  14.804 -19.968  1.00  0.00     0.106 C 
ATOM     38  C   UNL     1      33.000  15.231 -19.554  1.00  0.00     0.106 C 
ATOM     39  C   UNL     1      35.729  15.642 -18.726  1.00  0.00     0.133 C 
ATOM     40  C   UNL     1      33.356  16.038 -18.285  1.00  0.00     0.133 C 
ATOM     41  N   UNL     1      34.692  16.657 -18.437  1.00  0.00    -0.354 N 
BRANCH  41  42
ATOM     42  C   UNL     1      35.044  17.446 -17.318  1.00  0.00     0.128 A 
ATOM     43  C   UNL     1      34.502  18.729 -17.199  1.00  0.00     0.047 A 
ATOM     44  N   UNL     1      35.865  16.950 -16.366  1.00  0.00    -0.239 NA
ATOM     45  C   UNL     1      34.812  19.515 -16.090  1.00  0.00     0.005 A 
ATOM     46  C   UNL     1      36.159  17.732 -15.302  1.00  0.00     0.113 A 
ATOM     47  C   UNL     1      35.659  19.006 -15.118  1.00  0.00     0.020 A 
ENDBRANCH  41  42
ENDBRANCH  35  36
ENDBRANCH  34  35
ENDBRANCH   8  34
TORSDOF 9
ENDMDL
MODEL 2
REMARK VINA RESULT:      -7.1      6.334      7.618
REMARK SMILES Nc1cc2c(=O)c(C(=O)O)cn(CCN3CCN(c4ccccn4)CC3)c2nc1N1CCN(c2nc3ccccc3s2)CC1
REMARK SMILES IDX 2 1 3 2 4 3 5 4 6 5 7 6 11 7 12 8 27 9 28 10 29 11 1 12
REMARK SMILES IDX 30 15 31 16 44 17 32 18 43 19 33 20 34 21 35 22 42 23 36 24
REMARK SMILES IDX 41 25 37 26 40 27 38 28 39 29 8 30 9 31 10 32 13 34 14 35
REMARK SMILES IDX 15 36 16 37 26 38 17 39 25 40 18 41 19 42 20 43 24 44 21 45
REMARK SMILES IDX 23 46 22 47
REMARK H PARENT 1 13 1 14 10 33
ROOT
ATOM      1  C   UNL     1      24.904   9.031 -25.068  1.00  0.00     0.076 A 
ATOM      2  C   UNL     1      25.717   7.914 -24.946  1.00  0.00     0.045 A 
ATOM      3  C   UNL     1      27.073   8.090 -24.675  1.00  0.00     0.068 A 
ATOM      4  C   UNL     1      27.943   6.899 -24.519  1.00  0.00     0.205 C 
ATOM      5  O   UNL     1      27.491   5.790 -24.777  1.00  0.00    -0.288 OA
ATOM      6  C   UNL     1      29.336   7.121 -24.064  1.00  0.00     0.124 C 
ATOM      7  C   UNL     1      29.731   8.397 -23.951  1.00  0.00     0.107 C 
ATOM      8  N   UNL     1      28.967   9.523 -24.205  1.00  0.00    -0.330 N 
ATOM      9  C   UNL     1      27.600   9.381 -24.540  1.00  0.00     0.146 A 
ATOM     10  N   UNL     1      26.812  10.478 -24.704  1.00  0.00    -0.211 NA
ATOM     11  C   UNL     1      25.497  10.309 -24.975  1.00  0.00     0.154 A 
ENDROOT
BRANCH   1  12
ATOM     12  N   UNL     1      23.521   8.875 -25.331  1.00  0.00    -0.396 N 
ATOM     13  H   UNL     1      23.027   8.831 -24.432  1.00  0.00     0.156 HD
ATOM     14  H   UNL     1      23.166   9.649 -25.889  1.00  0.00     0.156 HD
ENDBRANCH   1  12
BRANCH  11  15
ATOM     15  N   UNL     1      24.671  11.430 -25.192  1.00  0.00    -0.351 N 
ATOM     16  C   UNL     1      25.049  12.611 -24.385  1.00  0.00     0.139 C 
ATOM     17  C   UNL     1      24.489  11.704 -26.633  1.00  0.00     0.139 C 
ATOM     18  C   UNL     1      24.415  13.915 -24.930  1.00  0.00     0.140 C 
ATOM     19  C   UNL     1      23.452  12.832 -26.894  1.00  0.00     0.140 C 
ATOM     20  N   UNL     1      23.174  13.646 -25.688  1.00  0.00    -0.345 N 
BRANCH  20  21
ATOM     21  C   UNL     1      22.035  13.321 -24.991  1.00  0.00     0.186 A 
ATOM     22  N   UNL     1      21.798  13.721 -23.758  1.00  0.00    -0.220 NA
ATOM     23  S   UNL     1      20.798  12.289 -25.634  1.00  0.00    -0.097 S 
ATOM     24  C   UNL     1      20.590  13.232 -23.293  1.00  0.00     0.084 A 
ATOM     25  C   UNL     1      19.892  12.422 -24.184  1.00  0.00     0.056 A 
ATOM     26  C   UNL     1      20.032  13.483 -22.023  1.00  0.00     0.030 A 
ATOM     27  C   UNL     1      18.653  11.848 -23.855  1.00  0.00     0.021 A 
ATOM     28  C   UNL     1      18.800  12.914 -21.683  1.00  0.00     0.002 A 
ATOM     29  C   UNL     1      18.121  12.106 -22.589  1.00  0.00     0.002 A 
ENDBRANCH  20  21
ENDBRANCH  11  15
BRANCH   6  30
ATOM     30  C   UNL     1      30.317   6.075 -23.733  1.00  0.00     0.341 C 
ATOM     31  O   UNL     1      30.210   5.266 -22.824  1.00  0.00    -0.246 OA
BRANCH  30  32
ATOM     32  O   UNL     1      31.381   6.038 -24.546  1.00  0.00    -0.477 OA
ATOM     33  H   UNL     1      31.616   6.971 -24.713  1.00  0.00     0.297 HD
ENDBRANCH  30  32
ENDBRANCH   6  30
BRANCH   8  34
ATOM     34  C   UNL     1      29.508  10.893 -24.135  1.00  0.00     0.139 C 
BRANCH  34  35
ATOM     35  C   UNL     1      30.148  11.336 -25.477  1.00  0.00     0.106 C 
BRANCH  35  36
ATOM     36  N   UNL     1      29.416  12.390 -26.201  1.00  0.00    -0.298 NA
ATOM     37  C   UNL     1      28.700  13.301 -25.282  1.00  0.00     0.106 C 
ATOM     38  C   UNL     1      30.332  13.181 -27.054  1.00  0.00     0.106 C 
ATOM     39  C   UNL     1      27.958  14.444 -26.019  1.00  0.00     0.133 C 
ATOM     40  C   UNL     1      29.590  14.291 -27.833  1.00  0.00     0.133 C 
ATOM     41  N   UNL     1      28.892  15.191 -26.889  1.00  0.00    -0.354 N 
BRANCH  41  42
ATOM     42  C   UNL     1      28.236  16.253 -27.553  1.00  0.00     0.128 A 
ATOM     43  C   UNL     1      26.839  16.272 -27.582  1.00  0.00     0.047 A 
ATOM     44  N   UNL     1      28.954  17.248 -28.123  1.00  0.00    -0.239 NA
ATOM     45  C   UNL     1      26.169  17.322 -28.207  1.00  0.00     0.005 A 
ATOM     46  C   UNL     1      28.285  18.253 -28.731  1.00  0.00     0.113 A 
ATOM     47  C   UNL     1      26.908  18.338 -28.795  1.00  0.00     0.020 A 
ENDBRANCH  41  42
ENDBRANCH  35  36
ENDBRANCH  34  35
ENDBRANCH   8  34
TORSDOF 9
ENDMDL
MODEL 3
REMARK VINA RESULT:      -7.1      5.609     11.359
REMARK SMILES Nc1cc2c(=O)c(C(=O)O)cn(CCN3CCN(c4ccccn4)CC3)c2nc1N1CCN(c2nc3ccccc3s2)CC1
REMARK SMILES IDX 2 1 3 2 4 3 5 4 6 5 7 6 11 7 12 8 27 9 28 10 29 11 1 12
REMARK SMILES IDX 30 15 31 16 44 17 32 18 43 19 33 20 34 21 35 22 42 23 36 24
REMARK SMILES IDX 41 25 37 26 40 27 38 28 39 29 8 30 9 31 10 32 13 34 14 35
REMARK SMILES IDX 15 36 16 37 26 38 17 39 25 40 18 41 19 42 20 43 24 44 21 45
REMARK SMILES IDX 23 46 22 47
REMARK H PARENT 1 13 1 14 10 33
ROOT
ATOM      1  C   UNL     1      31.619  12.891 -25.458  1.00  0.00     0.076 A 
ATOM      2  C   UNL     1      31.286  14.098 -26.052  1.00  0.00     0.045 A 
ATOM      3  C   UNL     1      29.950  14.357 -26.356  1.00  0.00     0.068 A 
ATOM      4  C   UNL     1      29.583  15.657 -26.968  1.00  0.00     0.205 C 
ATOM      5  O   UNL     1      30.471  16.418 -27.334  1.00  0.00    -0.288 OA
ATOM      6  C   UNL     1      28.140  15.963 -27.118  1.00  0.00     0.124 C 
ATOM      7  C   UNL     1      27.285  14.981 -26.799  1.00  0.00     0.107 C 
ATOM      8  N   UNL     1      27.615  13.719 -26.334  1.00  0.00    -0.330 N 
ATOM      9  C   UNL     1      28.967  13.400 -26.071  1.00  0.00     0.146 A 
ATOM     10  N   UNL     1      29.300  12.198 -25.528  1.00  0.00    -0.211 NA
ATOM     11  C   UNL     1      30.598  11.942 -25.240  1.00  0.00     0.154 A 
ENDROOT
BRANCH   1  12
ATOM     12  N   UNL     1      32.969  12.613 -25.130  1.00  0.00    -0.396 N 
ATOM     13  H   UNL     1      33.452  13.505 -24.977  1.00  0.00     0.156 HD
ATOM     14  H   UNL     1      33.030  12.032 -24.296  1.00  0.00     0.156 HD
ENDBRANCH   1  12
BRANCH  11  15
ATOM     15  N   UNL     1      30.971  10.687 -24.720  1.00  0.00    -0.351 N 
ATOM     16  C   UNL     1      29.944  10.077 -23.847  1.00  0.00     0.139 C 
ATOM     17  C   UNL     1      31.492   9.791 -25.774  1.00  0.00     0.139 C 
ATOM     18  C   UNL     1      30.188   8.562 -23.633  1.00  0.00     0.140 C 
ATOM     19  C   UNL     1      32.060   8.465 -25.195  1.00  0.00     0.140 C 
ATOM     20  N   UNL     1      31.613   8.206 -23.807  1.00  0.00    -0.345 N 
BRANCH  20  21
ATOM     21  C   UNL     1      32.501   8.544 -22.814  1.00  0.00     0.186 A 
ATOM     22  N   UNL     1      32.234   8.429 -21.529  1.00  0.00    -0.220 NA
ATOM     23  S   UNL     1      34.064   9.222 -23.139  1.00  0.00    -0.097 S 
ATOM     24  C   UNL     1      33.296   8.859 -20.753  1.00  0.00     0.084 A 
ATOM     25  C   UNL     1      34.398   9.333 -21.461  1.00  0.00     0.056 A 
ATOM     26  C   UNL     1      33.343   8.856 -19.345  1.00  0.00     0.030 A 
ATOM     27  C   UNL     1      35.550   9.807 -20.813  1.00  0.00     0.021 A 
ATOM     28  C   UNL     1      34.484   9.329 -18.689  1.00  0.00     0.002 A 
ATOM     29  C   UNL     1      35.573   9.800 -19.416  1.00  0.00     0.002 A 
ENDBRANCH  20  21
ENDBRANCH  11  15
BRANCH   6  30
ATOM     30  C   UNL     1      27.567  17.235 -27.586  1.00  0.00     0.341 C 
ATOM     31  O   UNL     1      27.631  17.661 -28.729  1.00  0.00    -0.246 OA
BRANCH  30  32
ATOM     32  O   UNL     1      26.911  17.926 -26.646  1.00  0.00    -0.477 OA
ATOM     33  H   UNL     1      27.232  18.845 -26.725  1.00  0.00     0.297 HD
ENDBRANCH  30  32
ENDBRANCH   6  30
BRANCH   8  34
ATOM     34  C   UNL     1      26.610  12.668 -26.086  1.00  0.00     0.139 C 
BRANCH  34  35
ATOM     35  C   UNL     1      25.227  13.029 -26.690  1.00  0.00     0.106 C 
BRANCH  35  36
ATOM     36  N   UNL     1      24.065  12.575 -25.906  1.00  0.00    -0.298 NA
ATOM     37  C   UNL     1      24.413  12.325 -24.490  1.00  0.00     0.106 C 
ATOM     38  C   UNL     1      22.965  13.564 -25.969  1.00  0.00     0.106 C 
ATOM     39  C   UNL     1      23.197  11.890 -23.636  1.00  0.00     0.133 C 
ATOM     40  C   UNL     1      21.727  13.112 -25.161  1.00  0.00     0.133 C 
ATOM     41  N   UNL     1      22.103  12.879 -23.748  1.00  0.00    -0.354 N 
BRANCH  41  42
ATOM     42  C   UNL     1      20.992  12.508 -22.957  1.00  0.00     0.128 A 
ATOM     43  C   UNL     1      20.237  13.510 -22.341  1.00  0.00     0.047 A 
ATOM     44  N   UNL     1      20.651  11.206 -22.829  1.00  0.00    -0.239 NA
ATOM     45  C   UNL     1      19.120  13.170 -21.578  1.00  0.00     0.005 A 
ATOM     46  C   UNL     1      19.569  10.898 -22.079  1.00  0.00     0.113 A 
ATOM     47  C   UNL     1      18.776  11.834 -21.444  1.00  0.00     0.020 A 
ENDBRANCH  41  42
ENDBRANCH  35  36
ENDBRANCH  34  35
ENDBRANCH   8  34
TORSDOF 9
ENDMDL
