MODEL 1
REMARK VINA RESULT:      -7.8      0.000      0.000
REMARK SMILES N=C(N)c1ccc(Nc2ccc(-c3cc4ccc(C(=N)N)cc4[nH]3)cc2)cc1
REMARK SMILES IDX 9 1 10 2 11 3 12 4 25 5 26 6 8 7 7 9 4 10 5 11 28 12 6 13
REMARK SMILES IDX 27 14 2 15 1 16 3 17 13 21 14 22 24 23 15 24 23 25 16 26
REMARK SMILES IDX 22 27 17 28 18 29 19 31 20 32 21 33
REMARK H PARENT 8 8 1 18 3 19 3 20 24 30 20 34 21 35 21 36
ROOT
ATOM      1  C   UNL     1      20.594  10.609 -23.439  1.00  0.00     0.038 A 
ATOM      2  C   UNL     1      20.497  11.392 -22.283  1.00  0.00     0.027 A 
ATOM      3  C   UNL     1      19.322  11.421 -21.522  1.00  0.00     0.012 A 
ATOM      4  C   UNL     1      18.210  10.662 -21.899  1.00  0.00    -0.002 A 
ATOM      5  C   UNL     1      18.301   9.879 -23.055  1.00  0.00     0.012 A 
ATOM      6  C   UNL     1      19.481   9.849 -23.809  1.00  0.00     0.027 A 
ENDROOT
BRANCH   1   7
ATOM      7  N   UNL     1      21.808  10.582 -24.146  1.00  0.00    -0.356 N 
ATOM      8  H   UNL     1      21.972   9.719 -24.652  1.00  0.00     0.167 HD
BRANCH   7   9
ATOM      9  C   UNL     1      22.819  11.543 -24.316  1.00  0.00     0.038 A 
ATOM     10  C   UNL     1      24.902  13.442 -24.526  1.00  0.00     0.016 A 
ATOM     11  C   UNL     1      23.617  13.747 -24.980  1.00  0.00     0.014 A 
ATOM     12  C   UNL     1      25.152  12.183 -23.974  1.00  0.00     0.014 A 
ATOM     13  C   UNL     1      22.586  12.806 -24.867  1.00  0.00     0.027 A 
ATOM     14  C   UNL     1      24.116  11.247 -23.869  1.00  0.00     0.027 A 
BRANCH  10  15
ATOM     15  C   UNL     1      25.989  14.461 -24.642  1.00  0.00     0.122 C 
ATOM     16  N   UNL     1      25.721  15.623 -25.139  1.00  0.00    -0.284 NA
ATOM     17  N   UNL     1      27.256  14.180 -24.215  1.00  0.00    -0.384 N 
ATOM     18  H   UNL     1      26.570  16.189 -25.182  1.00  0.00     0.189 HD
ATOM     19  H   UNL     1      27.841  14.986 -24.035  1.00  0.00     0.158 HD
ATOM     20  H   UNL     1      27.323  13.504 -23.461  1.00  0.00     0.158 HD
ENDBRANCH  10  15
ENDBRANCH   7   9
ENDBRANCH   1   7
BRANCH   4  21
ATOM     21  C   UNL     1      16.976  10.681 -21.114  1.00  0.00     0.046 A 
ATOM     22  C   UNL     1      15.870   9.848 -21.151  1.00  0.00     0.037 A 
ATOM     23  N   UNL     1      16.733  11.600 -20.117  1.00  0.00    -0.355 N 
ATOM     24  C   UNL     1      14.939  10.284 -20.169  1.00  0.00     0.000 A 
ATOM     25  C   UNL     1      15.503  11.388 -19.536  1.00  0.00     0.047 A 
ATOM     26  C   UNL     1      13.668   9.839 -19.760  1.00  0.00     0.011 A 
ATOM     27  C   UNL     1      14.861  12.080 -18.502  1.00  0.00     0.038 A 
ATOM     28  C   UNL     1      13.005  10.514 -18.727  1.00  0.00     0.013 A 
ATOM     29  C   UNL     1      13.593  11.622 -18.111  1.00  0.00     0.018 A 
ATOM     30  H   UNL     1      17.381  12.322 -19.834  1.00  0.00     0.167 HD
BRANCH  29  31
ATOM     31  C   UNL     1      12.868  12.308 -17.007  1.00  0.00     0.122 C 
ATOM     32  N   UNL     1      11.708  12.860 -17.170  1.00  0.00    -0.284 NA
ATOM     33  N   UNL     1      13.422  12.384 -15.765  1.00  0.00    -0.384 N 
ATOM     34  H   UNL     1      11.358  12.704 -18.120  1.00  0.00     0.189 HD
ATOM     35  H   UNL     1      14.428  12.509 -15.740  1.00  0.00     0.158 HD
ATOM     36  H   UNL     1      12.930  13.062 -15.192  1.00  0.00     0.158 HD
ENDBRANCH  29  31
ENDBRANCH   4  21
TORSDOF 5
ENDMDL
MODEL 2
REMARK VINA RESULT:      -7.7      3.058      5.802
REMARK SMILES N=C(N)c1ccc(Nc2ccc(-c3cc4ccc(C(=N)N)cc4[nH]3)cc2)cc1
REMARK SMILES IDX 9 1 10 2 11 3 12 4 25 5 26 6 8 7 7 9 4 10 5 11 28 12 6 13
REMARK SMILES IDX 27 14 2 15 1 16 3 17 13 21 14 22 24 23 15 24 23 25 16 26
REMARK SMILES IDX 22 27 17 28 18 29 19 31 20 32 21 33
REMARK H PARENT 8 8 1 18 3 19 3 20 24 30 20 34 21 35 21 36
ROOT
ATOM      1  C   UNL     1      24.284  13.820 -26.616  1.00  0.00     0.038 A 
ATOM      2  C   UNL     1      23.026  13.410 -27.075  1.00  0.00     0.027 A 
ATOM      3  C   UNL     1      22.055  12.924 -26.191  1.00  0.00     0.012 A 
ATOM      4  C   UNL     1      22.317  12.839 -24.820  1.00  0.00    -0.002 A 
ATOM      5  C   UNL     1      23.572  13.246 -24.357  1.00  0.00     0.012 A 
ATOM      6  C   UNL     1      24.539  13.736 -25.244  1.00  0.00     0.027 A 
ENDROOT
BRANCH   1   7
ATOM      7  N   UNL     1      25.211  14.338 -27.536  1.00  0.00    -0.356 N 
ATOM      8  H   UNL     1      25.488  13.682 -28.257  1.00  0.00     0.167 HD
BRANCH   7   9
ATOM      9  C   UNL     1      25.795  15.609 -27.668  1.00  0.00     0.038 A 
ATOM     10  C   UNL     1      26.926  18.196 -27.801  1.00  0.00     0.016 A 
ATOM     11  C   UNL     1      26.248  17.662 -28.900  1.00  0.00     0.014 A 
ATOM     12  C   UNL     1      27.050  17.434 -26.637  1.00  0.00     0.014 A 
ATOM     13  C   UNL     1      25.683  16.384 -28.827  1.00  0.00     0.027 A 
ATOM     14  C   UNL     1      26.485  16.155 -26.575  1.00  0.00     0.027 A 
BRANCH  10  15
ATOM     15  C   UNL     1      27.514  19.567 -27.890  1.00  0.00     0.122 C 
ATOM     16  N   UNL     1      28.076  19.949 -28.990  1.00  0.00    -0.284 NA
ATOM     17  N   UNL     1      27.451  20.423 -26.827  1.00  0.00    -0.384 N 
ATOM     18  H   UNL     1      28.455  20.890 -28.879  1.00  0.00     0.189 HD
ATOM     19  H   UNL     1      27.577  21.402 -27.050  1.00  0.00     0.158 HD
ATOM     20  H   UNL     1      26.660  20.288 -26.205  1.00  0.00     0.158 HD
ENDBRANCH  10  15
ENDBRANCH   7   9
ENDBRANCH   1   7
BRANCH   4  21
ATOM     21  C   UNL     1      21.311  12.334 -23.885  1.00  0.00     0.046 A 
ATOM     22  C   UNL     1      21.330  11.231 -23.048  1.00  0.00     0.037 A 
ATOM     23  N   UNL     1      20.105  12.963 -23.667  1.00  0.00    -0.355 N 
ATOM     24  C   UNL     1      20.107  11.186 -22.327  1.00  0.00     0.000 A 
ATOM     25  C   UNL     1      19.352  12.283 -22.736  1.00  0.00     0.047 A 
ATOM     26  C   UNL     1      19.572  10.314 -21.361  1.00  0.00     0.011 A 
ATOM     27  C   UNL     1      18.078  12.561 -22.226  1.00  0.00     0.038 A 
ATOM     28  C   UNL     1      18.299  10.570 -20.834  1.00  0.00     0.013 A 
ATOM     29  C   UNL     1      17.563  11.677 -21.266  1.00  0.00     0.018 A 
ATOM     30  H   UNL     1      19.817  13.821 -24.116  1.00  0.00     0.167 HD
BRANCH  29  31
ATOM     31  C   UNL     1      16.220  11.929 -20.676  1.00  0.00     0.122 C 
ATOM     32  N   UNL     1      15.256  12.480 -21.343  1.00  0.00    -0.284 NA
ATOM     33  N   UNL     1      15.963  11.586 -19.383  1.00  0.00    -0.384 N 
ATOM     34  H   UNL     1      15.533  12.652 -22.314  1.00  0.00     0.189 HD
ATOM     35  H   UNL     1      16.730  11.715 -18.734  1.00  0.00     0.158 HD
ATOM     36  H   UNL     1      15.102  12.017 -19.060  1.00  0.00     0.158 HD
ENDBRANCH  29  31
ENDBRANCH   4  21
TORSDOF 5
ENDMDL
MODEL 3
REMARK VINA RESULT:      -7.7      4.982     12.789
REMARK SMILES N=C(N)c1ccc(Nc2ccc(-c3cc4ccc(C(=N)N)cc4[nH]3)cc2)cc1
REMARK SMILES IDX 9 1 10 2 11 3 12 4 25 5 26 6 8 7 7 9 4 10 5 11 28 12 6 13
REMARK SMILES IDX 27 14 2 15 1 16 3 17 13 21 14 22 24 23 15 24 23 25 16 26
REMARK SMILES IDX 22 27 17 28 18 29 19 31 20 32 21 33
REMARK H PARENT 8 8 1 18 3 19 3 20 24 30 20 34 21 35 21 36
ROOT
ATOM      1  C   UNL     1      24.776  12.357 -24.162  1.00  0.00     0.038 A 
ATOM      2  C   UNL     1      25.734  13.264 -24.632  1.00  0.00     0.027 A 
ATOM      3  C   UNL     1      27.079  13.155 -24.260  1.00  0.00     0.012 A 
ATOM      4  C   UNL     1      27.503  12.130 -23.408  1.00  0.00    -0.002 A 
ATOM      5  C   UNL     1      26.550  11.222 -22.935  1.00  0.00     0.012 A 
ATOM      6  C   UNL     1      25.205  11.332 -23.314  1.00  0.00     0.027 A 
ENDROOT
BRANCH   1   7
ATOM      7  N   UNL     1      23.445  12.484 -24.596  1.00  0.00    -0.356 N 
ATOM      8  H   UNL     1      23.339  12.492 -25.604  1.00  0.00     0.167 HD
BRANCH   7   9
ATOM      9  C   UNL     1      22.230  12.562 -23.894  1.00  0.00     0.038 A 
ATOM     10  C   UNL     1      19.837  12.833 -22.414  1.00  0.00     0.016 A 
ATOM     11  C   UNL     1      20.399  11.572 -22.627  1.00  0.00     0.014 A 
ATOM     12  C   UNL     1      20.465  13.961 -22.950  1.00  0.00     0.014 A 
ATOM     13  C   UNL     1      21.589  11.443 -23.354  1.00  0.00     0.027 A 
ATOM     14  C   UNL     1      21.651  13.821 -23.679  1.00  0.00     0.027 A 
BRANCH  10  15
ATOM     15  C   UNL     1      18.574  12.957 -21.627  1.00  0.00     0.122 C 
ATOM     16  N   UNL     1      17.437  12.964 -22.243  1.00  0.00    -0.284 NA
ATOM     17  N   UNL     1      18.608  13.048 -20.264  1.00  0.00    -0.384 N 
ATOM     18  H   UNL     1      16.678  13.089 -21.573  1.00  0.00     0.189 HD
ATOM     19  H   UNL     1      17.742  12.817 -19.793  1.00  0.00     0.158 HD
ATOM     20  H   UNL     1      19.400  12.598 -19.817  1.00  0.00     0.158 HD
ENDBRANCH  10  15
ENDBRANCH   7   9
ENDBRANCH   1   7
BRANCH   4  21
ATOM     21  C   UNL     1      28.905  12.002 -23.012  1.00  0.00     0.046 A 
ATOM     22  C   UNL     1      30.065  12.397 -23.659  1.00  0.00     0.037 A 
ATOM     23  N   UNL     1      29.302  11.445 -21.816  1.00  0.00    -0.355 N 
ATOM     24  C   UNL     1      31.179  12.056 -22.845  1.00  0.00     0.000 A 
ATOM     25  C   UNL     1      30.673  11.456 -21.694  1.00  0.00     0.047 A 
ATOM     26  C   UNL     1      32.572  12.204 -22.979  1.00  0.00     0.011 A 
ATOM     27  C   UNL     1      31.492  10.993 -20.657  1.00  0.00     0.038 A 
ATOM     28  C   UNL     1      33.412  11.749 -21.956  1.00  0.00     0.013 A 
ATOM     29  C   UNL     1      32.877  11.148 -20.813  1.00  0.00     0.018 A 
ATOM     30  H   UNL     1      28.669  11.093 -21.111  1.00  0.00     0.167 HD
BRANCH  29  31
ATOM     31  C   UNL     1      33.798  10.688 -19.737  1.00  0.00     0.122 C 
ATOM     32  N   UNL     1      34.239   9.473 -19.668  1.00  0.00    -0.284 NA
ATOM     33  N   UNL     1      34.204  11.553 -18.766  1.00  0.00    -0.384 N 
ATOM     34  H   UNL     1      33.919   8.919 -20.468  1.00  0.00     0.189 HD
ATOM     35  H   UNL     1      33.510  12.224 -18.458  1.00  0.00     0.158 HD
ATOM     36  H   UNL     1      34.632  11.051 -17.994  1.00  0.00     0.158 HD
ENDBRANCH  29  31
ENDBRANCH   4  21
TORSDOF 5
ENDMDL
