MODEL 1
REMARK VINA RESULT:      -7.7      0.000      0.000
REMARK SMILES Nc1cc2c(=O)c(C(=O)O)cn(C3CC3)c2cc1N1CCN(c2ccccn2)CC1
REMARK SMILES IDX 2 1 3 2 4 3 5 4 6 5 7 6 11 7 12 8 16 9 17 10 18 11 1 12
REMARK SMILES IDX 19 15 20 16 30 17 21 18 29 19 22 20 23 21 24 22 28 23 25 24
REMARK SMILES IDX 27 25 26 26 8 27 9 28 10 29 13 31 14 32 15 33
REMARK H PARENT 1 13 1 14 10 30
ROOT
ATOM      1  C   UNL     1      23.657  20.307  -6.523  1.00  0.00     0.056 A 
ATOM      2  C   UNL     1      22.949  19.342  -7.234  1.00  0.00     0.042 A 
ATOM      3  C   UNL     1      23.394  18.933  -8.495  1.00  0.00     0.049 A 
ATOM      4  C   UNL     1      22.599  17.933  -9.255  1.00  0.00     0.204 C 
ATOM      5  O   UNL     1      21.475  17.628  -8.874  1.00  0.00    -0.288 OA
ATOM      6  C   UNL     1      23.202  17.374 -10.486  1.00  0.00     0.124 C 
ATOM      7  C   UNL     1      24.335  17.943 -10.931  1.00  0.00     0.106 C 
ATOM      8  N   UNL     1      25.006  18.995 -10.334  1.00  0.00    -0.343 N 
ATOM      9  C   UNL     1      24.582  19.446  -9.051  1.00  0.00     0.054 A 
ATOM     10  C   UNL     1      25.308  20.386  -8.303  1.00  0.00     0.055 A 
ATOM     11  C   UNL     1      24.861  20.831  -7.047  1.00  0.00     0.062 A 
ENDROOT
BRANCH   1  12
ATOM     12  N   UNL     1      23.285  20.621  -5.198  1.00  0.00    -0.397 N 
ATOM     13  H   UNL     1      24.070  20.719  -4.568  1.00  0.00     0.156 HD
ATOM     14  H   UNL     1      22.597  19.932  -4.886  1.00  0.00     0.156 HD
ENDBRANCH   1  12
BRANCH  11  15
ATOM     15  N   UNL     1      25.577  21.769  -6.269  1.00  0.00    -0.366 N 
ATOM     16  C   UNL     1      26.820  22.232  -6.947  1.00  0.00     0.138 C 
ATOM     17  C   UNL     1      24.770  22.850  -5.660  1.00  0.00     0.138 C 
ATOM     18  C   UNL     1      26.793  23.748  -7.250  1.00  0.00     0.139 C 
ATOM     19  C   UNL     1      25.671  23.933  -5.023  1.00  0.00     0.139 C 
ATOM     20  N   UNL     1      26.595  24.530  -6.010  1.00  0.00    -0.353 N 
BRANCH  20  21
ATOM     21  C   UNL     1      26.519  25.912  -6.194  1.00  0.00     0.128 A 
ATOM     22  C   UNL     1      26.230  26.439  -7.454  1.00  0.00     0.047 A 
ATOM     23  N   UNL     1      26.685  26.733  -5.132  1.00  0.00    -0.239 NA
ATOM     24  C   UNL     1      26.142  27.819  -7.636  1.00  0.00     0.005 A 
ATOM     25  C   UNL     1      26.598  28.067  -5.327  1.00  0.00     0.113 A 
ATOM     26  C   UNL     1      26.333  28.655  -6.548  1.00  0.00     0.020 A 
ENDBRANCH  20  21
ENDBRANCH  11  15
BRANCH   6  27
ATOM     27  C   UNL     1      22.652  16.258 -11.263  1.00  0.00     0.341 C 
ATOM     28  O   UNL     1      22.174  15.234 -10.798  1.00  0.00    -0.246 OA
BRANCH  27  29
ATOM     29  O   UNL     1      22.646  16.478 -12.586  1.00  0.00    -0.477 OA
ATOM     30  H   UNL     1      21.882  15.972 -12.926  1.00  0.00     0.297 HD
ENDBRANCH  27  29
ENDBRANCH   6  27
BRANCH   8  31
ATOM     31  C   UNL     1      26.278  19.442 -10.932  1.00  0.00     0.087 C 
ATOM     32  C   UNL     1      27.368  18.474 -11.327  1.00  0.00     0.027 C 
ATOM     33  C   UNL     1      26.595  19.191 -12.386  1.00  0.00     0.027 C 
ENDBRANCH   8  31
TORSDOF 6
ENDMDL
MODEL 2
REMARK VINA RESULT:      -7.4     17.444     20.713
REMARK SMILES Nc1cc2c(=O)c(C(=O)O)cn(C3CC3)c2cc1N1CCN(c2ccccn2)CC1
REMARK SMILES IDX 2 1 3 2 4 3 5 4 6 5 7 6 11 7 12 8 16 9 17 10 18 11 1 12
REMARK SMILES IDX 19 15 20 16 30 17 21 18 29 19 22 20 23 21 24 22 28 23 25 24
REMARK SMILES IDX 27 25 26 26 8 27 9 28 10 29 13 31 14 32 15 33
REMARK H PARENT 1 13 1 14 10 30
ROOT
ATOM      1  C   UNL     1      19.208  12.231 -21.282  1.00  0.00     0.056 A 
ATOM      2  C   UNL     1      20.051  12.924 -22.148  1.00  0.00     0.042 A 
ATOM      3  C   UNL     1      20.800  12.228 -23.103  1.00  0.00     0.049 A 
ATOM      4  C   UNL     1      21.725  12.984 -23.988  1.00  0.00     0.204 C 
ATOM      5  O   UNL     1      21.977  14.159 -23.748  1.00  0.00    -0.288 OA
ATOM      6  C   UNL     1      22.343  12.250 -25.115  1.00  0.00     0.124 C 
ATOM      7  C   UNL     1      22.174  10.918 -25.149  1.00  0.00     0.106 C 
ATOM      8  N   UNL     1      21.459  10.164 -24.236  1.00  0.00    -0.343 N 
ATOM      9  C   UNL     1      20.686  10.832 -23.243  1.00  0.00     0.054 A 
ATOM     10  C   UNL     1      19.800  10.153 -22.392  1.00  0.00     0.055 A 
ATOM     11  C   UNL     1      19.061  10.830 -21.407  1.00  0.00     0.062 A 
ENDROOT
BRANCH   1  12
ATOM     12  N   UNL     1      18.354  12.941 -20.411  1.00  0.00    -0.397 N 
ATOM     13  H   UNL     1      17.375  12.866 -20.652  1.00  0.00     0.156 HD
ATOM     14  H   UNL     1      18.686  13.906 -20.352  1.00  0.00     0.156 HD
ENDBRANCH   1  12
BRANCH  11  15
ATOM     15  N   UNL     1      18.156  10.173 -20.544  1.00  0.00    -0.366 N 
ATOM     16  C   UNL     1      16.752  10.246 -21.038  1.00  0.00     0.138 C 
ATOM     17  C   UNL     1      18.572   8.832 -20.074  1.00  0.00     0.138 C 
ATOM     18  C   UNL     1      16.169   8.852 -21.360  1.00  0.00     0.139 C 
ATOM     19  C   UNL     1      17.423   8.118 -19.324  1.00  0.00     0.139 C 
ATOM     20  N   UNL     1      16.222   7.971 -20.171  1.00  0.00    -0.353 N 
BRANCH  20  21
ATOM     21  C   UNL     1      15.750   6.673 -20.382  1.00  0.00     0.128 A 
ATOM     22  C   UNL     1      15.353   5.884 -19.301  1.00  0.00     0.047 A 
ATOM     23  N   UNL     1      15.642   6.204 -21.646  1.00  0.00    -0.239 NA
ATOM     24  C   UNL     1      14.873   4.592 -19.512  1.00  0.00     0.005 A 
ATOM     25  C   UNL     1      15.176   4.950 -21.832  1.00  0.00     0.113 A 
ATOM     26  C   UNL     1      14.782   4.110 -20.807  1.00  0.00     0.020 A 
ENDBRANCH  20  21
ENDBRANCH  11  15
BRANCH   6  27
ATOM     27  C   UNL     1      23.133  12.863 -26.188  1.00  0.00     0.341 C 
ATOM     28  O   UNL     1      24.241  12.501 -26.553  1.00  0.00    -0.246 OA
BRANCH  27  29
ATOM     29  O   UNL     1      22.493  13.856 -26.822  1.00  0.00    -0.477 OA
ATOM     30  H   UNL     1      21.618  13.488 -27.056  1.00  0.00     0.297 HD
ENDBRANCH  27  29
ENDBRANCH   6  27
BRANCH   8  31
ATOM     31  C   UNL     1      21.326   8.715 -24.478  1.00  0.00     0.087 C 
ATOM     32  C   UNL     1      20.376   8.153 -25.509  1.00  0.00     0.027 C 
ATOM     33  C   UNL     1      21.852   8.076 -25.740  1.00  0.00     0.027 C 
ENDBRANCH   8  31
TORSDOF 6
ENDMDL
MODEL 3
REMARK VINA RESULT:      -7.1      0.512      1.061
REMARK SMILES Nc1cc2c(=O)c(C(=O)O)cn(C3CC3)c2cc1N1CCN(c2ccccn2)CC1
REMARK SMILES IDX 2 1 3 2 4 3 5 4 6 5 7 6 11 7 12 8 16 9 17 10 18 11 1 12
REMARK SMILES IDX 19 15 20 16 30 17 21 18 29 19 22 20 23 21 24 22 28 23 25 24
REMARK SMILES IDX 27 25 26 26 8 27 9 28 10 29 13 31 14 32 15 33
REMARK H PARENT 1 13 1 14 10 30
ROOT
ATOM      1  C   UNL     1      23.635  20.235  -6.383  1.00  0.00     0.056 A 
ATOM      2  C   UNL     1      22.928  19.291  -7.123  1.00  0.00     0.042 A 
ATOM      3  C   UNL     1      23.369  18.930  -8.401  1.00  0.00     0.049 A 
ATOM      4  C   UNL     1      22.575  17.953  -9.191  1.00  0.00     0.204 C 
ATOM      5  O   UNL     1      21.455  17.628  -8.815  1.00  0.00    -0.288 OA
ATOM      6  C   UNL     1      23.174  17.442 -10.444  1.00  0.00     0.124 C 
ATOM      7  C   UNL     1      24.302  18.032 -10.874  1.00  0.00     0.106 C 
ATOM      8  N   UNL     1      24.970  19.066 -10.244  1.00  0.00    -0.343 N 
ATOM      9  C   UNL     1      24.550  19.470  -8.944  1.00  0.00     0.054 A 
ATOM     10  C   UNL     1      25.275  20.387  -8.167  1.00  0.00     0.055 A 
ATOM     11  C   UNL     1      24.833  20.784  -6.894  1.00  0.00     0.062 A 
ENDROOT
BRANCH   1  12
ATOM     12  N   UNL     1      23.268  20.500  -5.045  1.00  0.00    -0.397 N 
ATOM     13  H   UNL     1      23.092  19.667  -4.499  1.00  0.00     0.156 HD
ATOM     14  H   UNL     1      22.484  21.156  -5.051  1.00  0.00     0.156 HD
ENDBRANCH   1  12
BRANCH  11  15
ATOM     15  N   UNL     1      25.548  21.699  -6.087  1.00  0.00    -0.366 N 
ATOM     16  C   UNL     1      26.797  22.174  -6.745  1.00  0.00     0.138 C 
ATOM     17  C   UNL     1      24.741  22.767  -5.455  1.00  0.00     0.138 C 
ATOM     18  C   UNL     1      26.778  23.697  -7.009  1.00  0.00     0.139 C 
ATOM     19  C   UNL     1      25.643  23.829  -4.784  1.00  0.00     0.139 C 
ATOM     20  N   UNL     1      26.576  24.447  -5.749  1.00  0.00    -0.353 N 
BRANCH  20  21
ATOM     21  C   UNL     1      26.506  25.834  -5.897  1.00  0.00     0.128 A 
ATOM     22  C   UNL     1      26.829  26.674  -4.830  1.00  0.00     0.047 A 
ATOM     23  N   UNL     1      26.163  26.356  -7.097  1.00  0.00    -0.239 NA
ATOM     24  C   UNL     1      26.770  28.059  -4.981  1.00  0.00     0.005 A 
ATOM     25  C   UNL     1      26.110  27.700  -7.225  1.00  0.00     0.113 A 
ATOM     26  C   UNL     1      26.400  28.587  -6.207  1.00  0.00     0.020 A 
ENDBRANCH  20  21
ENDBRANCH  11  15
BRANCH   6  27
ATOM     27  C   UNL     1      22.627  16.350 -11.257  1.00  0.00     0.341 C 
ATOM     28  O   UNL     1      22.733  16.241 -12.469  1.00  0.00    -0.246 OA
BRANCH  27  29
ATOM     29  O   UNL     1      22.030  15.392 -10.532  1.00  0.00    -0.477 OA
ATOM     30  H   UNL     1      22.629  15.234  -9.775  1.00  0.00     0.297 HD
ENDBRANCH  27  29
ENDBRANCH   6  27
BRANCH   8  31
ATOM     31  C   UNL     1      26.237  19.542 -10.833  1.00  0.00     0.087 C 
ATOM     32  C   UNL     1      27.356  18.599 -11.208  1.00  0.00     0.027 C 
ATOM     33  C   UNL     1      26.575  19.287 -12.281  1.00  0.00     0.027 C 
ENDBRANCH   8  31
TORSDOF 6
ENDMDL
