MODEL 1
REMARK VINA RESULT:      -5.9      0.000      0.000
REMARK SMILES CC(=O)Nc1nc(-c2cccc(NC(=O)C(CNC(=O)[C@@H](N)CCCCN)NC(=O)[C@@H](N)CCCCN)c2)cs1
REMARK SMILES IDX 16 1 14 2 13 3 15 4 12 6 8 7 9 8 38 9 10 10 11 11 7 12 5 13
REMARK SMILES IDX 6 14 40 15 39 16 4 17 2 18 3 19 1 20 17 22 18 23 19 24 20 25
REMARK SMILES IDX 21 27 22 28 23 31 24 32 25 33 26 34 27 35 28 38 29 39 30 40
REMARK SMILES IDX 31 42 32 43 33 46 34 47 35 48 36 49 37 50
REMARK H PARENT 13 5 4 21 18 26 22 29 22 30 27 36 27 37 28 41 32 44 32 45
REMARK H PARENT 37 51 37 52
ROOT
ATOM      1  C   UNL     1      25.734  23.545  -8.316  1.00  0.00     0.191 C 
ENDROOT
BRANCH   1   2
ATOM      2  C   UNL     1      27.071  24.292  -8.574  1.00  0.00     0.248 C 
ATOM      3  N   UNL     1      27.124  24.855  -9.842  1.00  0.00    -0.324 N 
ATOM      4  O   UNL     1      28.006  24.234  -7.776  1.00  0.00    -0.272 OA
ATOM      5  H   UNL     1      26.316  24.680 -10.429  1.00  0.00     0.170 HD
BRANCH   3   6
ATOM      6  C   UNL     1      28.170  25.584 -10.441  1.00  0.00     0.041 A 
ATOM      7  C   UNL     1      30.284  25.820 -11.619  1.00  0.00     0.003 A 
ATOM      8  C   UNL     1      30.172  27.216 -11.544  1.00  0.00     0.010 A 
ATOM      9  C   UNL     1      29.275  25.009 -11.071  1.00  0.00     0.036 A 
ATOM     10  C   UNL     1      29.065  27.793 -10.928  1.00  0.00     0.003 A 
ATOM     11  C   UNL     1      28.072  26.982 -10.380  1.00  0.00     0.026 A 
BRANCH   7  12
ATOM     12  C   UNL     1      31.423  25.209 -12.286  1.00  0.00     0.084 A 
ATOM     13  C   UNL     1      32.727  23.541 -12.894  1.00  0.00     0.189 A 
ATOM     14  N   UNL     1      31.679  23.855 -12.168  1.00  0.00    -0.220 NA
ATOM     15  S   UNL     1      33.487  24.830 -13.711  1.00  0.00    -0.105 S 
ATOM     16  C   UNL     1      32.311  25.907 -13.080  1.00  0.00     0.097 A 
BRANCH  13  17
ATOM     17  N   UNL     1      33.143  22.239 -12.993  1.00  0.00    -0.302 N 
ATOM     18  C   UNL     1      33.269  21.325 -11.975  1.00  0.00     0.223 C 
ATOM     19  O   UNL     1      32.956  21.466 -10.799  1.00  0.00    -0.275 OA
ATOM     20  C   UNL     1      33.888  20.036 -12.456  1.00  0.00     0.114 C 
ATOM     21  H   UNL     1      33.437  21.997 -13.932  1.00  0.00     0.172 HD
ENDBRANCH  13  17
ENDBRANCH   7  12
ENDBRANCH   3   6
ENDBRANCH   1   2
BRANCH   1  22
ATOM     22  C   UNL     1      24.513  24.412  -8.697  1.00  0.00     0.151 C 
BRANCH  22  23
ATOM     23  N   UNL     1      23.414  24.644  -7.750  1.00  0.00    -0.352 N 
ATOM     24  C   UNL     1      22.149  25.121  -8.008  1.00  0.00     0.237 C 
ATOM     25  O   UNL     1      21.747  25.426  -9.131  1.00  0.00    -0.273 OA
ATOM     26  H   UNL     1      23.655  24.515  -6.774  1.00  0.00     0.163 HD
BRANCH  24  27
ATOM     27  C   UNL     1      21.290  25.287  -6.730  1.00  0.00     0.141 C 
BRANCH  27  28
ATOM     28  N   UNL     1      20.669  26.626  -6.765  1.00  0.00    -0.320 NA
ATOM     29  H   UNL     1      21.199  27.242  -6.143  1.00  0.00     0.119 HD
ATOM     30  H   UNL     1      19.733  26.584  -6.361  1.00  0.00     0.119 HD
ENDBRANCH  27  28
BRANCH  27  31
ATOM     31  C   UNL     1      20.198  24.211  -6.624  1.00  0.00     0.029 C 
BRANCH  31  32
ATOM     32  C   UNL     1      18.811  24.775  -6.958  1.00  0.00     0.003 C 
BRANCH  32  33
ATOM     33  C   UNL     1      17.776  24.379  -5.904  1.00  0.00     0.015 C 
BRANCH  33  34
ATOM     34  C   UNL     1      17.931  22.908  -5.508  1.00  0.00     0.077 C 
BRANCH  34  35
ATOM     35  N   UNL     1      16.805  22.110  -5.979  1.00  0.00    -0.330 NA
ATOM     36  H   UNL     1      16.376  21.619  -5.196  1.00  0.00     0.118 HD
ATOM     37  H   UNL     1      16.081  22.726  -6.352  1.00  0.00     0.118 HD
ENDBRANCH  34  35
ENDBRANCH  33  34
ENDBRANCH  32  33
ENDBRANCH  31  32
ENDBRANCH  27  31
ENDBRANCH  24  27
ENDBRANCH  22  23
ENDBRANCH   1  22
BRANCH   1  38
ATOM     38  N   UNL     1      25.681  22.210  -8.926  1.00  0.00    -0.341 N 
ATOM     39  C   UNL     1      25.246  21.087  -8.275  1.00  0.00     0.237 C 
ATOM     40  O   UNL     1      24.815  21.118  -7.124  1.00  0.00    -0.273 OA
ATOM     41  H   UNL     1      26.350  22.092  -9.683  1.00  0.00     0.164 HD
BRANCH  39  42
ATOM     42  C   UNL     1      25.434  19.767  -9.062  1.00  0.00     0.141 C 
BRANCH  42  43
ATOM     43  N   UNL     1      24.188  18.976  -9.019  1.00  0.00    -0.320 NA
ATOM     44  H   UNL     1      24.368  18.048  -8.636  1.00  0.00     0.119 HD
ATOM     45  H   UNL     1      23.891  18.805  -9.989  1.00  0.00     0.119 HD
ENDBRANCH  42  43
BRANCH  42  46
ATOM     46  C   UNL     1      25.947  19.996 -10.495  1.00  0.00     0.029 C 
BRANCH  46  47
ATOM     47  C   UNL     1      26.715  18.816 -11.104  1.00  0.00     0.003 C 
BRANCH  47  48
ATOM     48  C   UNL     1      25.821  18.020 -12.061  1.00  0.00     0.015 C 
BRANCH  48  49
ATOM     49  C   UNL     1      26.573  16.959 -12.865  1.00  0.00     0.077 C 
BRANCH  49  50
ATOM     50  N   UNL     1      26.965  17.434 -14.186  1.00  0.00    -0.330 NA
ATOM     51  H   UNL     1      27.093  16.631 -14.805  1.00  0.00     0.118 HD
ATOM     52  H   UNL     1      27.877  17.894 -14.137  1.00  0.00     0.118 HD
ENDBRANCH  49  50
ENDBRANCH  48  49
ENDBRANCH  47  48
ENDBRANCH  46  47
ENDBRANCH  42  46
ENDBRANCH  39  42
ENDBRANCH   1  38
TORSDOF 21
ENDMDL
MODEL 2
REMARK VINA RESULT:      -5.8      2.389      2.585
REMARK SMILES CC(=O)Nc1nc(-c2cccc(NC(=O)C(CNC(=O)[C@@H](N)CCCCN)NC(=O)[C@@H](N)CCCCN)c2)cs1
REMARK SMILES IDX 16 1 14 2 13 3 15 4 12 6 8 7 9 8 38 9 10 10 11 11 7 12 5 13
REMARK SMILES IDX 6 14 40 15 39 16 4 17 2 18 3 19 1 20 17 22 18 23 19 24 20 25
REMARK SMILES IDX 21 27 22 28 23 31 24 32 25 33 26 34 27 35 28 38 29 39 30 40
REMARK SMILES IDX 31 42 32 43 33 46 34 47 35 48 36 49 37 50
REMARK H PARENT 13 5 4 21 18 26 22 29 22 30 27 36 27 37 28 41 32 44 32 45
REMARK H PARENT 37 51 37 52
ROOT
ATOM      1  C   UNL     1      25.961  23.589  -8.719  1.00  0.00     0.191 C 
ENDROOT
BRANCH   1   2
ATOM      2  C   UNL     1      27.043  24.685  -8.915  1.00  0.00     0.248 C 
ATOM      3  N   UNL     1      27.515  24.733 -10.220  1.00  0.00    -0.324 N 
ATOM      4  O   UNL     1      27.507  25.310  -7.962  1.00  0.00    -0.272 OA
ATOM      5  H   UNL     1      27.124  24.040 -10.849  1.00  0.00     0.170 HD
BRANCH   3   6
ATOM      6  C   UNL     1      28.503  25.573 -10.772  1.00  0.00     0.041 A 
ATOM      7  C   UNL     1      30.635  26.040 -11.842  1.00  0.00     0.003 A 
ATOM      8  C   UNL     1      30.364  27.414 -11.785  1.00  0.00     0.010 A 
ATOM      9  C   UNL     1      29.696  25.122 -11.339  1.00  0.00     0.036 A 
ATOM     10  C   UNL     1      29.170  27.866 -11.232  1.00  0.00     0.003 A 
ATOM     11  C   UNL     1      28.246  26.950 -10.728  1.00  0.00     0.026 A 
BRANCH   7  12
ATOM     12  C   UNL     1      31.867  25.558 -12.445  1.00  0.00     0.084 A 
ATOM     13  C   UNL     1      33.110  24.173 -13.626  1.00  0.00     0.189 A 
ATOM     14  N   UNL     1      31.903  24.364 -13.144  1.00  0.00    -0.220 NA
ATOM     15  S   UNL     1      34.268  25.363 -13.242  1.00  0.00    -0.105 S 
ATOM     16  C   UNL     1      33.068  26.237 -12.383  1.00  0.00     0.097 A 
BRANCH  13  17
ATOM     17  N   UNL     1      33.382  23.086 -14.415  1.00  0.00    -0.302 N 
ATOM     18  C   UNL     1      33.205  21.761 -14.096  1.00  0.00     0.223 C 
ATOM     19  O   UNL     1      32.692  21.295 -13.086  1.00  0.00    -0.275 OA
ATOM     20  C   UNL     1      33.749  20.852 -15.171  1.00  0.00     0.114 C 
ATOM     21  H   UNL     1      33.819  23.343 -15.291  1.00  0.00     0.172 HD
ENDBRANCH  13  17
ENDBRANCH   7  12
ENDBRANCH   3   6
ENDBRANCH   1   2
BRANCH   1  22
ATOM     22  C   UNL     1      24.560  24.202  -8.493  1.00  0.00     0.151 C 
BRANCH  22  23
ATOM     23  N   UNL     1      24.081  24.537  -7.146  1.00  0.00    -0.352 N 
ATOM     24  C   UNL     1      24.093  25.760  -6.513  1.00  0.00     0.237 C 
ATOM     25  O   UNL     1      24.526  26.792  -7.025  1.00  0.00    -0.273 OA
ATOM     26  H   UNL     1      23.783  23.746  -6.588  1.00  0.00     0.163 HD
BRANCH  24  27
ATOM     27  C   UNL     1      23.553  25.699  -5.063  1.00  0.00     0.141 C 
BRANCH  27  28
ATOM     28  N   UNL     1      22.850  26.966  -4.782  1.00  0.00    -0.320 NA
ATOM     29  H   UNL     1      21.876  26.865  -5.078  1.00  0.00     0.119 HD
ATOM     30  H   UNL     1      23.229  27.709  -5.370  1.00  0.00     0.119 HD
ENDBRANCH  27  28
BRANCH  27  31
ATOM     31  C   UNL     1      22.595  24.516  -4.852  1.00  0.00     0.029 C 
BRANCH  31  32
ATOM     32  C   UNL     1      23.239  23.407  -4.010  1.00  0.00     0.003 C 
BRANCH  32  33
ATOM     33  C   UNL     1      22.633  22.039  -4.328  1.00  0.00     0.015 C 
BRANCH  33  34
ATOM     34  C   UNL     1      23.369  21.370  -5.492  1.00  0.00     0.077 C 
BRANCH  34  35
ATOM     35  N   UNL     1      24.735  21.867  -5.612  1.00  0.00    -0.330 NA
ATOM     36  H   UNL     1      24.738  22.885  -5.574  1.00  0.00     0.118 HD
ATOM     37  H   UNL     1      25.283  21.557  -4.809  1.00  0.00     0.118 HD
ENDBRANCH  34  35
ENDBRANCH  33  34
ENDBRANCH  32  33
ENDBRANCH  31  32
ENDBRANCH  27  31
ENDBRANCH  24  27
ENDBRANCH  22  23
ENDBRANCH   1  22
BRANCH   1  38
ATOM     38  N   UNL     1      25.959  22.571  -9.779  1.00  0.00    -0.341 N 
ATOM     39  C   UNL     1      25.718  21.241  -9.564  1.00  0.00     0.237 C 
ATOM     40  O   UNL     1      25.434  20.794  -8.454  1.00  0.00    -0.273 OA
ATOM     41  H   UNL     1      26.535  22.828 -10.577  1.00  0.00     0.164 HD
BRANCH  39  42
ATOM     42  C   UNL     1      25.930  20.335 -10.801  1.00  0.00     0.141 C 
BRANCH  42  43
ATOM     43  N   UNL     1      26.956  20.926 -11.684  1.00  0.00    -0.320 NA
ATOM     44  H   UNL     1      27.070  20.361 -12.526  1.00  0.00     0.119 HD
ATOM     45  H   UNL     1      27.862  20.858 -11.201  1.00  0.00     0.119 HD
ENDBRANCH  42  43
BRANCH  42  46
ATOM     46  C   UNL     1      26.236  18.875 -10.425  1.00  0.00     0.029 C 
BRANCH  46  47
ATOM     47  C   UNL     1      27.242  18.167 -11.341  1.00  0.00     0.003 C 
BRANCH  47  48
ATOM     48  C   UNL     1      26.517  17.306 -12.381  1.00  0.00     0.015 C 
BRANCH  48  49
ATOM     49  C   UNL     1      27.035  17.500 -13.807  1.00  0.00     0.077 C 
BRANCH  49  50
ATOM     50  N   UNL     1      27.497  18.861 -14.051  1.00  0.00    -0.330 NA
ATOM     51  H   UNL     1      26.928  19.279 -14.791  1.00  0.00     0.118 HD
ATOM     52  H   UNL     1      28.453  18.848 -14.412  1.00  0.00     0.118 HD
ENDBRANCH  49  50
ENDBRANCH  48  49
ENDBRANCH  47  48
ENDBRANCH  46  47
ENDBRANCH  42  46
ENDBRANCH  39  42
ENDBRANCH   1  38
TORSDOF 21
ENDMDL
MODEL 3
REMARK VINA RESULT:      -5.8      3.166      6.068
REMARK SMILES CC(=O)Nc1nc(-c2cccc(NC(=O)C(CNC(=O)[C@@H](N)CCCCN)NC(=O)[C@@H](N)CCCCN)c2)cs1
REMARK SMILES IDX 16 1 14 2 13 3 15 4 12 6 8 7 9 8 38 9 10 10 11 11 7 12 5 13
REMARK SMILES IDX 6 14 40 15 39 16 4 17 2 18 3 19 1 20 17 22 18 23 19 24 20 25
REMARK SMILES IDX 21 27 22 28 23 31 24 32 25 33 26 34 27 35 28 38 29 39 30 40
REMARK SMILES IDX 31 42 32 43 33 46 34 47 35 48 36 49 37 50
REMARK H PARENT 13 5 4 21 18 26 22 29 22 30 27 36 27 37 28 41 32 44 32 45
REMARK H PARENT 37 51 37 52
ROOT
ATOM      1  C   UNL     1      25.328  21.862  -8.600  1.00  0.00     0.191 C 
ENDROOT
BRANCH   1   2
ATOM      2  C   UNL     1      25.993  22.987  -9.441  1.00  0.00     0.248 C 
ATOM      3  N   UNL     1      26.304  24.103  -8.676  1.00  0.00    -0.324 N 
ATOM      4  O   UNL     1      26.074  22.912 -10.666  1.00  0.00    -0.272 OA
ATOM      5  H   UNL     1      26.033  24.051  -7.701  1.00  0.00     0.170 HD
BRANCH   3   6
ATOM      6  C   UNL     1      26.892  25.317  -9.085  1.00  0.00     0.041 A 
ATOM      7  C   UNL     1      28.403  26.684 -10.410  1.00  0.00     0.003 A 
ATOM      8  C   UNL     1      27.969  27.829  -9.728  1.00  0.00     0.010 A 
ATOM      9  C   UNL     1      27.855  25.430 -10.089  1.00  0.00     0.036 A 
ATOM     10  C   UNL     1      26.999  27.721  -8.735  1.00  0.00     0.003 A 
ATOM     11  C   UNL     1      26.465  26.473  -8.416  1.00  0.00     0.026 A 
BRANCH   7  12
ATOM     12  C   UNL     1      29.394  26.791 -11.469  1.00  0.00     0.084 A 
ATOM     13  C   UNL     1      30.996  26.058 -12.793  1.00  0.00     0.189 A 
ATOM     14  N   UNL     1      30.227  25.731 -11.780  1.00  0.00    -0.220 NA
ATOM     15  S   UNL     1      30.808  27.642 -13.396  1.00  0.00    -0.105 S 
ATOM     16  C   UNL     1      29.575  27.924 -12.239  1.00  0.00     0.097 A 
BRANCH  13  17
ATOM     17  N   UNL     1      31.867  25.147 -13.331  1.00  0.00    -0.302 N 
ATOM     18  C   UNL     1      33.236  25.241 -13.393  1.00  0.00     0.223 C 
ATOM     19  O   UNL     1      33.951  26.108 -12.906  1.00  0.00    -0.275 OA
ATOM     20  C   UNL     1      33.837  24.105 -14.184  1.00  0.00     0.114 C 
ATOM     21  H   UNL     1      31.390  24.372 -13.775  1.00  0.00     0.172 HD
ENDBRANCH  13  17
ENDBRANCH   7  12
ENDBRANCH   3   6
ENDBRANCH   1   2
BRANCH   1  22
ATOM     22  C   UNL     1      25.935  20.477  -8.917  1.00  0.00     0.151 C 
BRANCH  22  23
ATOM     23  N   UNL     1      25.348  19.601  -9.939  1.00  0.00    -0.352 N 
ATOM     24  C   UNL     1      25.973  18.990 -11.002  1.00  0.00     0.237 C 
ATOM     25  O   UNL     1      27.174  19.098 -11.245  1.00  0.00    -0.273 OA
ATOM     26  H   UNL     1      24.339  19.510  -9.898  1.00  0.00     0.163 HD
BRANCH  24  27
ATOM     27  C   UNL     1      24.998  18.188 -11.901  1.00  0.00     0.141 C 
BRANCH  27  28
ATOM     28  N   UNL     1      25.797  17.443 -12.893  1.00  0.00    -0.320 NA
ATOM     29  H   UNL     1      26.787  17.554 -12.657  1.00  0.00     0.119 HD
ATOM     30  H   UNL     1      25.697  17.874 -13.813  1.00  0.00     0.119 HD
ENDBRANCH  27  28
BRANCH  27  31
ATOM     31  C   UNL     1      24.135  17.210 -11.089  1.00  0.00     0.029 C 
BRANCH  31  32
ATOM     32  C   UNL     1      22.704  17.731 -10.908  1.00  0.00     0.003 C 
BRANCH  32  33
ATOM     33  C   UNL     1      22.197  17.495  -9.484  1.00  0.00     0.015 C 
BRANCH  33  34
ATOM     34  C   UNL     1      22.822  18.494  -8.507  1.00  0.00     0.077 C 
BRANCH  34  35
ATOM     35  N   UNL     1      21.799  19.194  -7.738  1.00  0.00    -0.330 NA
ATOM     36  H   UNL     1      20.949  19.283  -8.292  1.00  0.00     0.118 HD
ATOM     37  H   UNL     1      21.543  18.636  -6.922  1.00  0.00     0.118 HD
ENDBRANCH  34  35
ENDBRANCH  33  34
ENDBRANCH  32  33
ENDBRANCH  31  32
ENDBRANCH  27  31
ENDBRANCH  24  27
ENDBRANCH  22  23
ENDBRANCH   1  22
BRANCH   1  38
ATOM     38  N   UNL     1      25.306  22.145  -7.158  1.00  0.00    -0.341 N 
ATOM     39  C   UNL     1      24.172  22.136  -6.392  1.00  0.00     0.237 C 
ATOM     40  O   UNL     1      23.070  21.841  -6.851  1.00  0.00    -0.273 OA
ATOM     41  H   UNL     1      26.079  22.733  -6.857  1.00  0.00     0.164 HD
BRANCH  39  42
ATOM     42  C   UNL     1      24.368  22.623  -4.936  1.00  0.00     0.141 C 
BRANCH  42  43
ATOM     43  N   UNL     1      24.273  24.096  -4.884  1.00  0.00    -0.320 NA
ATOM     44  H   UNL     1      23.323  24.400  -5.097  1.00  0.00     0.119 HD
ATOM     45  H   UNL     1      24.846  24.475  -5.650  1.00  0.00     0.119 HD
ENDBRANCH  42  43
BRANCH  42  46
ATOM     46  C   UNL     1      23.420  21.929  -3.943  1.00  0.00     0.029 C 
BRANCH  46  47
ATOM     47  C   UNL     1      23.964  20.635  -3.325  1.00  0.00     0.003 C 
BRANCH  47  48
ATOM     48  C   UNL     1      25.463  20.761  -3.031  1.00  0.00     0.015 C 
BRANCH  48  49
ATOM     49  C   UNL     1      26.231  19.446  -3.180  1.00  0.00     0.077 C 
BRANCH  49  50
ATOM     50  N   UNL     1      25.448  18.293  -2.756  1.00  0.00    -0.330 NA
ATOM     51  H   UNL     1      24.480  18.415  -3.062  1.00  0.00     0.118 HD
ATOM     52  H   UNL     1      25.412  18.249  -1.735  1.00  0.00     0.118 HD
ENDBRANCH  49  50
ENDBRANCH  48  49
ENDBRANCH  47  48
ENDBRANCH  46  47
ENDBRANCH  42  46
ENDBRANCH  39  42
ENDBRANCH   1  38
TORSDOF 21
ENDMDL
