MODEL 1
REMARK VINA RESULT:      -8.8      0.000      0.000
REMARK SMILES O=C1C2=C(Nc3cc([N+](=O)[O-])ccc3N2)OC1c1ccc(C2OC3=C(Nc4ccc([N+](=O)[O-])cc4N3)C2=O)cc1
REMARK SMILES IDX 18 1 19 2 20 3 21 4 39 5 40 6 17 7 1 8 2 9 3 10 4 11 15 12
REMARK SMILES IDX 16 13 5 14 14 15 6 16 13 17 7 18 12 19 8 20 9 23 10 24 11 25
REMARK SMILES IDX 22 26 23 27 37 28 24 29 25 30 38 31 36 32 26 33 35 34 27 35
REMARK SMILES IDX 34 36 28 37 30 38 29 39 31 42 32 43 33 44
REMARK H PARENT 15 21 5 22 36 40 26 41
ROOT
ATOM      1  C   UNL     1      35.347  17.731 -17.444  1.00  0.00     0.000 A 
ATOM      2  C   UNL     1      34.621  18.928 -17.382  1.00  0.00     0.008 A 
ATOM      3  C   UNL     1      34.545  19.660 -16.191  1.00  0.00     0.008 A 
ATOM      4  C   UNL     1      35.190  19.214 -15.031  1.00  0.00     0.000 A 
ATOM      5  C   UNL     1      35.922  18.019 -15.095  1.00  0.00     0.008 A 
ATOM      6  C   UNL     1      35.999  17.289 -16.284  1.00  0.00     0.008 A 
ENDROOT
BRANCH   1   7
ATOM      7  C   UNL     1      35.453  16.914 -18.716  1.00  0.00     0.278 C 
ATOM      8  O   UNL     1      33.292  17.480 -19.754  1.00  0.00    -0.288 OA
ATOM      9  C   UNL     1      34.120  16.657 -19.393  1.00  0.00     0.229 C 
ATOM     10  C   UNL     1      33.964  15.225 -19.573  1.00  0.00     0.148 C 
ATOM     11  C   UNL     1      35.065  14.716 -19.016  1.00  0.00     0.220 C 
ATOM     12  N   UNL     1      32.931  14.502 -20.106  1.00  0.00    -0.346 N 
ATOM     13  O   UNL     1      35.991  15.583 -18.471  1.00  0.00    -0.461 OA
ATOM     14  N   UNL     1      35.235  13.353 -18.946  1.00  0.00    -0.323 N 
ATOM     15  C   UNL     1      32.974  13.098 -19.910  1.00  0.00     0.063 A 
ATOM     16  C   UNL     1      34.152  12.510 -19.323  1.00  0.00     0.072 A 
ATOM     17  C   UNL     1      31.939  12.281 -20.363  1.00  0.00     0.035 A 
ATOM     18  C   UNL     1      34.255  11.125 -19.208  1.00  0.00     0.114 A 
ATOM     19  C   UNL     1      32.040  10.893 -20.223  1.00  0.00     0.088 A 
ATOM     20  C   UNL     1      33.191  10.325 -19.649  1.00  0.00     0.271 A 
ATOM     21  H   UNL     1      32.044  14.976 -20.221  1.00  0.00     0.167 HD
ATOM     22  H   UNL     1      35.942  13.009 -18.311  1.00  0.00     0.170 HD
BRANCH  20  23
ATOM     23  N   UNL     1      33.287   8.865 -19.520  1.00  0.00     0.062 N 
ATOM     24  O   UNL     1      34.414   8.353 -19.586  1.00  0.00    -0.258 OA
ATOM     25  O   UNL     1      32.236   8.230 -19.350  1.00  0.00    -0.258 OA
ENDBRANCH  20  23
ENDBRANCH   1   7
BRANCH   4  26
ATOM     26  C   UNL     1      35.134  19.983 -13.726  1.00  0.00     0.278 C 
ATOM     27  O   UNL     1      33.765  20.244 -13.302  1.00  0.00    -0.461 OA
ATOM     28  C   UNL     1      35.770  21.357 -13.799  1.00  0.00     0.229 C 
ATOM     29  C   UNL     1      33.702  21.613 -13.122  1.00  0.00     0.220 C 
ATOM     30  C   UNL     1      34.790  22.341 -13.372  1.00  0.00     0.148 C 
ATOM     31  O   UNL     1      36.909  21.639 -14.142  1.00  0.00    -0.288 OA
ATOM     32  N   UNL     1      32.532  22.228 -12.742  1.00  0.00    -0.323 N 
ATOM     33  N   UNL     1      34.874  23.705 -13.294  1.00  0.00    -0.346 N 
ATOM     34  C   UNL     1      32.463  23.649 -12.788  1.00  0.00     0.072 A 
ATOM     35  C   UNL     1      33.658  24.402 -13.076  1.00  0.00     0.063 A 
ATOM     36  C   UNL     1      31.280  24.315 -12.478  1.00  0.00     0.114 A 
ATOM     37  C   UNL     1      33.629  25.796 -13.042  1.00  0.00     0.035 A 
ATOM     38  C   UNL     1      31.268  25.718 -12.475  1.00  0.00     0.271 A 
ATOM     39  C   UNL     1      32.431  26.458 -12.755  1.00  0.00     0.088 A 
ATOM     40  H   UNL     1      31.683  21.682 -12.798  1.00  0.00     0.170 HD
ATOM     41  H   UNL     1      35.642  24.152 -13.781  1.00  0.00     0.167 HD
BRANCH  38  42
ATOM     42  N   UNL     1      30.019  26.426 -12.166  1.00  0.00     0.062 N 
ATOM     43  O   UNL     1      29.792  27.485 -12.769  1.00  0.00    -0.258 OA
ATOM     44  O   UNL     1      29.268  25.927 -11.315  1.00  0.00    -0.258 OA
ENDBRANCH  38  42
ENDBRANCH   4  26
TORSDOF 4
ENDMDL
MODEL 2
REMARK VINA RESULT:      -8.7     10.569     16.088
REMARK SMILES O=C1C2=C(Nc3cc([N+](=O)[O-])ccc3N2)OC1c1ccc(C2OC3=C(Nc4ccc([N+](=O)[O-])cc4N3)C2=O)cc1
REMARK SMILES IDX 18 1 19 2 20 3 21 4 39 5 40 6 17 7 1 8 2 9 3 10 4 11 15 12
REMARK SMILES IDX 16 13 5 14 14 15 6 16 13 17 7 18 12 19 8 20 9 23 10 24 11 25
REMARK SMILES IDX 22 26 23 27 37 28 24 29 25 30 38 31 36 32 26 33 35 34 27 35
REMARK SMILES IDX 34 36 28 37 30 38 29 39 31 42 32 43 33 44
REMARK H PARENT 15 21 5 22 36 40 26 41
ROOT
ATOM      1  C   UNL     1      25.968  12.708 -24.810  1.00  0.00     0.000 A 
ATOM      2  C   UNL     1      25.232  13.749 -25.391  1.00  0.00     0.008 A 
ATOM      3  C   UNL     1      23.859  13.877 -25.153  1.00  0.00     0.008 A 
ATOM      4  C   UNL     1      23.184  12.967 -24.329  1.00  0.00     0.000 A 
ATOM      5  C   UNL     1      23.922  11.929 -23.743  1.00  0.00     0.008 A 
ATOM      6  C   UNL     1      25.293  11.801 -23.980  1.00  0.00     0.008 A 
ENDROOT
BRANCH   1   7
ATOM      7  C   UNL     1      27.455  12.539 -25.044  1.00  0.00     0.278 C 
ATOM      8  O   UNL     1      27.499  10.178 -25.748  1.00  0.00    -0.288 OA
ATOM      9  C   UNL     1      27.915  11.094 -25.052  1.00  0.00     0.229 C 
ATOM     10  C   UNL     1      28.981  10.944 -24.078  1.00  0.00     0.148 C 
ATOM     11  C   UNL     1      29.086  12.160 -23.538  1.00  0.00     0.220 C 
ATOM     12  N   UNL     1      29.694   9.839 -23.701  1.00  0.00    -0.346 N 
ATOM     13  O   UNL     1      28.251  13.161 -23.994  1.00  0.00    -0.461 OA
ATOM     14  N   UNL     1      29.974  12.385 -22.511  1.00  0.00    -0.323 N 
ATOM     15  C   UNL     1      30.499   9.970 -22.540  1.00  0.00     0.063 A 
ATOM     16  C   UNL     1      30.647  11.270 -21.936  1.00  0.00     0.072 A 
ATOM     17  C   UNL     1      31.217   8.884 -22.041  1.00  0.00     0.035 A 
ATOM     18  C   UNL     1      31.507  11.440 -20.853  1.00  0.00     0.114 A 
ATOM     19  C   UNL     1      32.060   9.057 -20.939  1.00  0.00     0.088 A 
ATOM     20  C   UNL     1      32.200  10.328 -20.354  1.00  0.00     0.271 A 
ATOM     21  H   UNL     1      29.325   8.935 -23.968  1.00  0.00     0.167 HD
ATOM     22  H   UNL     1      29.852  13.231 -21.973  1.00  0.00     0.170 HD
BRANCH  20  23
ATOM     23  N   UNL     1      33.099  10.497 -19.204  1.00  0.00     0.062 N 
ATOM     24  O   UNL     1      33.889   9.575 -18.950  1.00  0.00    -0.258 OA
ATOM     25  O   UNL     1      33.019  11.551 -18.559  1.00  0.00    -0.258 OA
ENDBRANCH  20  23
ENDBRANCH   1   7
BRANCH   4  26
ATOM     26  C   UNL     1      21.700  13.079 -24.044  1.00  0.00     0.278 C 
ATOM     27  O   UNL     1      21.384  12.775 -22.654  1.00  0.00    -0.461 OA
ATOM     28  C   UNL     1      20.851  12.108 -24.840  1.00  0.00     0.229 C 
ATOM     29  C   UNL     1      20.428  11.779 -22.715  1.00  0.00     0.220 C 
ATOM     30  C   UNL     1      20.048  11.329 -23.912  1.00  0.00     0.148 C 
ATOM     31  O   UNL     1      20.805  11.972 -26.054  1.00  0.00    -0.288 OA
ATOM     32  N   UNL     1      19.910  11.219 -21.571  1.00  0.00    -0.323 N 
ATOM     33  N   UNL     1      19.157  10.316 -24.138  1.00  0.00    -0.346 N 
ATOM     34  C   UNL     1      19.101  10.053 -21.689  1.00  0.00     0.072 A 
ATOM     35  C   UNL     1      18.722   9.590 -23.000  1.00  0.00     0.063 A 
ATOM     36  C   UNL     1      18.608   9.410 -20.555  1.00  0.00     0.114 A 
ATOM     37  C   UNL     1      17.862   8.499 -23.132  1.00  0.00     0.035 A 
ATOM     38  C   UNL     1      17.765   8.301 -20.714  1.00  0.00     0.271 A 
ATOM     39  C   UNL     1      17.392   7.844 -21.990  1.00  0.00     0.088 A 
ATOM     40  H   UNL     1      20.391  11.411 -20.703  1.00  0.00     0.170 HD
ATOM     41  H   UNL     1      19.173   9.877 -25.051  1.00  0.00     0.167 HD
BRANCH  38  42
ATOM     42  N   UNL     1      17.256   7.609 -19.522  1.00  0.00     0.062 N 
ATOM     43  O   UNL     1      16.085   7.204 -19.547  1.00  0.00    -0.258 OA
ATOM     44  O   UNL     1      18.025   7.476 -18.559  1.00  0.00    -0.258 OA
ENDBRANCH  38  42
ENDBRANCH   4  26
TORSDOF 4
ENDMDL
MODEL 3
REMARK VINA RESULT:      -8.6     10.527     15.978
REMARK SMILES O=C1C2=C(Nc3cc([N+](=O)[O-])ccc3N2)OC1c1ccc(C2OC3=C(Nc4ccc([N+](=O)[O-])cc4N3)C2=O)cc1
REMARK SMILES IDX 18 1 19 2 20 3 21 4 39 5 40 6 17 7 1 8 2 9 3 10 4 11 15 12
REMARK SMILES IDX 16 13 5 14 14 15 6 16 13 17 7 18 12 19 8 20 9 23 10 24 11 25
REMARK SMILES IDX 22 26 23 27 37 28 24 29 25 30 38 31 36 32 26 33 35 34 27 35
REMARK SMILES IDX 34 36 28 37 30 38 29 39 31 42 32 43 33 44
REMARK H PARENT 15 21 5 22 36 40 26 41
ROOT
ATOM      1  C   UNL     1      26.178  12.696 -24.777  1.00  0.00     0.000 A 
ATOM      2  C   UNL     1      25.405  11.853 -23.968  1.00  0.00     0.008 A 
ATOM      3  C   UNL     1      24.040  12.098 -23.776  1.00  0.00     0.008 A 
ATOM      4  C   UNL     1      23.413  13.192 -24.385  1.00  0.00     0.000 A 
ATOM      5  C   UNL     1      24.187  14.032 -25.199  1.00  0.00     0.008 A 
ATOM      6  C   UNL     1      25.549  13.788 -25.392  1.00  0.00     0.008 A 
ENDROOT
BRANCH   1   7
ATOM      7  C   UNL     1      27.658  12.461 -25.009  1.00  0.00     0.278 C 
ATOM      8  O   UNL     1      27.611  10.069 -25.597  1.00  0.00    -0.288 OA
ATOM      9  C   UNL     1      28.064  11.001 -24.949  1.00  0.00     0.229 C 
ATOM     10  C   UNL     1      29.129  10.860 -23.972  1.00  0.00     0.148 C 
ATOM     11  C   UNL     1      29.282  12.095 -23.493  1.00  0.00     0.220 C 
ATOM     12  N   UNL     1      29.804   9.748 -23.545  1.00  0.00    -0.346 N 
ATOM     13  O   UNL     1      28.482  13.103 -23.994  1.00  0.00    -0.461 OA
ATOM     14  N   UNL     1      30.184  12.336 -22.482  1.00  0.00    -0.323 N 
ATOM     15  C   UNL     1      30.619   9.905 -22.395  1.00  0.00     0.063 A 
ATOM     16  C   UNL     1      30.818  11.227 -21.856  1.00  0.00     0.072 A 
ATOM     17  C   UNL     1      31.300   8.819 -21.847  1.00  0.00     0.035 A 
ATOM     18  C   UNL     1      31.690  11.417 -20.785  1.00  0.00     0.114 A 
ATOM     19  C   UNL     1      32.155   9.014 -20.759  1.00  0.00     0.088 A 
ATOM     20  C   UNL     1      32.345  10.305 -20.236  1.00  0.00     0.271 A 
ATOM     21  H   UNL     1      29.400   8.846 -23.766  1.00  0.00     0.167 HD
ATOM     22  H   UNL     1      30.095  13.211 -21.985  1.00  0.00     0.170 HD
BRANCH  20  23
ATOM     23  N   UNL     1      33.257  10.496 -19.100  1.00  0.00     0.062 N 
ATOM     24  O   UNL     1      34.049   9.580 -18.836  1.00  0.00    -0.258 OA
ATOM     25  O   UNL     1      33.183  11.563 -18.474  1.00  0.00    -0.258 OA
ENDBRANCH  20  23
ENDBRANCH   1   7
BRANCH   4  26
ATOM     26  C   UNL     1      21.937  13.485 -24.204  1.00  0.00     0.278 C 
ATOM     27  O   UNL     1      21.484  13.200 -22.849  1.00  0.00    -0.461 OA
ATOM     28  C   UNL     1      21.036  12.642 -25.084  1.00  0.00     0.229 C 
ATOM     29  C   UNL     1      20.419  12.333 -23.005  1.00  0.00     0.220 C 
ATOM     30  C   UNL     1      20.076  11.955 -24.237  1.00  0.00     0.148 C 
ATOM     31  O   UNL     1      21.064  12.533 -26.302  1.00  0.00    -0.288 OA
ATOM     32  N   UNL     1      19.751  11.823 -21.915  1.00  0.00    -0.323 N 
ATOM     33  N   UNL     1      19.085  11.066 -24.553  1.00  0.00    -0.346 N 
ATOM     34  C   UNL     1      18.814  10.771 -22.121  1.00  0.00     0.072 A 
ATOM     35  C   UNL     1      18.480  10.381 -23.468  1.00  0.00     0.063 A 
ATOM     36  C   UNL     1      18.163  10.176 -21.043  1.00  0.00     0.114 A 
ATOM     37  C   UNL     1      17.503   9.410 -23.690  1.00  0.00     0.035 A 
ATOM     38  C   UNL     1      17.202   9.185 -21.291  1.00  0.00     0.271 A 
ATOM     39  C   UNL     1      16.872   8.800 -22.602  1.00  0.00     0.088 A 
ATOM     40  H   UNL     1      20.186  11.939 -21.011  1.00  0.00     0.170 HD
ATOM     41  H   UNL     1      19.115  10.644 -25.473  1.00  0.00     0.167 HD
BRANCH  38  42
ATOM     42  N   UNL     1      16.524   8.542 -20.157  1.00  0.00     0.062 N 
ATOM     43  O   UNL     1      17.180   7.749 -19.467  1.00  0.00    -0.258 OA
ATOM     44  O   UNL     1      15.333   8.825 -19.961  1.00  0.00    -0.258 OA
ENDBRANCH  38  42
ENDBRANCH   4  26
TORSDOF 4
ENDMDL
