MODEL 1
REMARK VINA RESULT:      -7.3      0.000      0.000
REMARK SMILES COc1cc2nc(N3CCCN(C)CC3)nc(NC3CCN(Cc4ccccc4)CC3)c2cc1OC
REMARK SMILES IDX 18 1 17 3 3 4 4 5 34 6 5 7 33 8 6 9 32 10 7 11 16 12 2 13
REMARK SMILES IDX 1 14 35 15 36 16 8 17 9 18 15 19 10 20 14 21 11 22 12 23
REMARK SMILES IDX 13 24 19 25 20 26 31 27 21 28 30 29 22 30 23 31 24 32 25 33
REMARK SMILES IDX 29 34 26 35 28 36 27 37
REMARK H PARENT 18 2
ROOT
ATOM      1  N   UNL     1      26.382  21.925  -8.149  1.00  0.00    -0.367 N 
ATOM      2  H   UNL     1      26.838  21.706  -9.032  1.00  0.00     0.162 HD
ENDROOT
BRANCH   1   3
ATOM      3  C   UNL     1      25.330  20.991  -7.990  1.00  0.00     0.139 A 
ATOM      4  C   UNL     1      24.540  18.043 -10.882  1.00  0.00     0.162 A 
ATOM      5  C   UNL     1      23.746  18.223  -9.743  1.00  0.00     0.079 A 
ATOM      6  C   UNL     1      25.669  18.855 -11.070  1.00  0.00     0.161 A 
ATOM      7  C   UNL     1      24.034  19.193  -8.791  1.00  0.00     0.082 A 
ATOM      8  C   UNL     1      25.954  19.845 -10.129  1.00  0.00     0.064 A 
ATOM      9  N   UNL     1      23.242  19.291  -7.723  1.00  0.00    -0.213 NA
ATOM     10  C   UNL     1      25.131  20.025  -8.988  1.00  0.00     0.047 A 
ATOM     11  C   UNL     1      23.524  20.208  -6.783  1.00  0.00     0.227 A 
ATOM     12  N   UNL     1      24.551  21.062  -6.900  1.00  0.00    -0.195 NA
BRANCH   4  13
ATOM     13  O   UNL     1      24.304  17.099 -11.850  1.00  0.00    -0.493 OA
ATOM     14  C   UNL     1      23.041  17.124 -12.502  1.00  0.00     0.278 C 
ENDBRANCH   4  13
BRANCH   6  15
ATOM     15  O   UNL     1      26.404  18.624 -12.204  1.00  0.00    -0.493 OA
ATOM     16  C   UNL     1      27.466  19.528 -12.485  1.00  0.00     0.278 C 
ENDBRANCH   6  15
BRANCH  11  17
ATOM     17  N   UNL     1      22.679  20.304  -5.680  1.00  0.00    -0.339 N 
ATOM     18  C   UNL     1      23.360  20.184  -4.386  1.00  0.00     0.121 C 
ATOM     19  C   UNL     1      21.522  21.193  -5.805  1.00  0.00     0.135 C 
ATOM     20  C   UNL     1      22.474  20.600  -3.209  1.00  0.00     0.037 C 
ATOM     21  C   UNL     1      21.828  22.663  -5.445  1.00  0.00     0.105 C 
ATOM     22  C   UNL     1      22.317  22.122  -3.066  1.00  0.00     0.086 C 
ATOM     23  N   UNL     1      22.657  22.917  -4.249  1.00  0.00    -0.305 NA
ATOM     24  C   UNL     1      22.698  24.346  -3.941  1.00  0.00     0.105 C 
ENDBRANCH  11  17
ENDBRANCH   1   3
BRANCH   1  25
ATOM     25  C   UNL     1      26.024  23.351  -8.044  1.00  0.00     0.083 C 
ATOM     26  C   UNL     1      27.286  24.182  -7.738  1.00  0.00     0.040 C 
ATOM     27  C   UNL     1      25.374  23.801  -9.362  1.00  0.00     0.040 C 
ATOM     28  C   UNL     1      27.337  25.476  -8.548  1.00  0.00     0.087 C 
ATOM     29  C   UNL     1      26.440  24.135 -10.399  1.00  0.00     0.087 C 
ATOM     30  N   UNL     1      27.297  25.267 -10.001  1.00  0.00    -0.299 NA
BRANCH  30  31
ATOM     31  C   UNL     1      28.660  25.134 -10.561  1.00  0.00     0.120 C 
BRANCH  31  32
ATOM     32  C   UNL     1      29.149  26.380 -11.278  1.00  0.00    -0.034 A 
ATOM     33  C   UNL     1      29.848  26.279 -12.489  1.00  0.00     0.005 A 
ATOM     34  C   UNL     1      28.917  27.655 -10.734  1.00  0.00     0.005 A 
ATOM     35  C   UNL     1      30.289  27.428 -13.148  1.00  0.00     0.000 A 
ATOM     36  C   UNL     1      29.355  28.800 -11.396  1.00  0.00     0.000 A 
ATOM     37  C   UNL     1      30.043  28.688 -12.602  1.00  0.00     0.000 A 
ENDBRANCH  31  32
ENDBRANCH  30  31
ENDBRANCH   1  25
TORSDOF 7
ENDMDL
MODEL 2
REMARK VINA RESULT:      -7.2      1.370      2.288
REMARK SMILES COc1cc2nc(N3CCCN(C)CC3)nc(NC3CCN(Cc4ccccc4)CC3)c2cc1OC
REMARK SMILES IDX 18 1 17 3 3 4 4 5 34 6 5 7 33 8 6 9 32 10 7 11 16 12 2 13
REMARK SMILES IDX 1 14 35 15 36 16 8 17 9 18 15 19 10 20 14 21 11 22 12 23
REMARK SMILES IDX 13 24 19 25 20 26 31 27 21 28 30 29 22 30 23 31 24 32 25 33
REMARK SMILES IDX 29 34 26 35 28 36 27 37
REMARK H PARENT 18 2
ROOT
ATOM      1  N   UNL     1      26.410  21.688  -7.948  1.00  0.00    -0.367 N 
ATOM      2  H   UNL     1      26.972  21.524  -8.780  1.00  0.00     0.162 HD
ENDROOT
BRANCH   1   3
ATOM      3  C   UNL     1      25.390  20.708  -7.944  1.00  0.00     0.139 A 
ATOM      4  C   UNL     1      24.727  18.199 -11.252  1.00  0.00     0.162 A 
ATOM      5  C   UNL     1      23.917  18.182 -10.111  1.00  0.00     0.079 A 
ATOM      6  C   UNL     1      25.828  19.067 -11.302  1.00  0.00     0.161 A 
ATOM      7  C   UNL     1      24.163  19.008  -9.021  1.00  0.00     0.082 A 
ATOM      8  C   UNL     1      26.071  19.914 -10.221  1.00  0.00     0.064 A 
ATOM      9  N   UNL     1      23.359  18.920  -7.961  1.00  0.00    -0.213 NA
ATOM     10  C   UNL     1      25.233  19.895  -9.077  1.00  0.00     0.047 A 
ATOM     11  C   UNL     1      23.601  19.695  -6.891  1.00  0.00     0.227 A 
ATOM     12  N   UNL     1      24.599  20.589  -6.866  1.00  0.00    -0.195 NA
BRANCH   4  13
ATOM     13  O   UNL     1      24.531  17.403 -12.353  1.00  0.00    -0.493 OA
ATOM     14  C   UNL     1      25.453  16.343 -12.573  1.00  0.00     0.278 C 
ENDBRANCH   4  13
BRANCH   6  15
ATOM     15  O   UNL     1      26.581  19.032 -12.448  1.00  0.00    -0.493 OA
ATOM     16  C   UNL     1      27.570  20.042 -12.607  1.00  0.00     0.278 C 
ENDBRANCH   6  15
BRANCH  11  17
ATOM     17  N   UNL     1      22.744  19.597  -5.798  1.00  0.00    -0.339 N 
ATOM     18  C   UNL     1      21.857  18.429  -5.829  1.00  0.00     0.121 C 
ATOM     19  C   UNL     1      23.249  20.084  -4.512  1.00  0.00     0.135 C 
ATOM     20  C   UNL     1      21.160  18.178  -4.490  1.00  0.00     0.037 C 
ATOM     21  C   UNL     1      24.052  19.028  -3.722  1.00  0.00     0.105 C 
ATOM     22  C   UNL     1      22.076  17.544  -3.430  1.00  0.00     0.086 C 
ATOM     23  N   UNL     1      23.516  17.652  -3.677  1.00  0.00    -0.305 NA
ATOM     24  C   UNL     1      24.282  16.827  -2.746  1.00  0.00     0.105 C 
ENDBRANCH  11  17
ENDBRANCH   1   3
BRANCH   1  25
ATOM     25  C   UNL     1      25.979  23.094  -7.833  1.00  0.00     0.083 C 
ATOM     26  C   UNL     1      27.199  23.987  -7.530  1.00  0.00     0.040 C 
ATOM     27  C   UNL     1      25.299  23.516  -9.145  1.00  0.00     0.040 C 
ATOM     28  C   UNL     1      27.178  25.286  -8.333  1.00  0.00     0.087 C 
ATOM     29  C   UNL     1      26.341  23.909 -10.186  1.00  0.00     0.087 C 
ATOM     30  N   UNL     1      27.141  25.082  -9.787  1.00  0.00    -0.299 NA
BRANCH  30  31
ATOM     31  C   UNL     1      28.505  25.023 -10.356  1.00  0.00     0.120 C 
BRANCH  31  32
ATOM     32  C   UNL     1      28.945  26.314 -11.023  1.00  0.00    -0.034 A 
ATOM     33  C   UNL     1      28.616  27.556 -10.462  1.00  0.00     0.005 A 
ATOM     34  C   UNL     1      29.684  26.285 -12.218  1.00  0.00     0.005 A 
ATOM     35  C   UNL     1      29.030  28.740 -11.075  1.00  0.00     0.000 A 
ATOM     36  C   UNL     1      30.099  27.469 -12.825  1.00  0.00     0.000 A 
ATOM     37  C   UNL     1      29.770  28.697 -12.256  1.00  0.00     0.000 A 
ENDBRANCH  31  32
ENDBRANCH  30  31
ENDBRANCH   1  25
TORSDOF 7
ENDMDL
MODEL 3
REMARK VINA RESULT:      -7.1      0.790      1.166
REMARK SMILES COc1cc2nc(N3CCCN(C)CC3)nc(NC3CCN(Cc4ccccc4)CC3)c2cc1OC
REMARK SMILES IDX 18 1 17 3 3 4 4 5 34 6 5 7 33 8 6 9 32 10 7 11 16 12 2 13
REMARK SMILES IDX 1 14 35 15 36 16 8 17 9 18 15 19 10 20 14 21 11 22 12 23
REMARK SMILES IDX 13 24 19 25 20 26 31 27 21 28 30 29 22 30 23 31 24 32 25 33
REMARK SMILES IDX 29 34 26 35 28 36 27 37
REMARK H PARENT 18 2
ROOT
ATOM      1  N   UNL     1      26.254  21.498  -7.474  1.00  0.00    -0.367 N 
ATOM      2  H   UNL     1      26.779  21.387  -8.338  1.00  0.00     0.162 HD
ENDROOT
BRANCH   1   3
ATOM      3  C   UNL     1      25.095  20.697  -7.593  1.00  0.00     0.139 A 
ATOM      4  C   UNL     1      24.565  18.049 -10.816  1.00  0.00     0.162 A 
ATOM      5  C   UNL     1      23.588  18.259  -9.836  1.00  0.00     0.079 A 
ATOM      6  C   UNL     1      25.792  18.722 -10.721  1.00  0.00     0.161 A 
ATOM      7  C   UNL     1      23.788  19.127  -8.770  1.00  0.00     0.082 A 
ATOM      8  C   UNL     1      25.995  19.611  -9.664  1.00  0.00     0.064 A 
ATOM      9  N   UNL     1      22.818  19.260  -7.866  1.00  0.00    -0.213 NA
ATOM     10  C   UNL     1      24.989  19.824  -8.688  1.00  0.00     0.047 A 
ATOM     11  C   UNL     1      23.010  20.076  -6.817  1.00  0.00     0.227 A 
ATOM     12  N   UNL     1      24.128  20.799  -6.667  1.00  0.00    -0.195 NA
BRANCH   4  13
ATOM     13  O   UNL     1      24.420  17.201 -11.886  1.00  0.00    -0.493 OA
ATOM     14  C   UNL     1      23.104  16.976 -12.376  1.00  0.00     0.278 C 
ENDBRANCH   4  13
BRANCH   6  15
ATOM     15  O   UNL     1      26.705  18.469 -11.711  1.00  0.00    -0.493 OA
ATOM     16  C   UNL     1      26.753  19.382 -12.801  1.00  0.00     0.278 C 
ENDBRANCH   6  15
BRANCH  11  17
ATOM     17  N   UNL     1      21.981  20.211  -5.889  1.00  0.00    -0.339 N 
ATOM     18  C   UNL     1      22.251  19.581  -4.592  1.00  0.00     0.121 C 
ATOM     19  C   UNL     1      21.200  21.450  -5.939  1.00  0.00     0.135 C 
ATOM     20  C   UNL     1      21.258  20.006  -3.508  1.00  0.00     0.037 C 
ATOM     21  C   UNL     1      21.817  22.605  -5.121  1.00  0.00     0.105 C 
ATOM     22  C   UNL     1      21.517  21.417  -2.956  1.00  0.00     0.086 C 
ATOM     23  N   UNL     1      22.357  22.287  -3.784  1.00  0.00    -0.305 NA
ATOM     24  C   UNL     1      22.730  23.507  -3.071  1.00  0.00     0.105 C 
ENDBRANCH  11  17
ENDBRANCH   1   3
BRANCH   1  25
ATOM     25  C   UNL     1      26.048  22.916  -7.126  1.00  0.00     0.083 C 
ATOM     26  C   UNL     1      27.401  23.654  -7.127  1.00  0.00     0.040 C 
ATOM     27  C   UNL     1      25.077  23.543  -8.139  1.00  0.00     0.040 C 
ATOM     28  C   UNL     1      27.309  25.030  -7.782  1.00  0.00     0.087 C 
ATOM     29  C   UNL     1      25.817  23.952  -9.407  1.00  0.00     0.087 C 
ATOM     30  N   UNL     1      26.834  24.994  -9.171  1.00  0.00    -0.299 NA
BRANCH  30  31
ATOM     31  C   UNL     1      27.961  24.873 -10.121  1.00  0.00     0.120 C 
BRANCH  31  32
ATOM     32  C   UNL     1      28.534  26.208 -10.562  1.00  0.00    -0.034 A 
ATOM     33  C   UNL     1      28.040  27.407 -10.031  1.00  0.00     0.005 A 
ATOM     34  C   UNL     1      29.565  26.262 -11.516  1.00  0.00     0.005 A 
ATOM     35  C   UNL     1      28.576  28.632 -10.433  1.00  0.00     0.000 A 
ATOM     36  C   UNL     1      30.100  27.487 -11.912  1.00  0.00     0.000 A 
ATOM     37  C   UNL     1      29.606  28.672 -11.374  1.00  0.00     0.000 A 
ENDBRANCH  31  32
ENDBRANCH  30  31
ENDBRANCH   1  25
TORSDOF 7
ENDMDL
