MODEL 1
REMARK VINA RESULT:      -5.7      0.000      0.000
REMARK SMILES CCN(CC)c1ccc(-c2sc3cc(C)ccc3[n+]2C)cc1
REMARK SMILES IDX 6 1 7 2 8 3 9 4 21 5 22 6 3 7 2 8 1 9 4 10 5 11 10 12 11 13
REMARK SMILES IDX 19 14 12 15 18 16 13 17 17 18 14 19 16 20 20 21 15 22
REMARK H PARENT
ROOT
ATOM      1  C   UNL     1      24.403  12.106 -24.015  1.00  0.00     0.037 A 
ATOM      2  C   UNL     1      23.710  13.297 -24.296  1.00  0.00     0.027 A 
ATOM      3  C   UNL     1      22.316  13.407 -24.174  1.00  0.00     0.018 A 
ATOM      4  C   UNL     1      21.559  12.311 -23.760  1.00  0.00     0.058 A 
ATOM      5  C   UNL     1      22.213  11.117 -23.468  1.00  0.00     0.018 A 
ATOM      6  C   UNL     1      23.608  11.025 -23.596  1.00  0.00     0.027 A 
ENDROOT
BRANCH   1   7
ATOM      7  N   UNL     1      25.782  12.005 -24.143  1.00  0.00    -0.372 N 
BRANCH   7   8
ATOM      8  C   UNL     1      26.472  12.414 -25.378  1.00  0.00     0.113 C 
ATOM      9  C   UNL     1      26.158  11.464 -26.524  1.00  0.00     0.027 C 
ENDBRANCH   7   8
BRANCH   7  10
ATOM     10  C   UNL     1      26.632  11.404 -23.101  1.00  0.00     0.113 C 
ATOM     11  C   UNL     1      27.962  12.137 -22.973  1.00  0.00     0.027 C 
ENDBRANCH   7  10
ENDBRANCH   1   7
BRANCH   4  12
ATOM     12  C   UNL     1      20.112  12.407 -23.670  1.00  0.00     0.269 A 
ATOM     13  S   UNL     1      19.118  12.045 -25.015  1.00  0.00    -0.062 S 
ATOM     14  N   UNL     1      19.391  12.758 -22.618  1.00  0.00    -0.184 N 
ATOM     15  C   UNL     1      17.681  12.343 -24.112  1.00  0.00     0.105 A 
ATOM     16  C   UNL     1      18.018  12.722 -22.816  1.00  0.00     0.223 A 
ATOM     17  C   UNL     1      16.344  12.247 -24.531  1.00  0.00     0.029 A 
ATOM     18  C   UNL     1      16.998  13.016 -21.890  1.00  0.00     0.081 A 
ATOM     19  C   UNL     1      15.331  12.529 -23.601  1.00  0.00    -0.049 A 
ATOM     20  C   UNL     1      15.662  12.920 -22.301  1.00  0.00     0.010 A 
ATOM     21  C   UNL     1      19.980  13.140 -21.340  1.00  0.00     0.442 C 
ATOM     22  C   UNL     1      13.889  12.466 -24.025  1.00  0.00     0.044 C 
ENDBRANCH   4  12
TORSDOF 4
ENDMDL
MODEL 2
REMARK VINA RESULT:      -5.7      0.349      1.399
REMARK SMILES CCN(CC)c1ccc(-c2sc3cc(C)ccc3[n+]2C)cc1
REMARK SMILES IDX 6 1 7 2 8 3 9 4 21 5 22 6 3 7 2 8 1 9 4 10 5 11 10 12 11 13
REMARK SMILES IDX 19 14 12 15 18 16 13 17 17 18 14 19 16 20 20 21 15 22
REMARK H PARENT
ROOT
ATOM      1  C   UNL     1      24.426  12.294 -24.044  1.00  0.00     0.037 A 
ATOM      2  C   UNL     1      23.692  13.458 -24.332  1.00  0.00     0.027 A 
ATOM      3  C   UNL     1      22.296  13.523 -24.199  1.00  0.00     0.018 A 
ATOM      4  C   UNL     1      21.579  12.407 -23.765  1.00  0.00     0.058 A 
ATOM      5  C   UNL     1      22.276  11.239 -23.466  1.00  0.00     0.018 A 
ATOM      6  C   UNL     1      23.672  11.192 -23.606  1.00  0.00     0.027 A 
ENDROOT
BRANCH   1   7
ATOM      7  N   UNL     1      25.807  12.237 -24.184  1.00  0.00    -0.372 N 
BRANCH   7   8
ATOM      8  C   UNL     1      26.623  11.300 -23.394  1.00  0.00     0.113 C 
ATOM      9  C   UNL     1      27.850  11.991 -22.817  1.00  0.00     0.027 C 
ENDBRANCH   7   8
BRANCH   7  10
ATOM     10  C   UNL     1      26.553  13.160 -25.057  1.00  0.00     0.113 C 
ATOM     11  C   UNL     1      26.734  12.584 -26.455  1.00  0.00     0.027 C 
ENDBRANCH   7  10
ENDBRANCH   1   7
BRANCH   4  12
ATOM     12  C   UNL     1      20.131  12.457 -23.664  1.00  0.00     0.269 A 
ATOM     13  S   UNL     1      19.139  12.075 -25.004  1.00  0.00    -0.062 S 
ATOM     14  N   UNL     1      19.408  12.774 -22.603  1.00  0.00    -0.184 N 
ATOM     15  C   UNL     1      17.700  12.318 -24.087  1.00  0.00     0.105 A 
ATOM     16  C   UNL     1      18.035  12.697 -22.790  1.00  0.00     0.223 A 
ATOM     17  C   UNL     1      16.364  12.184 -24.497  1.00  0.00     0.029 A 
ATOM     18  C   UNL     1      17.014  12.949 -21.853  1.00  0.00     0.081 A 
ATOM     19  C   UNL     1      15.349  12.424 -23.557  1.00  0.00    -0.049 A 
ATOM     20  C   UNL     1      15.679  12.815 -22.255  1.00  0.00     0.010 A 
ATOM     21  C   UNL     1      19.995  13.163 -21.325  1.00  0.00     0.442 C 
ATOM     22  C   UNL     1      13.907  12.319 -23.970  1.00  0.00     0.044 C 
ENDBRANCH   4  12
TORSDOF 4
ENDMDL
MODEL 3
REMARK VINA RESULT:      -5.7      0.248      1.048
REMARK SMILES CCN(CC)c1ccc(-c2sc3cc(C)ccc3[n+]2C)cc1
REMARK SMILES IDX 6 1 7 2 8 3 9 4 21 5 22 6 3 7 2 8 1 9 4 10 5 11 10 12 11 13
REMARK SMILES IDX 19 14 12 15 18 16 13 17 17 18 14 19 16 20 20 21 15 22
REMARK H PARENT
ROOT
ATOM      1  C   UNL     1      24.430  12.258 -24.054  1.00  0.00     0.037 A 
ATOM      2  C   UNL     1      23.663  11.154 -23.642  1.00  0.00     0.027 A 
ATOM      3  C   UNL     1      22.263  11.197 -23.553  1.00  0.00     0.018 A 
ATOM      4  C   UNL     1      21.574  12.366 -23.877  1.00  0.00     0.058 A 
ATOM      5  C   UNL     1      22.303  13.478 -24.294  1.00  0.00     0.018 A 
ATOM      6  C   UNL     1      23.702  13.417 -24.376  1.00  0.00     0.027 A 
ENDROOT
BRANCH   1   7
ATOM      7  N   UNL     1      25.815  12.208 -24.134  1.00  0.00    -0.372 N 
BRANCH   7   8
ATOM      8  C   UNL     1      26.554  12.949 -25.170  1.00  0.00     0.113 C 
ATOM      9  C   UNL     1      26.601  12.169 -26.475  1.00  0.00     0.027 C 
ENDBRANCH   7   8
BRANCH   7  10
ATOM     10  C   UNL     1      26.629  11.350 -23.255  1.00  0.00     0.113 C 
ATOM     11  C   UNL     1      27.887  12.068 -22.782  1.00  0.00     0.027 C 
ENDBRANCH   7  10
ENDBRANCH   1   7
BRANCH   4  12
ATOM     12  C   UNL     1      20.128  12.429 -23.748  1.00  0.00     0.269 A 
ATOM     13  S   UNL     1      19.108  12.052 -25.068  1.00  0.00    -0.062 S 
ATOM     14  N   UNL     1      19.428  12.757 -22.675  1.00  0.00    -0.184 N 
ATOM     15  C   UNL     1      17.689  12.312 -24.126  1.00  0.00     0.105 A 
ATOM     16  C   UNL     1      18.052  12.692 -22.837  1.00  0.00     0.223 A 
ATOM     17  C   UNL     1      16.344  12.189 -24.509  1.00  0.00     0.029 A 
ATOM     18  C   UNL     1      17.051  12.957 -21.882  1.00  0.00     0.081 A 
ATOM     19  C   UNL     1      15.350  12.442 -23.552  1.00  0.00    -0.049 A 
ATOM     20  C   UNL     1      15.707  12.834 -22.258  1.00  0.00     0.010 A 
ATOM     21  C   UNL     1      20.043  13.146 -21.411  1.00  0.00     0.442 C 
ATOM     22  C   UNL     1      13.899  12.349 -23.938  1.00  0.00     0.044 C 
ENDBRANCH   4  12
TORSDOF 4
ENDMDL
