MODEL 1
REMARK VINA RESULT:      -8.8      0.000      0.000
REMARK SMILES Cc1cc(N)c2ccccc2[n+]1CCCCCCCCCC[n+]1c(C)cc(N)c2ccccc21
REMARK SMILES IDX 17 1 16 2 15 3 14 4 13 5 12 6 2 7 3 8 4 9 11 10 6 11 10 12
REMARK SMILES IDX 7 13 9 14 8 15 1 16 5 17 18 20 19 21 20 22 21 23 22 24 23 25
REMARK SMILES IDX 24 26 34 27 26 28 33 29 29 30 27 31 32 32 30 33 31 34 25 35
REMARK SMILES IDX 28 36
REMARK H PARENT 5 18 5 19 28 37 28 38
ROOT
ATOM      1  C   UNL     1      26.934  24.090  -8.653  1.00  0.00     0.000 C 
ENDROOT
BRANCH   1   2
ATOM      2  C   UNL     1      27.325  25.542  -8.946  1.00  0.00     0.000 C 
BRANCH   2   3
ATOM      3  C   UNL     1      28.247  25.678 -10.164  1.00  0.00     0.007 C 
BRANCH   3   4
ATOM      4  C   UNL     1      28.211  27.069 -10.805  1.00  0.00     0.073 C 
BRANCH   4   5
ATOM      5  C   UNL     1      29.197  27.228 -11.971  1.00  0.00     0.357 C 
BRANCH   5   6
ATOM      6  N   UNL     1      30.618  27.267 -11.489  1.00  0.00    -0.196 N 
ATOM      7  C   UNL     1      31.055  28.346 -10.771  1.00  0.00     0.180 A 
ATOM      8  C   UNL     1      32.401  28.443 -10.408  1.00  0.00     0.100 A 
ATOM      9  C   UNL     1      33.321  27.469 -10.761  1.00  0.00     0.052 A 
ATOM     10  C   UNL     1      31.466  26.206 -11.738  1.00  0.00     0.214 A 
ATOM     11  C   UNL     1      32.841  26.299 -11.374  1.00  0.00     0.069 A 
ATOM     12  C   UNL     1      31.013  25.002 -12.331  1.00  0.00     0.080 A 
ATOM     13  C   UNL     1      33.684  25.191 -11.639  1.00  0.00     0.017 A 
ATOM     14  C   UNL     1      31.869  23.926 -12.574  1.00  0.00     0.007 A 
ATOM     15  C   UNL     1      33.205  24.023 -12.231  1.00  0.00     0.001 A 
ATOM     16  C   UNL     1      30.125  29.441 -10.310  1.00  0.00     0.124 C 
BRANCH   9  17
ATOM     17  N   UNL     1      34.627  27.598 -10.278  1.00  0.00    -0.398 N 
ATOM     18  H   UNL     1      34.875  28.468  -9.821  1.00  0.00     0.156 HD
ATOM     19  H   UNL     1      35.021  26.796  -9.793  1.00  0.00     0.156 HD
ENDBRANCH   9  17
ENDBRANCH   5   6
ENDBRANCH   4   5
ENDBRANCH   3   4
ENDBRANCH   2   3
ENDBRANCH   1   2
BRANCH   1  20
ATOM     20  C   UNL     1      25.423  23.837  -8.763  1.00  0.00     0.000 C 
BRANCH  20  21
ATOM     21  C   UNL     1      24.853  22.783  -7.805  1.00  0.00     0.000 C 
BRANCH  21  22
ATOM     22  C   UNL     1      25.888  21.729  -7.380  1.00  0.00     0.007 C 
BRANCH  22  23
ATOM     23  C   UNL     1      25.465  20.279  -7.658  1.00  0.00     0.073 C 
BRANCH  23  24
ATOM     24  C   UNL     1      23.961  20.036  -7.838  1.00  0.00     0.357 C 
BRANCH  24  25
ATOM     25  N   UNL     1      23.670  18.958  -8.838  1.00  0.00    -0.196 N 
ATOM     26  C   UNL     1      22.577  18.155  -8.662  1.00  0.00     0.180 A 
ATOM     27  C   UNL     1      24.520  18.755  -9.908  1.00  0.00     0.214 A 
ATOM     28  C   UNL     1      22.235  17.221  -9.643  1.00  0.00     0.100 A 
ATOM     29  C   UNL     1      25.752  19.439 -10.038  1.00  0.00     0.080 A 
ATOM     30  C   UNL     1      24.170  17.818 -10.923  1.00  0.00     0.069 A 
ATOM     31  C   UNL     1      22.970  17.098 -10.811  1.00  0.00     0.052 A 
ATOM     32  C   UNL     1      26.602  19.237 -11.127  1.00  0.00     0.007 A 
ATOM     33  C   UNL     1      25.049  17.640 -12.017  1.00  0.00     0.017 A 
ATOM     34  C   UNL     1      26.246  18.346 -12.120  1.00  0.00     0.001 A 
ATOM     35  C   UNL     1      21.712  18.227  -7.431  1.00  0.00     0.124 C 
BRANCH  31  36
ATOM     36  N   UNL     1      22.565  16.100 -11.710  1.00  0.00    -0.398 N 
ATOM     37  H   UNL     1      21.657  15.687 -11.520  1.00  0.00     0.156 HD
ATOM     38  H   UNL     1      22.590  16.405 -12.683  1.00  0.00     0.156 HD
ENDBRANCH  31  36
ENDBRANCH  24  25
ENDBRANCH  23  24
ENDBRANCH  22  23
ENDBRANCH  21  22
ENDBRANCH  20  21
ENDBRANCH   1  20
TORSDOF 13
ENDMDL
MODEL 2
REMARK VINA RESULT:      -8.6      0.676     11.124
REMARK SMILES Cc1cc(N)c2ccccc2[n+]1CCCCCCCCCC[n+]1c(C)cc(N)c2ccccc21
REMARK SMILES IDX 17 1 16 2 15 3 14 4 13 5 12 6 2 7 3 8 4 9 11 10 6 11 10 12
REMARK SMILES IDX 7 13 9 14 8 15 1 16 5 17 18 20 19 21 20 22 21 23 22 24 23 25
REMARK SMILES IDX 24 26 34 27 26 28 33 29 29 30 27 31 32 32 30 33 31 34 25 35
REMARK SMILES IDX 28 36
REMARK H PARENT 5 18 5 19 28 37 28 38
ROOT
ATOM      1  C   UNL     1      25.481  23.726  -8.345  1.00  0.00     0.000 C 
ENDROOT
BRANCH   1   2
ATOM      2  C   UNL     1      24.988  22.522  -7.537  1.00  0.00     0.000 C 
BRANCH   2   3
ATOM      3  C   UNL     1      26.090  21.490  -7.270  1.00  0.00     0.007 C 
BRANCH   3   4
ATOM      4  C   UNL     1      25.815  20.123  -7.905  1.00  0.00     0.073 C 
BRANCH   4   5
ATOM      5  C   UNL     1      25.617  20.187  -9.426  1.00  0.00     0.357 C 
BRANCH   5   6
ATOM      6  N   UNL     1      24.799  19.031  -9.924  1.00  0.00    -0.196 N 
ATOM      7  C   UNL     1      25.184  18.374 -11.060  1.00  0.00     0.180 A 
ATOM      8  C   UNL     1      24.375  17.366 -11.591  1.00  0.00     0.100 A 
ATOM      9  C   UNL     1      23.176  17.009 -10.996  1.00  0.00     0.052 A 
ATOM     10  C   UNL     1      23.688  18.612  -9.219  1.00  0.00     0.214 A 
ATOM     11  C   UNL     1      22.855  17.587  -9.756  1.00  0.00     0.069 A 
ATOM     12  C   UNL     1      23.347  19.154  -7.956  1.00  0.00     0.080 A 
ATOM     13  C   UNL     1      21.725  17.177  -9.007  1.00  0.00     0.017 A 
ATOM     14  C   UNL     1      22.229  18.724  -7.240  1.00  0.00     0.007 A 
ATOM     15  C   UNL     1      21.415  17.737  -7.768  1.00  0.00     0.001 A 
ATOM     16  C   UNL     1      26.488  18.667 -11.761  1.00  0.00     0.124 C 
BRANCH   9  17
ATOM     17  N   UNL     1      22.474  15.928 -11.539  1.00  0.00    -0.398 N 
ATOM     18  H   UNL     1      22.892  15.007 -11.457  1.00  0.00     0.156 HD
ATOM     19  H   UNL     1      21.471  15.898 -11.373  1.00  0.00     0.156 HD
ENDBRANCH   9  17
ENDBRANCH   5   6
ENDBRANCH   4   5
ENDBRANCH   3   4
ENDBRANCH   2   3
ENDBRANCH   1   2
BRANCH   1  20
ATOM     20  C   UNL     1      26.608  24.502  -7.646  1.00  0.00     0.000 C 
BRANCH  20  21
ATOM     21  C   UNL     1      26.994  25.839  -8.291  1.00  0.00     0.000 C 
BRANCH  21  22
ATOM     22  C   UNL     1      27.778  25.675  -9.602  1.00  0.00     0.007 C 
BRANCH  22  23
ATOM     23  C   UNL     1      28.127  26.998 -10.300  1.00  0.00     0.073 C 
BRANCH  23  24
ATOM     24  C   UNL     1      28.945  26.887 -11.593  1.00  0.00     0.357 C 
BRANCH  24  25
ATOM     25  N   UNL     1      30.403  27.150 -11.373  1.00  0.00    -0.196 N 
ATOM     26  C   UNL     1      30.805  28.375 -10.913  1.00  0.00     0.180 A 
ATOM     27  C   UNL     1      31.338  26.175 -11.666  1.00  0.00     0.214 A 
ATOM     28  C   UNL     1      32.148  28.596 -10.601  1.00  0.00     0.100 A 
ATOM     29  C   UNL     1      30.990  24.962 -12.304  1.00  0.00     0.080 A 
ATOM     30  C   UNL     1      32.707  26.384 -11.333  1.00  0.00     0.069 A 
ATOM     31  C   UNL     1      33.093  27.590 -10.727  1.00  0.00     0.052 A 
ATOM     32  C   UNL     1      31.937  23.975 -12.589  1.00  0.00     0.007 A 
ATOM     33  C   UNL     1      33.642  25.364 -11.629  1.00  0.00     0.017 A 
ATOM     34  C   UNL     1      33.260  24.173 -12.243  1.00  0.00     0.001 A 
ATOM     35  C   UNL     1      29.845  29.523 -10.734  1.00  0.00     0.124 C 
BRANCH  31  36
ATOM     36  N   UNL     1      34.420  27.929 -10.426  1.00  0.00    -0.398 N 
ATOM     37  H   UNL     1      34.689  27.811  -9.454  1.00  0.00     0.156 HD
ATOM     38  H   UNL     1      35.100  27.448 -11.015  1.00  0.00     0.156 HD
ENDBRANCH  31  36
ENDBRANCH  24  25
ENDBRANCH  23  24
ENDBRANCH  22  23
ENDBRANCH  21  22
ENDBRANCH  20  21
ENDBRANCH   1  20
TORSDOF 13
ENDMDL
MODEL 3
REMARK VINA RESULT:      -8.5      0.731     10.749
REMARK SMILES Cc1cc(N)c2ccccc2[n+]1CCCCCCCCCC[n+]1c(C)cc(N)c2ccccc21
REMARK SMILES IDX 17 1 16 2 15 3 14 4 13 5 12 6 2 7 3 8 4 9 11 10 6 11 10 12
REMARK SMILES IDX 7 13 9 14 8 15 1 16 5 17 18 20 19 21 20 22 21 23 22 24 23 25
REMARK SMILES IDX 24 26 34 27 26 28 33 29 29 30 27 31 32 32 30 33 31 34 25 35
REMARK SMILES IDX 28 36
REMARK H PARENT 5 18 5 19 28 37 28 38
ROOT
ATOM      1  C   UNL     1      26.546  22.946  -6.952  1.00  0.00     0.000 C 
ENDROOT
BRANCH   1   2
ATOM      2  C   UNL     1      25.670  22.353  -8.061  1.00  0.00     0.000 C 
BRANCH   2   3
ATOM      3  C   UNL     1      24.178  22.357  -7.710  1.00  0.00     0.007 C 
BRANCH   3   4
ATOM      4  C   UNL     1      23.658  20.996  -7.236  1.00  0.00     0.073 C 
BRANCH   4   5
ATOM      5  C   UNL     1      24.597  19.831  -7.579  1.00  0.00     0.357 C 
BRANCH   5   6
ATOM      6  N   UNL     1      24.050  18.994  -8.698  1.00  0.00    -0.196 N 
ATOM      7  C   UNL     1      22.817  18.416  -8.565  1.00  0.00     0.180 A 
ATOM      8  C   UNL     1      22.343  17.550  -9.555  1.00  0.00     0.100 A 
ATOM      9  C   UNL     1      23.095  17.251 -10.679  1.00  0.00     0.052 A 
ATOM     10  C   UNL     1      24.771  18.838  -9.866  1.00  0.00     0.214 A 
ATOM     11  C   UNL     1      24.296  17.954 -10.878  1.00  0.00     0.069 A 
ATOM     12  C   UNL     1      25.971  19.549 -10.111  1.00  0.00     0.080 A 
ATOM     13  C   UNL     1      25.056  17.821 -12.066  1.00  0.00     0.017 A 
ATOM     14  C   UNL     1      26.695  19.399 -11.296  1.00  0.00     0.007 A 
ATOM     15  C   UNL     1      26.238  18.531 -12.272  1.00  0.00     0.001 A 
ATOM     16  C   UNL     1      21.910  18.706  -7.396  1.00  0.00     0.124 C 
BRANCH   9  17
ATOM     17  N   UNL     1      22.508  16.450 -11.663  1.00  0.00    -0.398 N 
ATOM     18  H   UNL     1      22.792  16.602 -12.625  1.00  0.00     0.156 HD
ATOM     19  H   UNL     1      22.413  15.459 -11.456  1.00  0.00     0.156 HD
ENDBRANCH   9  17
ENDBRANCH   5   6
ENDBRANCH   4   5
ENDBRANCH   3   4
ENDBRANCH   2   3
ENDBRANCH   1   2
BRANCH   1  20
ATOM     20  C   UNL     1      27.000  24.383  -7.245  1.00  0.00     0.000 C 
BRANCH  20  21
ATOM     21  C   UNL     1      27.971  24.547  -8.422  1.00  0.00     0.000 C 
BRANCH  21  22
ATOM     22  C   UNL     1      27.344  25.267  -9.626  1.00  0.00     0.007 C 
BRANCH  22  23
ATOM     23  C   UNL     1      27.913  26.668  -9.891  1.00  0.00     0.073 C 
BRANCH  23  24
ATOM     24  C   UNL     1      28.585  26.881 -11.253  1.00  0.00     0.357 C 
BRANCH  24  25
ATOM     25  N   UNL     1      30.025  27.278 -11.127  1.00  0.00    -0.196 N 
ATOM     26  C   UNL     1      30.341  28.500 -10.598  1.00  0.00     0.180 A 
ATOM     27  C   UNL     1      31.022  26.432 -11.574  1.00  0.00     0.214 A 
ATOM     28  C   UNL     1      31.678  28.836 -10.375  1.00  0.00     0.100 A 
ATOM     29  C   UNL     1      30.741  25.241 -12.284  1.00  0.00     0.080 A 
ATOM     30  C   UNL     1      32.388  26.758 -11.333  1.00  0.00     0.069 A 
ATOM     31  C   UNL     1      32.703  27.947 -10.659  1.00  0.00     0.052 A 
ATOM     32  C   UNL     1      31.753  24.384 -12.724  1.00  0.00     0.007 A 
ATOM     33  C   UNL     1      33.388  25.867 -11.786  1.00  0.00     0.017 A 
ATOM     34  C   UNL     1      33.075  24.692 -12.467  1.00  0.00     0.001 A 
ATOM     35  C   UNL     1      29.293  29.523 -10.248  1.00  0.00     0.124 C 
BRANCH  31  36
ATOM     36  N   UNL     1      34.012  28.401 -10.436  1.00  0.00    -0.398 N 
ATOM     37  H   UNL     1      34.117  29.066  -9.675  1.00  0.00     0.156 HD
ATOM     38  H   UNL     1      34.681  27.643 -10.304  1.00  0.00     0.156 HD
ENDBRANCH  31  36
ENDBRANCH  24  25
ENDBRANCH  23  24
ENDBRANCH  22  23
ENDBRANCH  21  22
ENDBRANCH  20  21
ENDBRANCH   1  20
TORSDOF 13
ENDMDL
