MODEL 1
REMARK VINA RESULT:      -6.1      0.000      0.000
REMARK SMILES COc1cc2nc(N3CCN(C(=O)C(C)C)CC3)nc(N)c2cc1OC
REMARK SMILES IDX 3 1 4 2 5 3 6 4 7 5 19 6 20 7 22 8 23 9 24 10 2 11 1 12
REMARK SMILES IDX 25 13 26 14 8 15 9 16 18 17 10 18 17 19 11 20 12 21 13 22
REMARK SMILES IDX 14 23 15 24 16 25 21 26
REMARK H PARENT 21 27 21 28
ROOT
ATOM      1  C   UNL     1      25.353  18.367 -11.126  1.00  0.00     0.162 A 
ATOM      2  C   UNL     1      25.768  19.310 -10.179  1.00  0.00     0.079 A 
ATOM      3  C   UNL     1      24.987  19.643  -9.079  1.00  0.00     0.082 A 
ATOM      4  N   UNL     1      25.451  20.552  -8.217  1.00  0.00    -0.213 NA
ATOM      5  C   UNL     1      24.708  20.874  -7.149  1.00  0.00     0.228 A 
ATOM      6  N   UNL     1      23.511  20.325  -6.918  1.00  0.00    -0.195 NA
ATOM      7  C   UNL     1      23.042  19.419  -7.784  1.00  0.00     0.137 A 
ATOM      8  C   UNL     1      23.754  19.017  -8.919  1.00  0.00     0.047 A 
ATOM      9  C   UNL     1      23.318  18.058  -9.869  1.00  0.00     0.064 A 
ATOM     10  C   UNL     1      24.112  17.731 -10.970  1.00  0.00     0.161 A 
ENDROOT
BRANCH   1  11
ATOM     11  O   UNL     1      26.084  18.000 -12.229  1.00  0.00    -0.493 OA
ATOM     12  C   UNL     1      26.942  18.976 -12.808  1.00  0.00     0.278 C 
ENDBRANCH   1  11
BRANCH  10  13
ATOM     13  O   UNL     1      23.770  16.819 -11.935  1.00  0.00    -0.493 OA
ATOM     14  C   UNL     1      22.740  17.164 -12.848  1.00  0.00     0.278 C 
ENDBRANCH  10  13
BRANCH   5  15
ATOM     15  N   UNL     1      25.217  21.799  -6.248  1.00  0.00    -0.337 N 
ATOM     16  C   UNL     1      26.340  22.600  -6.766  1.00  0.00     0.141 C 
ATOM     17  C   UNL     1      24.273  22.480  -5.356  1.00  0.00     0.141 C 
ATOM     18  C   UNL     1      26.500  23.927  -6.003  1.00  0.00     0.141 C 
ATOM     19  C   UNL     1      24.012  23.923  -5.823  1.00  0.00     0.141 C 
ATOM     20  N   UNL     1      25.252  24.705  -5.977  1.00  0.00    -0.339 N 
ATOM     21  C   UNL     1      25.332  26.090  -5.969  1.00  0.00     0.225 C 
ATOM     22  O   UNL     1      26.421  26.665  -5.920  1.00  0.00    -0.275 OA
BRANCH  21  23
ATOM     23  C   UNL     1      24.031  26.891  -6.084  1.00  0.00     0.072 C 
ATOM     24  C   UNL     1      24.178  27.981  -7.144  1.00  0.00     0.018 C 
ATOM     25  C   UNL     1      23.666  27.527  -4.740  1.00  0.00     0.018 C 
ENDBRANCH  21  23
ENDBRANCH   5  15
BRANCH   7  26
ATOM     26  N   UNL     1      21.777  18.884  -7.481  1.00  0.00    -0.383 N 
ATOM     27  H   UNL     1      21.877  17.915  -7.196  1.00  0.00     0.158 HD
ATOM     28  H   UNL     1      21.182  18.923  -8.303  1.00  0.00     0.158 HD
ENDBRANCH   7  26
TORSDOF 5
ENDMDL
MODEL 2
REMARK VINA RESULT:      -6.0      1.403      1.708
REMARK SMILES COc1cc2nc(N3CCN(C(=O)C(C)C)CC3)nc(N)c2cc1OC
REMARK SMILES IDX 3 1 4 2 5 3 6 4 7 5 19 6 20 7 22 8 23 9 24 10 2 11 1 12
REMARK SMILES IDX 25 13 26 14 8 15 9 16 18 17 10 18 17 19 11 20 12 21 13 22
REMARK SMILES IDX 14 23 15 24 16 25 21 26
REMARK H PARENT 21 27 21 28
ROOT
ATOM      1  C   UNL     1      26.167  18.418 -11.683  1.00  0.00     0.162 A 
ATOM      2  C   UNL     1      26.146  19.257 -10.562  1.00  0.00     0.079 A 
ATOM      3  C   UNL     1      25.088  19.258  -9.663  1.00  0.00     0.082 A 
ATOM      4  N   UNL     1      25.139  20.085  -8.616  1.00  0.00    -0.213 NA
ATOM      5  C   UNL     1      24.125  20.089  -7.738  1.00  0.00     0.228 A 
ATOM      6  N   UNL     1      23.056  19.297  -7.877  1.00  0.00    -0.195 NA
ATOM      7  C   UNL     1      23.000  18.473  -8.929  1.00  0.00     0.137 A 
ATOM      8  C   UNL     1      24.016  18.397  -9.887  1.00  0.00     0.047 A 
ATOM      9  C   UNL     1      24.022  17.540 -11.018  1.00  0.00     0.064 A 
ATOM     10  C   UNL     1      25.091  17.547 -11.914  1.00  0.00     0.161 A 
ENDROOT
BRANCH   1  11
ATOM     11  O   UNL     1      27.187  18.376 -12.602  1.00  0.00    -0.493 OA
ATOM     12  C   UNL     1      27.343  19.492 -13.468  1.00  0.00     0.278 C 
ENDBRANCH   1  11
BRANCH  10  13
ATOM     13  O   UNL     1      25.180  16.755 -13.030  1.00  0.00    -0.493 OA
ATOM     14  C   UNL     1      26.244  15.819 -13.104  1.00  0.00     0.278 C 
ENDBRANCH  10  13
BRANCH   5  15
ATOM     15  N   UNL     1      24.208  20.934  -6.640  1.00  0.00    -0.337 N 
ATOM     16  C   UNL     1      25.571  21.112  -6.109  1.00  0.00     0.141 C 
ATOM     17  C   UNL     1      23.326  22.105  -6.609  1.00  0.00     0.141 C 
ATOM     18  C   UNL     1      25.709  22.418  -5.307  1.00  0.00     0.141 C 
ATOM     19  C   UNL     1      24.100  23.391  -6.946  1.00  0.00     0.141 C 
ATOM     20  N   UNL     1      25.278  23.592  -6.081  1.00  0.00    -0.339 N 
ATOM     21  C   UNL     1      25.908  24.806  -5.853  1.00  0.00     0.225 C 
ATOM     22  O   UNL     1      26.769  24.924  -4.978  1.00  0.00    -0.275 OA
BRANCH  21  23
ATOM     23  C   UNL     1      25.549  25.989  -6.760  1.00  0.00     0.072 C 
ATOM     24  C   UNL     1      26.475  26.018  -7.974  1.00  0.00     0.018 C 
ATOM     25  C   UNL     1      25.661  27.310  -5.995  1.00  0.00     0.018 C 
ENDBRANCH  21  23
ENDBRANCH   5  15
BRANCH   7  26
ATOM     26  N   UNL     1      21.847  17.672  -9.015  1.00  0.00    -0.383 N 
ATOM     27  H   UNL     1      21.575  17.572  -9.988  1.00  0.00     0.158 HD
ATOM     28  H   UNL     1      21.086  18.109  -8.506  1.00  0.00     0.158 HD
ENDBRANCH   7  26
TORSDOF 5
ENDMDL
MODEL 3
REMARK VINA RESULT:      -6.0     17.220     18.863
REMARK SMILES COc1cc2nc(N3CCN(C(=O)C(C)C)CC3)nc(N)c2cc1OC
REMARK SMILES IDX 3 1 4 2 5 3 6 4 7 5 19 6 20 7 22 8 23 9 24 10 2 11 1 12
REMARK SMILES IDX 25 13 26 14 8 15 9 16 18 17 10 18 17 19 11 20 12 21 13 22
REMARK SMILES IDX 14 23 15 24 16 25 21 26
REMARK H PARENT 21 27 21 28
ROOT
ATOM      1  C   UNL     1      22.984  11.421 -23.818  1.00  0.00     0.162 A 
ATOM      2  C   UNL     1      24.335  11.053 -23.853  1.00  0.00     0.079 A 
ATOM      3  C   UNL     1      25.337  11.960 -24.171  1.00  0.00     0.082 A 
ATOM      4  N   UNL     1      26.603  11.536 -24.183  1.00  0.00    -0.213 NA
ATOM      5  C   UNL     1      27.579  12.406 -24.482  1.00  0.00     0.228 A 
ATOM      6  N   UNL     1      27.330  13.686 -24.778  1.00  0.00    -0.195 NA
ATOM      7  C   UNL     1      26.062  14.111 -24.772  1.00  0.00     0.137 A 
ATOM      8  C   UNL     1      24.984  13.276 -24.463  1.00  0.00     0.047 A 
ATOM      9  C   UNL     1      23.619  13.665 -24.431  1.00  0.00     0.064 A 
ATOM     10  C   UNL     1      22.621  12.745 -24.110  1.00  0.00     0.161 A 
ENDROOT
BRANCH   1  11
ATOM     11  O   UNL     1      21.954  10.566 -23.510  1.00  0.00    -0.493 OA
ATOM     12  C   UNL     1      21.712   9.477 -24.391  1.00  0.00     0.278 C 
ENDBRANCH   1  11
BRANCH  10  13
ATOM     13  O   UNL     1      21.282  13.034 -24.056  1.00  0.00    -0.493 OA
ATOM     14  C   UNL     1      20.808  13.808 -22.964  1.00  0.00     0.278 C 
ENDBRANCH  10  13
BRANCH   5  15
ATOM     15  N   UNL     1      28.892  11.954 -24.462  1.00  0.00    -0.337 N 
ATOM     16  C   UNL     1      29.902  13.016 -24.611  1.00  0.00     0.141 C 
ATOM     17  C   UNL     1      29.222  10.845 -23.561  1.00  0.00     0.141 C 
ATOM     18  C   UNL     1      31.269  12.591 -24.044  1.00  0.00     0.141 C 
ATOM     19  C   UNL     1      29.971  11.348 -22.315  1.00  0.00     0.141 C 
ATOM     20  N   UNL     1      31.173  12.134 -22.650  1.00  0.00    -0.339 N 
ATOM     21  C   UNL     1      32.248  12.355 -21.802  1.00  0.00     0.225 C 
ATOM     22  O   UNL     1      33.291  12.865 -22.215  1.00  0.00    -0.275 OA
BRANCH  21  23
ATOM     23  C   UNL     1      32.085  12.003 -20.319  1.00  0.00     0.072 C 
ATOM     24  C   UNL     1      32.556  13.167 -19.449  1.00  0.00     0.018 C 
ATOM     25  C   UNL     1      32.883  10.744 -19.971  1.00  0.00     0.018 C 
ENDBRANCH  21  23
ENDBRANCH   5  15
BRANCH   7  26
ATOM     26  N   UNL     1      25.872  15.467 -25.095  1.00  0.00    -0.383 N 
ATOM     27  H   UNL     1      25.598  15.549 -26.069  1.00  0.00     0.158 HD
ATOM     28  H   UNL     1      26.737  15.978 -24.954  1.00  0.00     0.158 HD
ENDBRANCH   7  26
TORSDOF 5
ENDMDL
