MODEL 1
REMARK VINA RESULT:      -6.8      0.000      0.000
REMARK SMILES CC(=O)Nc1nc(-c2cccc(NC(=O)C(CNC(=O)[C@@H](N)CCCNC(=N)N)NC(=O)[C@@H](N)CCCNC(=N)N)c2)cs1
REMARK SMILES IDX 16 1 14 2 13 3 15 4 12 6 8 7 9 8 42 9 10 10 11 11 7 12 5 13
REMARK SMILES IDX 6 14 44 15 43 16 4 17 2 18 3 19 1 20 17 22 18 23 19 24 20 25
REMARK SMILES IDX 21 27 22 28 23 31 24 32 25 33 26 34 27 35 28 36 29 37 30 42
REMARK SMILES IDX 31 43 32 44 33 46 34 47 35 50 36 51 37 52 38 53 39 54 40 55
REMARK SMILES IDX 41 56
REMARK H PARENT 13 5 4 21 18 26 22 29 22 30 26 38 28 39 29 40 29 41 30 45
REMARK H PARENT 34 48 34 49 38 57 40 58 41 59 41 60
ROOT
ATOM      1  C   UNL     1      25.809  23.230  -8.495  1.00  0.00     0.191 C 
ENDROOT
BRANCH   1   2
ATOM      2  C   UNL     1      27.078  24.089  -8.686  1.00  0.00     0.248 C 
ATOM      3  N   UNL     1      27.201  24.579  -9.977  1.00  0.00    -0.324 N 
ATOM      4  O   UNL     1      27.839  24.315  -7.746  1.00  0.00    -0.272 OA
ATOM      5  H   UNL     1      26.443  24.329 -10.617  1.00  0.00     0.170 HD
BRANCH   3   6
ATOM      6  C   UNL     1      28.150  25.498 -10.464  1.00  0.00     0.041 A 
ATOM      7  C   UNL     1      30.263  26.107 -11.528  1.00  0.00     0.003 A 
ATOM      8  C   UNL     1      29.970  27.463 -11.310  1.00  0.00     0.010 A 
ATOM      9  C   UNL     1      29.339  25.134 -11.102  1.00  0.00     0.036 A 
ATOM     10  C   UNL     1      28.778  27.834 -10.692  1.00  0.00     0.003 A 
ATOM     11  C   UNL     1      27.881  26.857 -10.261  1.00  0.00     0.026 A 
BRANCH   7  12
ATOM     12  C   UNL     1      31.511  25.683 -12.153  1.00  0.00     0.084 A 
ATOM     13  C   UNL     1      33.179  24.267 -12.524  1.00  0.00     0.189 A 
ATOM     14  N   UNL     1      32.009  24.397 -11.940  1.00  0.00    -0.220 NA
ATOM     15  S   UNL     1      33.726  25.621 -13.398  1.00  0.00    -0.105 S 
ATOM     16  C   UNL     1      32.300  26.475 -12.965  1.00  0.00     0.097 A 
BRANCH  13  17
ATOM     17  N   UNL     1      33.880  23.087 -12.490  1.00  0.00    -0.302 N 
ATOM     18  C   UNL     1      33.285  21.840 -12.494  1.00  0.00     0.223 C 
ATOM     19  O   UNL     1      32.082  21.595 -12.518  1.00  0.00    -0.275 OA
ATOM     20  C   UNL     1      34.296  20.722 -12.497  1.00  0.00     0.114 C 
ATOM     21  H   UNL     1      34.843  23.168 -12.832  1.00  0.00     0.172 HD
ENDBRANCH  13  17
ENDBRANCH   7  12
ENDBRANCH   3   6
ENDBRANCH   1   2
BRANCH   1  22
ATOM     22  C   UNL     1      24.572  24.137  -8.373  1.00  0.00     0.151 C 
BRANCH  22  23
ATOM     23  N   UNL     1      23.530  23.554  -7.525  1.00  0.00    -0.352 N 
ATOM     24  C   UNL     1      23.457  23.893  -6.195  1.00  0.00     0.237 C 
ATOM     25  O   UNL     1      24.286  24.631  -5.657  1.00  0.00    -0.273 OA
ATOM     26  H   UNL     1      22.652  23.365  -8.003  1.00  0.00     0.163 HD
BRANCH  24  27
ATOM     27  C   UNL     1      22.377  23.150  -5.354  1.00  0.00     0.141 C 
BRANCH  27  28
ATOM     28  N   UNL     1      21.310  24.103  -4.992  1.00  0.00    -0.320 NA
ATOM     29  H   UNL     1      20.610  23.630  -4.426  1.00  0.00     0.119 HD
ATOM     30  H   UNL     1      21.731  24.808  -4.376  1.00  0.00     0.119 HD
ENDBRANCH  27  28
BRANCH  27  31
ATOM     31  C   UNL     1      21.766  21.885  -5.962  1.00  0.00     0.030 C 
BRANCH  31  32
ATOM     32  C   UNL     1      22.123  20.576  -5.239  1.00  0.00     0.023 C 
BRANCH  32  33
ATOM     33  C   UNL     1      23.403  19.939  -5.788  1.00  0.00     0.116 C 
BRANCH  33  34
ATOM     34  N   UNL     1      24.451  19.852  -4.783  1.00  0.00    -0.357 N 
ATOM     35  C   UNL     1      25.494  20.706  -4.691  1.00  0.00     0.185 C 
ATOM     36  N   UNL     1      26.088  21.337  -5.641  1.00  0.00    -0.270 NA
ATOM     37  N   UNL     1      25.936  20.811  -3.421  1.00  0.00    -0.370 N 
ATOM     38  H   UNL     1      24.079  19.613  -3.870  1.00  0.00     0.163 HD
ATOM     39  H   UNL     1      25.611  21.106  -6.512  1.00  0.00     0.191 HD
ATOM     40  H   UNL     1      26.209  19.921  -3.019  1.00  0.00     0.159 HD
ATOM     41  H   UNL     1      26.712  21.476  -3.360  1.00  0.00     0.159 HD
ENDBRANCH  33  34
ENDBRANCH  32  33
ENDBRANCH  31  32
ENDBRANCH  27  31
ENDBRANCH  24  27
ENDBRANCH  22  23
ENDBRANCH   1  22
BRANCH   1  42
ATOM     42  N   UNL     1      25.673  22.330  -9.646  1.00  0.00    -0.341 N 
ATOM     43  C   UNL     1      25.757  20.959  -9.543  1.00  0.00     0.237 C 
ATOM     44  O   UNL     1      25.761  20.387  -8.456  1.00  0.00    -0.273 OA
ATOM     45  H   UNL     1      25.923  22.694 -10.565  1.00  0.00     0.164 HD
BRANCH  43  46
ATOM     46  C   UNL     1      25.839  20.248 -10.917  1.00  0.00     0.141 C 
BRANCH  46  47
ATOM     47  N   UNL     1      27.003  20.813 -11.657  1.00  0.00    -0.320 NA
ATOM     48  H   UNL     1      27.796  20.872 -11.014  1.00  0.00     0.119 HD
ATOM     49  H   UNL     1      27.289  20.137 -12.368  1.00  0.00     0.119 HD
ENDBRANCH  46  47
BRANCH  46  50
ATOM     50  C   UNL     1      26.015  18.726 -10.791  1.00  0.00     0.030 C 
BRANCH  50  51
ATOM     51  C   UNL     1      26.515  18.013 -12.057  1.00  0.00     0.023 C 
BRANCH  51  52
ATOM     52  C   UNL     1      25.608  16.889 -12.571  1.00  0.00     0.116 C 
BRANCH  52  53
ATOM     53  N   UNL     1      24.486  16.648 -11.683  1.00  0.00    -0.357 N 
ATOM     54  C   UNL     1      23.190  16.857 -12.003  1.00  0.00     0.185 C 
ATOM     55  N   UNL     1      22.665  17.008 -13.160  1.00  0.00    -0.270 NA
ATOM     56  N   UNL     1      22.404  16.900 -10.908  1.00  0.00    -0.370 N 
ATOM     57  H   UNL     1      24.682  16.870 -10.713  1.00  0.00     0.163 HD
ATOM     58  H   UNL     1      23.381  16.935 -13.887  1.00  0.00     0.191 HD
ATOM     59  H   UNL     1      22.534  16.095 -10.308  1.00  0.00     0.159 HD
ATOM     60  H   UNL     1      21.428  16.962 -11.204  1.00  0.00     0.159 HD
ENDBRANCH  52  53
ENDBRANCH  51  52
ENDBRANCH  50  51
ENDBRANCH  46  50
ENDBRANCH  43  46
ENDBRANCH   1  42
TORSDOF 19
ENDMDL
MODEL 2
REMARK VINA RESULT:      -6.8      1.615      5.397
REMARK SMILES CC(=O)Nc1nc(-c2cccc(NC(=O)C(CNC(=O)[C@@H](N)CCCNC(=N)N)NC(=O)[C@@H](N)CCCNC(=N)N)c2)cs1
REMARK SMILES IDX 16 1 14 2 13 3 15 4 12 6 8 7 9 8 42 9 10 10 11 11 7 12 5 13
REMARK SMILES IDX 6 14 44 15 43 16 4 17 2 18 3 19 1 20 17 22 18 23 19 24 20 25
REMARK SMILES IDX 21 27 22 28 23 31 24 32 25 33 26 34 27 35 28 36 29 37 30 42
REMARK SMILES IDX 31 43 32 44 33 46 34 47 35 50 36 51 37 52 38 53 39 54 40 55
REMARK SMILES IDX 41 56
REMARK H PARENT 13 5 4 21 18 26 22 29 22 30 26 38 28 39 29 40 29 41 30 45
REMARK H PARENT 34 48 34 49 38 57 40 58 41 59 41 60
ROOT
ATOM      1  C   UNL     1      25.778  24.903  -8.136  1.00  0.00     0.191 C 
ENDROOT
BRANCH   1   2
ATOM      2  C   UNL     1      27.181  25.118  -8.746  1.00  0.00     0.248 C 
ATOM      3  N   UNL     1      27.186  26.079  -9.745  1.00  0.00    -0.324 N 
ATOM      4  O   UNL     1      28.158  24.505  -8.321  1.00  0.00    -0.272 OA
ATOM      5  H   UNL     1      26.283  26.524  -9.933  1.00  0.00     0.170 HD
BRANCH   3   6
ATOM      6  C   UNL     1      28.298  26.621 -10.416  1.00  0.00     0.041 A 
ATOM      7  C   UNL     1      30.389  26.466 -11.671  1.00  0.00     0.003 A 
ATOM      8  C   UNL     1      30.498  27.866 -11.644  1.00  0.00     0.010 A 
ATOM      9  C   UNL     1      29.279  25.857 -11.054  1.00  0.00     0.036 A 
ATOM     10  C   UNL     1      29.514  28.635 -11.026  1.00  0.00     0.003 A 
ATOM     11  C   UNL     1      28.429  28.016 -10.405  1.00  0.00     0.026 A 
BRANCH   7  12
ATOM     12  C   UNL     1      31.410  25.630 -12.290  1.00  0.00     0.084 A 
ATOM     13  C   UNL     1      32.459  23.713 -12.675  1.00  0.00     0.189 A 
ATOM     14  N   UNL     1      31.405  24.247 -12.102  1.00  0.00    -0.220 NA
ATOM     15  S   UNL     1      33.477  24.791 -13.511  1.00  0.00    -0.105 S 
ATOM     16  C   UNL     1      32.449  26.096 -13.074  1.00  0.00     0.097 A 
BRANCH  13  17
ATOM     17  N   UNL     1      32.685  22.358 -12.661  1.00  0.00    -0.302 N 
ATOM     18  C   UNL     1      32.789  21.609 -11.505  1.00  0.00     0.223 C 
ATOM     19  O   UNL     1      32.707  22.017 -10.349  1.00  0.00    -0.275 OA
ATOM     20  C   UNL     1      32.993  20.142 -11.788  1.00  0.00     0.114 C 
ATOM     21  H   UNL     1      32.407  21.883 -13.525  1.00  0.00     0.172 HD
ENDBRANCH  13  17
ENDBRANCH   7  12
ENDBRANCH   3   6
ENDBRANCH   1   2
BRANCH   1  22
ATOM     22  C   UNL     1      24.886  24.131  -9.123  1.00  0.00     0.151 C 
BRANCH  22  23
ATOM     23  N   UNL     1      25.480  22.858  -9.538  1.00  0.00    -0.352 N 
ATOM     24  C   UNL     1      25.234  21.716  -8.814  1.00  0.00     0.237 C 
ATOM     25  O   UNL     1      24.574  21.726  -7.772  1.00  0.00    -0.273 OA
ATOM     26  H   UNL     1      25.595  22.753 -10.544  1.00  0.00     0.163 HD
BRANCH  24  27
ATOM     27  C   UNL     1      25.985  20.433  -9.277  1.00  0.00     0.141 C 
BRANCH  27  28
ATOM     28  N   UNL     1      25.803  19.376  -8.263  1.00  0.00    -0.320 NA
ATOM     29  H   UNL     1      24.875  18.972  -8.356  1.00  0.00     0.119 HD
ATOM     30  H   UNL     1      26.457  18.619  -8.495  1.00  0.00     0.119 HD
ENDBRANCH  27  28
BRANCH  27  31
ATOM     31  C   UNL     1      25.646  19.887 -10.667  1.00  0.00     0.030 C 
BRANCH  31  32
ATOM     32  C   UNL     1      26.480  18.675 -11.112  1.00  0.00     0.023 C 
BRANCH  32  33
ATOM     33  C   UNL     1      25.672  17.695 -11.967  1.00  0.00     0.116 C 
BRANCH  33  34
ATOM     34  N   UNL     1      24.422  17.308 -11.330  1.00  0.00    -0.357 N 
ATOM     35  C   UNL     1      23.345  16.829 -11.990  1.00  0.00     0.185 C 
ATOM     36  N   UNL     1      22.961  17.105 -13.186  1.00  0.00    -0.270 NA
ATOM     37  N   UNL     1      22.612  16.008 -11.209  1.00  0.00    -0.370 N 
ATOM     38  H   UNL     1      24.580  16.813 -10.459  1.00  0.00     0.163 HD
ATOM     39  H   UNL     1      23.640  17.750 -13.588  1.00  0.00     0.191 HD
ATOM     40  H   UNL     1      22.298  16.449 -10.352  1.00  0.00     0.159 HD
ATOM     41  H   UNL     1      21.811  15.635 -11.726  1.00  0.00     0.159 HD
ENDBRANCH  33  34
ENDBRANCH  32  33
ENDBRANCH  31  32
ENDBRANCH  27  31
ENDBRANCH  24  27
ENDBRANCH  22  23
ENDBRANCH   1  22
BRANCH   1  42
ATOM     42  N   UNL     1      25.920  24.156  -6.881  1.00  0.00    -0.341 N 
ATOM     43  C   UNL     1      25.255  24.496  -5.724  1.00  0.00     0.237 C 
ATOM     44  O   UNL     1      24.352  25.329  -5.712  1.00  0.00    -0.273 OA
ATOM     45  H   UNL     1      26.792  23.651  -6.727  1.00  0.00     0.164 HD
BRANCH  43  46
ATOM     46  C   UNL     1      25.762  23.723  -4.480  1.00  0.00     0.141 C 
BRANCH  46  47
ATOM     47  N   UNL     1      25.485  24.557  -3.277  1.00  0.00    -0.320 NA
ATOM     48  H   UNL     1      24.850  24.039  -2.665  1.00  0.00     0.119 HD
ATOM     49  H   UNL     1      26.351  24.647  -2.744  1.00  0.00     0.119 HD
ENDBRANCH  46  47
BRANCH  46  50
ATOM     50  C   UNL     1      25.080  22.355  -4.311  1.00  0.00     0.030 C 
BRANCH  50  51
ATOM     51  C   UNL     1      23.674  22.391  -3.694  1.00  0.00     0.023 C 
BRANCH  51  52
ATOM     52  C   UNL     1      22.530  22.590  -4.695  1.00  0.00     0.116 C 
BRANCH  52  53
ATOM     53  N   UNL     1      22.533  21.575  -5.732  1.00  0.00    -0.357 N 
ATOM     54  C   UNL     1      21.465  21.245  -6.492  1.00  0.00     0.185 C 
ATOM     55  N   UNL     1      20.382  21.900  -6.678  1.00  0.00    -0.270 NA
ATOM     56  N   UNL     1      21.636  20.056  -7.107  1.00  0.00    -0.370 N 
ATOM     57  H   UNL     1      23.108  20.769  -5.508  1.00  0.00     0.163 HD
ATOM     58  H   UNL     1      20.408  22.782  -6.162  1.00  0.00     0.191 HD
ATOM     59  H   UNL     1      22.509  20.007  -7.616  1.00  0.00     0.159 HD
ATOM     60  H   UNL     1      20.851  19.898  -7.741  1.00  0.00     0.159 HD
ENDBRANCH  52  53
ENDBRANCH  51  52
ENDBRANCH  50  51
ENDBRANCH  46  50
ENDBRANCH  43  46
ENDBRANCH   1  42
TORSDOF 19
ENDMDL
MODEL 3
REMARK VINA RESULT:      -6.5      2.852      3.498
REMARK SMILES CC(=O)Nc1nc(-c2cccc(NC(=O)C(CNC(=O)[C@@H](N)CCCNC(=N)N)NC(=O)[C@@H](N)CCCNC(=N)N)c2)cs1
REMARK SMILES IDX 16 1 14 2 13 3 15 4 12 6 8 7 9 8 42 9 10 10 11 11 7 12 5 13
REMARK SMILES IDX 6 14 44 15 43 16 4 17 2 18 3 19 1 20 17 22 18 23 19 24 20 25
REMARK SMILES IDX 21 27 22 28 23 31 24 32 25 33 26 34 27 35 28 36 29 37 30 42
REMARK SMILES IDX 31 43 32 44 33 46 34 47 35 50 36 51 37 52 38 53 39 54 40 55
REMARK SMILES IDX 41 56
REMARK H PARENT 13 5 4 21 18 26 22 29 22 30 26 38 28 39 29 40 29 41 30 45
REMARK H PARENT 34 48 34 49 38 57 40 58 41 59 41 60
ROOT
ATOM      1  C   UNL     1      25.684  23.251  -6.490  1.00  0.00     0.191 C 
ENDROOT
BRANCH   1   2
ATOM      2  C   UNL     1      26.662  24.249  -7.149  1.00  0.00     0.248 C 
ATOM      3  N   UNL     1      26.009  25.254  -7.845  1.00  0.00    -0.324 N 
ATOM      4  O   UNL     1      27.878  24.137  -7.001  1.00  0.00    -0.272 OA
ATOM      5  H   UNL     1      24.987  25.215  -7.819  1.00  0.00     0.170 HD
BRANCH   3   6
ATOM      6  C   UNL     1      26.574  26.395  -8.446  1.00  0.00     0.041 A 
ATOM      7  C   UNL     1      28.078  27.537  -9.997  1.00  0.00     0.003 A 
ATOM      8  C   UNL     1      27.654  28.773  -9.481  1.00  0.00     0.010 A 
ATOM      9  C   UNL     1      27.524  26.354  -9.471  1.00  0.00     0.036 A 
ATOM     10  C   UNL     1      26.693  28.821  -8.474  1.00  0.00     0.003 A 
ATOM     11  C   UNL     1      26.167  27.640  -7.951  1.00  0.00     0.026 A 
BRANCH   7  12
ATOM     12  C   UNL     1      29.096  27.449 -11.037  1.00  0.00     0.084 A 
ATOM     13  C   UNL     1      31.153  27.659 -11.841  1.00  0.00     0.189 A 
ATOM     14  N   UNL     1      30.434  27.713 -10.742  1.00  0.00    -0.220 NA
ATOM     15  S   UNL     1      30.311  27.242 -13.260  1.00  0.00    -0.105 S 
ATOM     16  C   UNL     1      28.853  27.129 -12.359  1.00  0.00     0.097 A 
BRANCH  13  17
ATOM     17  N   UNL     1      32.512  27.857 -11.830  1.00  0.00    -0.302 N 
ATOM     18  C   UNL     1      33.163  28.766 -12.642  1.00  0.00     0.223 C 
ATOM     19  O   UNL     1      32.652  29.509 -13.477  1.00  0.00    -0.275 OA
ATOM     20  C   UNL     1      34.647  28.804 -12.387  1.00  0.00     0.114 C 
ATOM     21  H   UNL     1      32.965  27.577 -10.954  1.00  0.00     0.172 HD
ENDBRANCH  13  17
ENDBRANCH   7  12
ENDBRANCH   3   6
ENDBRANCH   1   2
BRANCH   1  22
ATOM     22  C   UNL     1      24.233  23.644  -6.814  1.00  0.00     0.151 C 
BRANCH  22  23
ATOM     23  N   UNL     1      23.350  23.540  -5.649  1.00  0.00    -0.352 N 
ATOM     24  C   UNL     1      22.229  22.748  -5.705  1.00  0.00     0.237 C 
ATOM     25  O   UNL     1      21.889  22.158  -6.735  1.00  0.00    -0.273 OA
ATOM     26  H   UNL     1      23.825  23.608  -4.752  1.00  0.00     0.163 HD
BRANCH  24  27
ATOM     27  C   UNL     1      21.303  22.777  -4.454  1.00  0.00     0.141 C 
BRANCH  27  28
ATOM     28  N   UNL     1      19.982  22.230  -4.819  1.00  0.00    -0.320 NA
ATOM     29  H   UNL     1      19.343  22.331  -4.035  1.00  0.00     0.119 HD
ATOM     30  H   UNL     1      19.602  22.829  -5.562  1.00  0.00     0.119 HD
ENDBRANCH  27  28
BRANCH  27  31
ATOM     31  C   UNL     1      21.820  22.091  -3.186  1.00  0.00     0.030 C 
BRANCH  31  32
ATOM     32  C   UNL     1      22.631  20.807  -3.424  1.00  0.00     0.023 C 
BRANCH  32  33
ATOM     33  C   UNL     1      21.735  19.600  -3.716  1.00  0.00     0.116 C 
BRANCH  33  34
ATOM     34  N   UNL     1      21.551  19.381  -5.143  1.00  0.00    -0.357 N 
ATOM     35  C   UNL     1      22.060  18.333  -5.827  1.00  0.00     0.185 C 
ATOM     36  N   UNL     1      23.151  17.692  -5.597  1.00  0.00    -0.270 NA
ATOM     37  N   UNL     1      21.296  18.021  -6.893  1.00  0.00    -0.370 N 
ATOM     38  H   UNL     1      20.605  19.599  -5.439  1.00  0.00     0.163 HD
ATOM     39  H   UNL     1      23.578  18.096  -4.765  1.00  0.00     0.191 HD
ATOM     40  H   UNL     1      21.169  18.796  -7.534  1.00  0.00     0.159 HD
ATOM     41  H   UNL     1      21.680  17.213  -7.392  1.00  0.00     0.159 HD
ENDBRANCH  33  34
ENDBRANCH  32  33
ENDBRANCH  31  32
ENDBRANCH  27  31
ENDBRANCH  24  27
ENDBRANCH  22  23
ENDBRANCH   1  22
BRANCH   1  42
ATOM     42  N   UNL     1      25.975  21.904  -6.995  1.00  0.00    -0.341 N 
ATOM     43  C   UNL     1      25.754  21.527  -8.301  1.00  0.00     0.237 C 
ATOM     44  O   UNL     1      25.478  22.342  -9.177  1.00  0.00    -0.273 OA
ATOM     45  H   UNL     1      25.951  21.132  -6.329  1.00  0.00     0.164 HD
BRANCH  43  46
ATOM     46  C   UNL     1      25.895  20.000  -8.526  1.00  0.00     0.141 C 
BRANCH  46  47
ATOM     47  N   UNL     1      25.314  19.306  -7.341  1.00  0.00    -0.320 NA
ATOM     48  H   UNL     1      24.747  18.522  -7.674  1.00  0.00     0.119 HD
ATOM     49  H   UNL     1      26.077  18.877  -6.816  1.00  0.00     0.119 HD
ENDBRANCH  46  47
BRANCH  46  50
ATOM     50  C   UNL     1      25.174  19.516  -9.795  1.00  0.00     0.030 C 
BRANCH  50  51
ATOM     51  C   UNL     1      26.084  18.934 -10.888  1.00  0.00     0.023 C 
BRANCH  51  52
ATOM     52  C   UNL     1      25.526  17.702 -11.610  1.00  0.00     0.116 C 
BRANCH  52  53
ATOM     53  N   UNL     1      24.304  18.003 -12.332  1.00  0.00    -0.357 N 
ATOM     54  C   UNL     1      23.193  17.233 -12.324  1.00  0.00     0.185 C 
ATOM     55  N   UNL     1      22.870  16.302 -11.508  1.00  0.00    -0.270 NA
ATOM     56  N   UNL     1      22.359  17.545 -13.338  1.00  0.00    -0.370 N 
ATOM     57  H   UNL     1      24.463  18.436 -13.236  1.00  0.00     0.163 HD
ATOM     58  H   UNL     1      23.590  16.194 -10.790  1.00  0.00     0.191 HD
ATOM     59  H   UNL     1      22.150  18.534 -13.375  1.00  0.00     0.159 HD
ATOM     60  H   UNL     1      21.497  17.008 -13.233  1.00  0.00     0.159 HD
ENDBRANCH  52  53
ENDBRANCH  51  52
ENDBRANCH  50  51
ENDBRANCH  46  50
ENDBRANCH  43  46
ENDBRANCH   1  42
TORSDOF 19
ENDMDL
