MODEL 1
REMARK VINA RESULT:      -9.2      0.000      0.000
REMARK SMILES C[n+]1ccc(/C=N/NC(=O)c2cccc(C(=O)N/N=C/c3cc[n+](C)c4ccccc34)n2)c2ccccc21
REMARK SMILES IDX 11 1 12 2 13 3 14 4 15 5 32 6 9 7 8 8 10 9 7 11 6 12 5 13
REMARK SMILES IDX 2 14 3 15 38 16 4 17 37 18 33 19 36 20 34 21 35 22 1 23
REMARK SMILES IDX 16 24 17 25 18 26 19 28 20 29 21 30 22 31 31 32 23 33 30 34
REMARK SMILES IDX 26 35 24 36 29 37 27 38 28 39 25 40
REMARK H PARENT 8 10 18 27
ROOT
ATOM      1  C   UNL     1      24.570  22.772  -5.989  1.00  0.00     0.130 A 
ATOM      2  C   UNL     1      23.815  23.098  -4.866  1.00  0.00     0.034 A 
ATOM      3  C   UNL     1      23.872  24.399  -4.380  1.00  0.00     0.005 A 
ATOM      4  C   UNL     1      24.681  25.325  -5.027  1.00  0.00     0.034 A 
ATOM      5  C   UNL     1      25.412  24.914  -6.139  1.00  0.00     0.130 A 
ATOM      6  N   UNL     1      25.383  23.648  -6.653  1.00  0.00    -0.237 NA
ENDROOT
BRANCH   1   7
ATOM      7  C   UNL     1      24.480  21.378  -6.537  1.00  0.00     0.289 C 
ATOM      8  N   UNL     1      25.541  21.024  -7.373  1.00  0.00    -0.242 N 
ATOM      9  O   UNL     1      23.519  20.662  -6.267  1.00  0.00    -0.266 OA
ATOM     10  H   UNL     1      26.094  21.808  -7.712  1.00  0.00     0.194 HD
BRANCH   8  11
ATOM     11  N   UNL     1      25.496  19.937  -8.218  1.00  0.00    -0.180 NA
ATOM     12  C   UNL     1      25.446  20.196  -9.486  1.00  0.00     0.142 C 
BRANCH  12  13
ATOM     13  C   UNL     1      25.591  19.160 -10.537  1.00  0.00     0.014 A 
ATOM     14  N   UNL     1      26.200  17.271 -12.466  1.00  0.00    -0.201 N 
ATOM     15  C   UNL     1      27.071  18.265 -12.188  1.00  0.00     0.309 A 
ATOM     16  C   UNL     1      24.993  17.178 -11.821  1.00  0.00     0.212 A 
ATOM     17  C   UNL     1      26.793  19.222 -11.234  1.00  0.00     0.081 A 
ATOM     18  C   UNL     1      24.073  16.149 -12.123  1.00  0.00     0.080 A 
ATOM     19  C   UNL     1      24.654  18.142 -10.827  1.00  0.00     0.055 A 
ATOM     20  C   UNL     1      22.839  16.061 -11.479  1.00  0.00     0.007 A 
ATOM     21  C   UNL     1      23.386  18.028 -10.205  1.00  0.00     0.016 A 
ATOM     22  C   UNL     1      22.495  17.003 -10.524  1.00  0.00     0.001 A 
ATOM     23  C   UNL     1      26.598  16.281 -13.495  1.00  0.00     0.440 C 
ENDBRANCH  12  13
ENDBRANCH   8  11
ENDBRANCH   1   7
BRANCH   5  24
ATOM     24  C   UNL     1      26.303  25.910  -6.814  1.00  0.00     0.289 C 
ATOM     25  O   UNL     1      26.683  26.914  -6.217  1.00  0.00    -0.266 OA
ATOM     26  N   UNL     1      26.653  25.586  -8.117  1.00  0.00    -0.242 N 
ATOM     27  H   UNL     1      26.324  24.713  -8.517  1.00  0.00     0.194 HD
BRANCH  26  28
ATOM     28  N   UNL     1      27.504  26.408  -8.785  1.00  0.00    -0.180 NA
ATOM     29  C   UNL     1      27.932  26.020  -9.941  1.00  0.00     0.142 C 
BRANCH  29  30
ATOM     30  C   UNL     1      28.878  26.887 -10.697  1.00  0.00     0.014 A 
ATOM     31  C   UNL     1      28.697  28.265 -10.578  1.00  0.00     0.081 A 
ATOM     32  C   UNL     1      29.922  26.383 -11.501  1.00  0.00     0.055 A 
ATOM     33  C   UNL     1      29.543  29.124 -11.246  1.00  0.00     0.309 A 
ATOM     34  C   UNL     1      30.184  25.002 -11.682  1.00  0.00     0.016 A 
ATOM     35  C   UNL     1      30.770  27.316 -12.172  1.00  0.00     0.212 A 
ATOM     36  N   UNL     1      30.548  28.662 -12.019  1.00  0.00    -0.201 N 
ATOM     37  C   UNL     1      31.229  24.551 -12.487  1.00  0.00     0.001 A 
ATOM     38  C   UNL     1      31.821  26.829 -12.981  1.00  0.00     0.080 A 
ATOM     39  C   UNL     1      32.047  25.462 -13.136  1.00  0.00     0.007 A 
ATOM     40  C   UNL     1      31.405  29.664 -12.696  1.00  0.00     0.440 C 
ENDBRANCH  29  30
ENDBRANCH  26  28
ENDBRANCH   5  24
TORSDOF 6
ENDMDL
MODEL 2
REMARK VINA RESULT:      -8.7      0.450      9.461
REMARK SMILES C[n+]1ccc(/C=N/NC(=O)c2cccc(C(=O)N/N=C/c3cc[n+](C)c4ccccc34)n2)c2ccccc21
REMARK SMILES IDX 11 1 12 2 13 3 14 4 15 5 32 6 9 7 8 8 10 9 7 11 6 12 5 13
REMARK SMILES IDX 2 14 3 15 38 16 4 17 37 18 33 19 36 20 34 21 35 22 1 23
REMARK SMILES IDX 16 24 17 25 18 26 19 28 20 29 21 30 22 31 31 32 23 33 30 34
REMARK SMILES IDX 26 35 24 36 29 37 27 38 28 39 25 40
REMARK H PARENT 8 10 18 27
ROOT
ATOM      1  C   UNL     1      25.252  24.949  -6.170  1.00  0.00     0.130 A 
ATOM      2  C   UNL     1      24.458  25.162  -5.045  1.00  0.00     0.034 A 
ATOM      3  C   UNL     1      23.638  24.131  -4.604  1.00  0.00     0.005 A 
ATOM      4  C   UNL     1      23.634  22.928  -5.300  1.00  0.00     0.034 A 
ATOM      5  C   UNL     1      24.451  22.800  -6.420  1.00  0.00     0.130 A 
ATOM      6  N   UNL     1      25.276  23.785  -6.887  1.00  0.00    -0.237 NA
ENDROOT
BRANCH   1   7
ATOM      7  C   UNL     1      26.166  26.048  -6.625  1.00  0.00     0.289 C 
ATOM      8  N   UNL     1      26.546  25.956  -7.965  1.00  0.00    -0.242 N 
ATOM      9  O   UNL     1      26.542  26.913  -5.837  1.00  0.00    -0.266 OA
ATOM     10  H   UNL     1      26.380  25.047  -8.392  1.00  0.00     0.194 HD
BRANCH   8  11
ATOM     11  N   UNL     1      27.608  26.659  -8.491  1.00  0.00    -0.180 NA
ATOM     12  C   UNL     1      27.878  26.441  -9.739  1.00  0.00     0.142 C 
BRANCH  12  13
ATOM     13  C   UNL     1      28.851  27.248 -10.516  1.00  0.00     0.014 A 
ATOM     14  N   UNL     1      30.625  28.994 -11.726  1.00  0.00    -0.201 N 
ATOM     15  C   UNL     1      29.645  29.465 -10.924  1.00  0.00     0.309 A 
ATOM     16  C   UNL     1      30.758  27.652 -11.977  1.00  0.00     0.212 A 
ATOM     17  C   UNL     1      28.746  28.619 -10.310  1.00  0.00     0.081 A 
ATOM     18  C   UNL     1      31.770  27.159 -12.830  1.00  0.00     0.080 A 
ATOM     19  C   UNL     1      29.854  26.732 -11.369  1.00  0.00     0.055 A 
ATOM     20  C   UNL     1      31.899  25.796 -13.099  1.00  0.00     0.007 A 
ATOM     21  C   UNL     1      30.007  25.358 -11.677  1.00  0.00     0.016 A 
ATOM     22  C   UNL     1      31.015  24.898 -12.525  1.00  0.00     0.001 A 
ATOM     23  C   UNL     1      31.552  29.983 -12.326  1.00  0.00     0.440 C 
ENDBRANCH  12  13
ENDBRANCH   8  11
ENDBRANCH   1   7
BRANCH   5  24
ATOM     24  C   UNL     1      24.422  21.511  -7.181  1.00  0.00     0.289 C 
ATOM     25  O   UNL     1      23.449  20.765  -7.108  1.00  0.00    -0.266 OA
ATOM     26  N   UNL     1      25.548  21.267  -7.954  1.00  0.00    -0.242 N 
ATOM     27  H   UNL     1      26.288  21.961  -7.986  1.00  0.00     0.194 HD
BRANCH  26  28
ATOM     28  N   UNL     1      25.580  20.146  -8.720  1.00  0.00    -0.180 NA
ATOM     29  C   UNL     1      25.783  20.289  -9.989  1.00  0.00     0.142 C 
BRANCH  29  30
ATOM     30  C   UNL     1      25.811  19.083 -10.863  1.00  0.00     0.014 A 
ATOM     31  C   UNL     1      26.955  18.896 -11.637  1.00  0.00     0.081 A 
ATOM     32  C   UNL     1      24.756  18.147 -10.930  1.00  0.00     0.055 A 
ATOM     33  C   UNL     1      27.048  17.796 -12.462  1.00  0.00     0.309 A 
ATOM     34  C   UNL     1      23.558  18.253 -10.183  1.00  0.00     0.016 A 
ATOM     35  C   UNL     1      24.903  17.025 -11.802  1.00  0.00     0.212 A 
ATOM     36  N   UNL     1      26.051  16.889 -12.541  1.00  0.00    -0.201 N 
ATOM     37  C   UNL     1      22.543  17.301 -10.283  1.00  0.00     0.001 A 
ATOM     38  C   UNL     1      23.857  16.079 -11.882  1.00  0.00     0.080 A 
ATOM     39  C   UNL     1      22.691  16.216 -11.131  1.00  0.00     0.007 A 
ATOM     40  C   UNL     1      26.245  15.739 -13.455  1.00  0.00     0.440 C 
ENDBRANCH  29  30
ENDBRANCH  26  28
ENDBRANCH   5  24
TORSDOF 6
ENDMDL
MODEL 3
REMARK VINA RESULT:      -8.0     16.978     19.912
REMARK SMILES C[n+]1ccc(/C=N/NC(=O)c2cccc(C(=O)N/N=C/c3cc[n+](C)c4ccccc34)n2)c2ccccc21
REMARK SMILES IDX 11 1 12 2 13 3 14 4 15 5 32 6 9 7 8 8 10 9 7 11 6 12 5 13
REMARK SMILES IDX 2 14 3 15 38 16 4 17 37 18 33 19 36 20 34 21 35 22 1 23
REMARK SMILES IDX 16 24 17 25 18 26 19 28 20 29 21 30 22 31 31 32 23 33 30 34
REMARK SMILES IDX 26 35 24 36 29 37 27 38 28 39 25 40
REMARK H PARENT 8 10 18 27
ROOT
ATOM      1  C   UNL     1      27.268  13.080 -24.589  1.00  0.00     0.130 A 
ATOM      2  C   UNL     1      27.017  14.303 -25.205  1.00  0.00     0.034 A 
ATOM      3  C   UNL     1      25.701  14.732 -25.320  1.00  0.00     0.005 A 
ATOM      4  C   UNL     1      24.683  13.927 -24.822  1.00  0.00     0.034 A 
ATOM      5  C   UNL     1      25.020  12.713 -24.228  1.00  0.00     0.130 A 
ATOM      6  N   UNL     1      26.300  12.254 -24.090  1.00  0.00    -0.237 NA
ENDROOT
BRANCH   1   7
ATOM      7  C   UNL     1      28.692  12.632 -24.431  1.00  0.00     0.289 C 
ATOM      8  N   UNL     1      28.845  11.475 -23.665  1.00  0.00    -0.242 N 
ATOM      9  O   UNL     1      29.609  13.282 -24.927  1.00  0.00    -0.266 OA
ATOM     10  H   UNL     1      28.032  11.227 -23.105  1.00  0.00     0.194 HD
BRANCH   8  11
ATOM     11  N   UNL     1      30.055  11.082 -23.138  1.00  0.00    -0.180 NA
ATOM     12  C   UNL     1      30.257  11.364 -21.890  1.00  0.00     0.142 C 
BRANCH  12  13
ATOM     13  C   UNL     1      31.410  10.847 -21.112  1.00  0.00     0.014 A 
ATOM     14  N   UNL     1      33.497   9.580 -19.810  1.00  0.00    -0.201 N 
ATOM     15  C   UNL     1      32.436   8.868 -20.249  1.00  0.00     0.309 A 
ATOM     16  C   UNL     1      33.564  10.940 -19.978  1.00  0.00     0.212 A 
ATOM     17  C   UNL     1      31.381   9.474 -20.898  1.00  0.00     0.081 A 
ATOM     18  C   UNL     1      34.664  11.689 -19.504  1.00  0.00     0.080 A 
ATOM     19  C   UNL     1      32.499  11.617 -20.642  1.00  0.00     0.055 A 
ATOM     20  C   UNL     1      34.727  13.073 -19.661  1.00  0.00     0.007 A 
ATOM     21  C   UNL     1      32.592  13.024 -20.770  1.00  0.00     0.016 A 
ATOM     22  C   UNL     1      33.690  13.740 -20.290  1.00  0.00     0.001 A 
ATOM     23  C   UNL     1      34.589   8.836 -19.139  1.00  0.00     0.440 C 
ENDBRANCH  12  13
ENDBRANCH   8  11
ENDBRANCH   1   7
BRANCH   5  24
ATOM     24  C   UNL     1      23.917  11.839 -23.719  1.00  0.00     0.289 C 
ATOM     25  O   UNL     1      24.150  10.692 -23.346  1.00  0.00    -0.266 OA
ATOM     26  N   UNL     1      22.665  12.438 -23.694  1.00  0.00    -0.242 N 
ATOM     27  H   UNL     1      22.573  13.407 -23.983  1.00  0.00     0.194 HD
BRANCH  26  28
ATOM     28  N   UNL     1      21.617  11.734 -23.194  1.00  0.00    -0.180 NA
ATOM     29  C   UNL     1      20.607  12.399 -22.738  1.00  0.00     0.142 C 
BRANCH  29  30
ATOM     30  C   UNL     1      19.445  11.662 -22.168  1.00  0.00     0.014 A 
ATOM     31  C   UNL     1      19.734  10.581 -21.337  1.00  0.00     0.081 A 
ATOM     32  C   UNL     1      18.102  12.010 -22.426  1.00  0.00     0.055 A 
ATOM     33  C   UNL     1      18.704   9.861 -20.771  1.00  0.00     0.309 A 
ATOM     34  C   UNL     1      17.711  13.090 -23.255  1.00  0.00     0.016 A 
ATOM     35  C   UNL     1      17.072  11.231 -21.815  1.00  0.00     0.212 A 
ATOM     36  N   UNL     1      17.413  10.178 -21.004  1.00  0.00    -0.201 N 
ATOM     37  C   UNL     1      16.369  13.397 -23.480  1.00  0.00     0.001 A 
ATOM     38  C   UNL     1      15.722  11.566 -22.062  1.00  0.00     0.080 A 
ATOM     39  C   UNL     1      15.376  12.636 -22.885  1.00  0.00     0.007 A 
ATOM     40  C   UNL     1      16.377   9.345 -20.350  1.00  0.00     0.440 C 
ENDBRANCH  29  30
ENDBRANCH  26  28
ENDBRANCH   5  24
TORSDOF 6
ENDMDL
