MODEL 1
REMARK VINA RESULT:      -6.5      0.000      0.000
REMARK SMILES COc1cc2c(cc1OC)-c1cc3cc(OC)c(OC)cc3c[n+]1CC2
REMARK SMILES IDX 3 1 4 2 5 3 6 4 7 5 8 6 11 7 12 8 13 9 14 10 15 11 18 12
REMARK SMILES IDX 21 13 22 14 23 15 24 16 25 17 26 18 2 19 1 20 9 21 10 22
REMARK SMILES IDX 16 23 17 24 19 25 20 26
REMARK H PARENT
ROOT
ATOM      1  C   UNL     1      26.722  13.677 -24.923  1.00  0.00     0.161 A 
ATOM      2  C   UNL     1      26.592  12.466 -24.242  1.00  0.00     0.055 A 
ATOM      3  C   UNL     1      25.321  11.969 -23.914  1.00  0.00    -0.024 A 
ATOM      4  C   UNL     1      24.152  12.690 -24.223  1.00  0.00     0.054 A 
ATOM      5  C   UNL     1      24.302  13.901 -24.927  1.00  0.00     0.065 A 
ATOM      6  C   UNL     1      25.567  14.396 -25.278  1.00  0.00     0.161 A 
ATOM      7  C   UNL     1      22.834  12.171 -23.805  1.00  0.00     0.213 A 
ATOM      8  C   UNL     1      21.688  12.964 -23.634  1.00  0.00     0.089 A 
ATOM      9  C   UNL     1      20.477  12.400 -23.220  1.00  0.00    -0.002 A 
ATOM     10  C   UNL     1      19.320  13.181 -23.048  1.00  0.00     0.059 A 
ATOM     11  C   UNL     1      18.117  12.597 -22.637  1.00  0.00     0.161 A 
ATOM     12  C   UNL     1      18.063  11.212 -22.393  1.00  0.00     0.161 A 
ATOM     13  C   UNL     1      19.213  10.435 -22.561  1.00  0.00     0.065 A 
ATOM     14  C   UNL     1      20.424  11.022 -22.972  1.00  0.00     0.050 A 
ATOM     15  C   UNL     1      21.588  10.270 -23.141  1.00  0.00     0.317 A 
ATOM     16  N   UNL     1      22.755  10.837 -23.532  1.00  0.00    -0.197 N 
ATOM     17  C   UNL     1      23.940   9.954 -23.708  1.00  0.00     0.362 C 
ATOM     18  C   UNL     1      25.187  10.654 -23.198  1.00  0.00     0.109 C 
ENDROOT
BRANCH   1  19
ATOM     19  O   UNL     1      27.917  14.235 -25.296  1.00  0.00    -0.493 OA
ATOM     20  C   UNL     1      29.080  13.421 -25.260  1.00  0.00     0.278 C 
ENDBRANCH   1  19
BRANCH   6  21
ATOM     21  O   UNL     1      25.779  15.566 -25.960  1.00  0.00    -0.493 OA
ATOM     22  C   UNL     1      25.677  15.559 -27.377  1.00  0.00     0.278 C 
ENDBRANCH   6  21
BRANCH  11  23
ATOM     23  O   UNL     1      16.946  13.286 -22.447  1.00  0.00    -0.493 OA
ATOM     24  C   UNL     1      16.176  13.637 -23.587  1.00  0.00     0.278 C 
ENDBRANCH  11  23
BRANCH  12  25
ATOM     25  O   UNL     1      16.846  10.722 -21.995  1.00  0.00    -0.493 OA
ATOM     26  C   UNL     1      16.753  10.073 -20.735  1.00  0.00     0.278 C 
ENDBRANCH  12  25
TORSDOF 4
ENDMDL
MODEL 2
REMARK VINA RESULT:      -6.3      1.872      8.594
REMARK SMILES COc1cc2c(cc1OC)-c1cc3cc(OC)c(OC)cc3c[n+]1CC2
REMARK SMILES IDX 3 1 4 2 5 3 6 4 7 5 8 6 11 7 12 8 13 9 14 10 15 11 18 12
REMARK SMILES IDX 21 13 22 14 23 15 24 16 25 17 26 18 2 19 1 20 9 21 10 22
REMARK SMILES IDX 16 23 17 24 19 25 20 26
REMARK H PARENT
ROOT
ATOM      1  C   UNL     1      18.020  10.940 -22.147  1.00  0.00     0.161 A 
ATOM      2  C   UNL     1      18.605  12.206 -22.145  1.00  0.00     0.055 A 
ATOM      3  C   UNL     1      19.924  12.380 -22.593  1.00  0.00    -0.024 A 
ATOM      4  C   UNL     1      20.702  11.286 -23.016  1.00  0.00     0.054 A 
ATOM      5  C   UNL     1      20.088  10.018 -23.029  1.00  0.00     0.065 A 
ATOM      6  C   UNL     1      18.764   9.837 -22.604  1.00  0.00     0.161 A 
ATOM      7  C   UNL     1      22.108  11.492 -23.419  1.00  0.00     0.213 A 
ATOM      8  C   UNL     1      23.090  10.489 -23.412  1.00  0.00     0.089 A 
ATOM      9  C   UNL     1      24.406  10.768 -23.793  1.00  0.00    -0.002 A 
ATOM     10  C   UNL     1      25.401   9.774 -23.794  1.00  0.00     0.059 A 
ATOM     11  C   UNL     1      26.711  10.071 -24.184  1.00  0.00     0.161 A 
ATOM     12  C   UNL     1      27.039  11.381 -24.580  1.00  0.00     0.161 A 
ATOM     13  C   UNL     1      26.052  12.372 -24.577  1.00  0.00     0.065 A 
ATOM     14  C   UNL     1      24.735  12.074 -24.183  1.00  0.00     0.050 A 
ATOM     15  C   UNL     1      23.733  13.045 -24.165  1.00  0.00     0.317 A 
ATOM     16  N   UNL     1      22.465  12.759 -23.781  1.00  0.00    -0.197 N 
ATOM     17  C   UNL     1      21.457  13.852 -23.815  1.00  0.00     0.362 C 
ATOM     18  C   UNL     1      20.542  13.750 -22.607  1.00  0.00     0.109 C 
ENDROOT
BRANCH   1  19
ATOM     19  O   UNL     1      16.738  10.675 -21.741  1.00  0.00    -0.493 OA
ATOM     20  C   UNL     1      16.381  10.977 -20.400  1.00  0.00     0.278 C 
ENDBRANCH   1  19
BRANCH   6  21
ATOM     21  O   UNL     1      18.112   8.631 -22.591  1.00  0.00    -0.493 OA
ATOM     22  C   UNL     1      18.687   7.550 -21.873  1.00  0.00     0.278 C 
ENDBRANCH   6  21
BRANCH  11  23
ATOM     23  O   UNL     1      27.737   9.161 -24.214  1.00  0.00    -0.493 OA
ATOM     24  C   UNL     1      27.414   7.779 -24.248  1.00  0.00     0.278 C 
ENDBRANCH  11  23
BRANCH  12  25
ATOM     25  O   UNL     1      28.344  11.587 -24.946  1.00  0.00    -0.493 OA
ATOM     26  C   UNL     1      28.978  12.798 -24.559  1.00  0.00     0.278 C 
ENDBRANCH  12  25
TORSDOF 4
ENDMDL
MODEL 3
REMARK VINA RESULT:      -6.3      1.294      1.658
REMARK SMILES COc1cc2c(cc1OC)-c1cc3cc(OC)c(OC)cc3c[n+]1CC2
REMARK SMILES IDX 3 1 4 2 5 3 6 4 7 5 8 6 11 7 12 8 13 9 14 10 15 11 18 12
REMARK SMILES IDX 21 13 22 14 23 15 24 16 25 17 26 18 2 19 1 20 9 21 10 22
REMARK SMILES IDX 16 23 17 24 19 25 20 26
REMARK H PARENT
ROOT
ATOM      1  C   UNL     1      27.383  14.877 -26.162  1.00  0.00     0.161 A 
ATOM      2  C   UNL     1      27.545  13.746 -25.362  1.00  0.00     0.055 A 
ATOM      3  C   UNL     1      26.426  13.081 -24.837  1.00  0.00    -0.024 A 
ATOM      4  C   UNL     1      25.120  13.555 -25.067  1.00  0.00     0.054 A 
ATOM      5  C   UNL     1      24.975  14.687 -25.893  1.00  0.00     0.065 A 
ATOM      6  C   UNL     1      26.086  15.346 -26.439  1.00  0.00     0.161 A 
ATOM      7  C   UNL     1      23.967  12.871 -24.445  1.00  0.00     0.213 A 
ATOM      8  C   UNL     1      22.721  13.473 -24.212  1.00  0.00     0.089 A 
ATOM      9  C   UNL     1      21.681  12.763 -23.603  1.00  0.00    -0.002 A 
ATOM     10  C   UNL     1      20.426  13.351 -23.364  1.00  0.00     0.059 A 
ATOM     11  C   UNL     1      19.397  12.622 -22.758  1.00  0.00     0.161 A 
ATOM     12  C   UNL     1      19.620  11.285 -22.383  1.00  0.00     0.161 A 
ATOM     13  C   UNL     1      20.869  10.699 -22.616  1.00  0.00     0.065 A 
ATOM     14  C   UNL     1      21.904  11.432 -23.224  1.00  0.00     0.050 A 
ATOM     15  C   UNL     1      23.161  10.874 -23.463  1.00  0.00     0.317 A 
ATOM     16  N   UNL     1      24.160  11.582 -24.044  1.00  0.00    -0.197 N 
ATOM     17  C   UNL     1      25.460  10.899 -24.280  1.00  0.00     0.362 C 
ATOM     18  C   UNL     1      26.606  11.851 -23.991  1.00  0.00     0.109 C 
ENDROOT
BRANCH   1  19
ATOM     19  O   UNL     1      28.412  15.584 -26.728  1.00  0.00    -0.493 OA
ATOM     20  C   UNL     1      29.592  14.881 -27.090  1.00  0.00     0.278 C 
ENDBRANCH   1  19
BRANCH   6  21
ATOM     21  O   UNL     1      26.012  16.451 -27.248  1.00  0.00    -0.493 OA
ATOM     22  C   UNL     1      25.526  16.296 -28.573  1.00  0.00     0.278 C 
ENDBRANCH   6  21
BRANCH  11  23
ATOM     23  O   UNL     1      18.147  13.120 -22.492  1.00  0.00    -0.493 OA
ATOM     24  C   UNL     1      17.192  13.144 -23.542  1.00  0.00     0.278 C 
ENDBRANCH  11  23
BRANCH  12  25
ATOM     25  O   UNL     1      18.560  10.643 -21.796  1.00  0.00    -0.493 OA
ATOM     26  C   UNL     1      18.814   9.751 -20.720  1.00  0.00     0.278 C 
ENDBRANCH  12  25
TORSDOF 4
ENDMDL
