MODEL 1
REMARK VINA RESULT:      -6.6      0.000      0.000
REMARK SMILES CN1CCN(c2ccc3nc(-c4ccc5[nH]c(-c6cccc(OCCCC(=O)NCCCN=[N+]=[N-])c6)nc5c4)[nH]c3c2)CC1
REMARK SMILES IDX 24 1 23 2 22 3 18 4 19 5 36 6 20 7 21 8 17 9 12 10 13 11
REMARK SMILES IDX 39 12 14 13 38 14 15 15 37 16 16 17 11 19 6 20 7 21 42 22
REMARK SMILES IDX 8 23 41 24 9 25 40 26 10 27 5 29 2 30 3 31 44 32 4 33 43 34
REMARK SMILES IDX 1 35 25 36 26 37 27 38 28 39 29 40 30 42 31 43 32 44 33 45
REMARK SMILES IDX 34 46 35 47
REMARK H PARENT 16 18 40 28 29 41
ROOT
ATOM      1  C   UNL     1      34.414  11.349 -23.890  1.00  0.00     0.230 C 
ENDROOT
BRANCH   1   2
ATOM      2  O   UNL     1      32.999  11.383 -23.707  1.00  0.00    -0.494 OA
BRANCH   2   3
ATOM      3  C   UNL     1      32.270  12.307 -24.402  1.00  0.00     0.120 A 
ATOM      4  C   UNL     1      30.239  13.379 -25.230  1.00  0.00     0.021 A 
ATOM      5  C   UNL     1      31.029  14.327 -25.898  1.00  0.00     0.012 A 
ATOM      6  C   UNL     1      30.880  12.371 -24.485  1.00  0.00     0.058 A 
ATOM      7  C   UNL     1      32.421  14.274 -25.810  1.00  0.00     0.005 A 
ATOM      8  C   UNL     1      33.034  13.271 -25.061  1.00  0.00     0.046 A 
BRANCH   4   9
ATOM      9  C   UNL     1      28.771  13.403 -25.271  1.00  0.00     0.138 A 
ATOM     10  C   UNL     1      24.273  13.278 -24.712  1.00  0.00     0.019 A 
ATOM     11  C   UNL     1      24.325  14.127 -25.833  1.00  0.00     0.014 A 
ATOM     12  C   UNL     1      25.471  12.762 -24.187  1.00  0.00     0.042 A 
ATOM     13  C   UNL     1      25.533  14.486 -26.450  1.00  0.00     0.029 A 
ATOM     14  C   UNL     1      26.690  13.120 -24.783  1.00  0.00     0.090 A 
ATOM     15  C   UNL     1      26.693  13.963 -25.884  1.00  0.00     0.066 A 
ATOM     16  N   UNL     1      27.969  12.774 -24.428  1.00  0.00    -0.228 NA
ATOM     17  N   UNL     1      28.022  14.115 -26.184  1.00  0.00    -0.338 N 
ATOM     18  H   UNL     1      28.390  14.698 -26.919  1.00  0.00     0.168 HD
BRANCH  10  19
ATOM     19  C   UNL     1      22.973  12.995 -24.089  1.00  0.00     0.138 A 
ATOM     20  C   UNL     1      19.353  11.391 -21.779  1.00  0.00     0.039 A 
ATOM     21  C   UNL     1      19.028  12.756 -21.914  1.00  0.00     0.028 A 
ATOM     22  C   UNL     1      20.535  10.932 -22.391  1.00  0.00     0.054 A 
ATOM     23  C   UNL     1      19.848  13.671 -22.599  1.00  0.00     0.033 A 
ATOM     24  C   UNL     1      21.354  11.863 -23.044  1.00  0.00     0.068 A 
ATOM     25  C   UNL     1      21.042  13.207 -23.155  1.00  0.00     0.089 A 
ATOM     26  N   UNL     1      22.566  11.746 -23.674  1.00  0.00    -0.338 N 
ATOM     27  N   UNL     1      22.031  13.884 -23.823  1.00  0.00    -0.229 NA
ATOM     28  H   UNL     1      23.090  10.892 -23.780  1.00  0.00     0.168 HD
BRANCH  20  29
ATOM     29  N   UNL     1      18.514  10.537 -21.070  1.00  0.00    -0.369 N 
ATOM     30  N   UNL     1      16.875   8.225 -20.079  1.00  0.00    -0.303 NA
ATOM     31  C   UNL     1      16.338   9.577 -20.340  1.00  0.00     0.105 C 
ATOM     32  C   UNL     1      18.296   8.124 -20.480  1.00  0.00     0.105 C 
ATOM     33  C   UNL     1      17.091  10.399 -21.414  1.00  0.00     0.132 C 
ATOM     34  C   UNL     1      19.109   9.426 -20.296  1.00  0.00     0.132 C 
ATOM     35  C   UNL     1      16.081   7.184 -20.724  1.00  0.00     0.105 C 
ENDBRANCH  20  29
ENDBRANCH  10  19
ENDBRANCH   4   9
ENDBRANCH   2   3
ENDBRANCH   1   2
BRANCH   1  36
ATOM     36  C   UNL     1      35.131  11.322 -22.542  1.00  0.00     0.051 C 
BRANCH  36  37
ATOM     37  C   UNL     1      34.874  12.603 -21.755  1.00  0.00     0.103 C 
BRANCH  37  38
ATOM     38  C   UNL     1      34.231  12.335 -20.409  1.00  0.00     0.220 C 
ATOM     39  O   UNL     1      34.660  12.772 -19.349  1.00  0.00    -0.275 OA
ATOM     40  N   UNL     1      33.122  11.519 -20.501  1.00  0.00    -0.356 N 
ATOM     41  H   UNL     1      32.853  11.146 -21.402  1.00  0.00     0.163 HD
BRANCH  40  42
ATOM     42  C   UNL     1      32.360  11.120 -19.334  1.00  0.00     0.116 C 
BRANCH  42  43
ATOM     43  C   UNL     1      32.152   9.608 -19.238  1.00  0.00     0.027 C 
BRANCH  43  44
ATOM     44  C   UNL     1      32.153   8.900 -20.590  1.00  0.00     0.092 C 
BRANCH  44  45
ATOM     45  N   UNL     1      31.203   9.561 -21.492  1.00  0.00    -0.094 NA
ATOM     46  N   UNL     1      30.914   8.925 -22.521  1.00  0.00     0.001 N 
ATOM     47  N   UNL     1      30.664   8.347 -23.471  1.00  0.00    -0.003 NA
ENDBRANCH  44  45
ENDBRANCH  43  44
ENDBRANCH  42  43
ENDBRANCH  40  42
ENDBRANCH  37  38
ENDBRANCH  36  37
ENDBRANCH   1  36
TORSDOF 12
ENDMDL
MODEL 2
REMARK VINA RESULT:      -6.4      6.473     14.943
REMARK SMILES CN1CCN(c2ccc3nc(-c4ccc5[nH]c(-c6cccc(OCCCC(=O)NCCCN=[N+]=[N-])c6)nc5c4)[nH]c3c2)CC1
REMARK SMILES IDX 24 1 23 2 22 3 18 4 19 5 36 6 20 7 21 8 17 9 12 10 13 11
REMARK SMILES IDX 39 12 14 13 38 14 15 15 37 16 16 17 11 19 6 20 7 21 42 22
REMARK SMILES IDX 8 23 41 24 9 25 40 26 10 27 5 29 2 30 3 31 44 32 4 33 43 34
REMARK SMILES IDX 1 35 25 36 26 37 27 38 28 39 29 40 30 42 31 43 32 44 33 45
REMARK SMILES IDX 34 46 35 47
REMARK H PARENT 16 18 40 28 29 41
ROOT
ATOM      1  C   UNL     1      11.531   6.589 -19.640  1.00  0.00     0.230 C 
ENDROOT
BRANCH   1   2
ATOM      2  O   UNL     1      12.331   7.092 -18.571  1.00  0.00    -0.494 OA
BRANCH   2   3
ATOM      3  C   UNL     1      12.669   8.415 -18.572  1.00  0.00     0.120 A 
ATOM      4  C   UNL     1      13.934  10.392 -19.248  1.00  0.00     0.021 A 
ATOM      5  C   UNL     1      13.144  11.173 -18.390  1.00  0.00     0.012 A 
ATOM      6  C   UNL     1      13.682   9.010 -19.325  1.00  0.00     0.058 A 
ATOM      7  C   UNL     1      12.123  10.585 -17.642  1.00  0.00     0.005 A 
ATOM      8  C   UNL     1      11.886   9.215 -17.739  1.00  0.00     0.046 A 
BRANCH   4   9
ATOM      9  C   UNL     1      15.005  10.964 -20.074  1.00  0.00     0.138 A 
ATOM     10  C   UNL     1      18.677  12.137 -22.462  1.00  0.00     0.019 A 
ATOM     11  C   UNL     1      17.733  12.958 -23.105  1.00  0.00     0.014 A 
ATOM     12  C   UNL     1      18.263  11.327 -21.390  1.00  0.00     0.042 A 
ATOM     13  C   UNL     1      16.384  13.000 -22.719  1.00  0.00     0.029 A 
ATOM     14  C   UNL     1      16.915  11.345 -20.999  1.00  0.00     0.090 A 
ATOM     15  C   UNL     1      16.019  12.168 -21.664  1.00  0.00     0.066 A 
ATOM     16  N   UNL     1      16.282  10.624 -20.019  1.00  0.00    -0.228 NA
ATOM     17  N   UNL     1      14.819  11.921 -21.050  1.00  0.00    -0.338 N 
ATOM     18  H   UNL     1      13.936  12.331 -21.309  1.00  0.00     0.168 HD
BRANCH  10  19
ATOM     19  C   UNL     1      20.057  12.108 -22.962  1.00  0.00     0.138 A 
ATOM     20  C   UNL     1      24.336  12.928 -24.389  1.00  0.00     0.039 A 
ATOM     21  C   UNL     1      24.417  11.578 -23.993  1.00  0.00     0.028 A 
ATOM     22  C   UNL     1      23.081  13.561 -24.316  1.00  0.00     0.054 A 
ATOM     23  C   UNL     1      23.312  10.859 -23.501  1.00  0.00     0.033 A 
ATOM     24  C   UNL     1      21.998  12.839 -23.797  1.00  0.00     0.068 A 
ATOM     25  C   UNL     1      22.087  11.520 -23.388  1.00  0.00     0.089 A 
ATOM     26  N   UNL     1      20.693  13.180 -23.550  1.00  0.00    -0.338 N 
ATOM     27  N   UNL     1      20.882  11.076 -22.905  1.00  0.00    -0.229 NA
ATOM     28  H   UNL     1      20.280  14.080 -23.732  1.00  0.00     0.168 HD
BRANCH  20  29
ATOM     29  N   UNL     1      25.469  13.595 -24.845  1.00  0.00    -0.369 N 
ATOM     30  N   UNL     1      27.639  14.861 -26.488  1.00  0.00    -0.303 NA
ATOM     31  C   UNL     1      27.873  13.850 -25.436  1.00  0.00     0.105 C 
ATOM     32  C   UNL     1      26.193  15.083 -26.709  1.00  0.00     0.105 C 
ATOM     33  C   UNL     1      26.703  12.869 -25.182  1.00  0.00     0.132 C 
ATOM     34  C   UNL     1      25.320  14.939 -25.442  1.00  0.00     0.132 C 
ATOM     35  C   UNL     1      28.306  14.516 -27.740  1.00  0.00     0.105 C 
ENDBRANCH  20  29
ENDBRANCH  10  19
ENDBRANCH   4   9
ENDBRANCH   2   3
ENDBRANCH   1   2
BRANCH   1  36
ATOM     36  C   UNL     1      12.391   6.303 -20.869  1.00  0.00     0.051 C 
BRANCH  36  37
ATOM     37  C   UNL     1      11.607   6.539 -22.157  1.00  0.00     0.103 C 
BRANCH  37  38
ATOM     38  C   UNL     1      12.446   7.206 -23.229  1.00  0.00     0.220 C 
ATOM     39  O   UNL     1      12.386   6.920 -24.418  1.00  0.00    -0.275 OA
ATOM     40  N   UNL     1      13.308   8.155 -22.718  1.00  0.00    -0.356 N 
ATOM     41  H   UNL     1      13.347   8.303 -21.719  1.00  0.00     0.163 HD
BRANCH  40  42
ATOM     42  C   UNL     1      14.215   8.906 -23.564  1.00  0.00     0.116 C 
BRANCH  42  43
ATOM     43  C   UNL     1      15.686   8.707 -23.197  1.00  0.00     0.027 C 
BRANCH  43  44
ATOM     44  C   UNL     1      15.906   7.725 -22.049  1.00  0.00     0.092 C 
BRANCH  44  45
ATOM     45  N   UNL     1      17.293   7.249 -22.068  1.00  0.00    -0.094 NA
ATOM     46  N   UNL     1      18.002   7.636 -21.122  1.00  0.00     0.001 N 
ATOM     47  N   UNL     1      18.653   8.005 -20.262  1.00  0.00    -0.003 NA
ENDBRANCH  44  45
ENDBRANCH  43  44
ENDBRANCH  42  43
ENDBRANCH  40  42
ENDBRANCH  37  38
ENDBRANCH  36  37
ENDBRANCH   1  36
TORSDOF 12
ENDMDL
MODEL 3
REMARK VINA RESULT:      -6.4      2.108      3.628
REMARK SMILES CN1CCN(c2ccc3nc(-c4ccc5[nH]c(-c6cccc(OCCCC(=O)NCCCN=[N+]=[N-])c6)nc5c4)[nH]c3c2)CC1
REMARK SMILES IDX 24 1 23 2 22 3 18 4 19 5 36 6 20 7 21 8 17 9 12 10 13 11
REMARK SMILES IDX 39 12 14 13 38 14 15 15 37 16 16 17 11 19 6 20 7 21 42 22
REMARK SMILES IDX 8 23 41 24 9 25 40 26 10 27 5 29 2 30 3 31 44 32 4 33 43 34
REMARK SMILES IDX 1 35 25 36 26 37 27 38 28 39 29 40 30 42 31 43 32 44 33 45
REMARK SMILES IDX 34 46 35 47
REMARK H PARENT 16 18 40 28 29 41
ROOT
ATOM      1  C   UNL     1      34.472   9.982 -18.604  1.00  0.00     0.230 C 
ENDROOT
BRANCH   1   2
ATOM      2  O   UNL     1      33.594  11.080 -18.849  1.00  0.00    -0.494 OA
BRANCH   2   3
ATOM      3  C   UNL     1      33.420  11.505 -20.136  1.00  0.00     0.120 A 
ATOM      4  C   UNL     1      32.154  12.070 -22.145  1.00  0.00     0.021 A 
ATOM      5  C   UNL     1      33.352  12.424 -22.784  1.00  0.00     0.012 A 
ATOM      6  C   UNL     1      32.208  11.610 -20.817  1.00  0.00     0.058 A 
ATOM      7  C   UNL     1      34.567  12.331 -22.104  1.00  0.00     0.005 A 
ATOM      8  C   UNL     1      34.597  11.879 -20.786  1.00  0.00     0.046 A 
BRANCH   4   9
ATOM      9  C   UNL     1      30.846  12.171 -22.806  1.00  0.00     0.138 A 
ATOM     10  C   UNL     1      26.536  12.446 -24.188  1.00  0.00     0.019 A 
ATOM     11  C   UNL     1      27.159  13.005 -25.320  1.00  0.00     0.014 A 
ATOM     12  C   UNL     1      27.332  11.998 -23.119  1.00  0.00     0.042 A 
ATOM     13  C   UNL     1      28.552  13.136 -25.424  1.00  0.00     0.029 A 
ATOM     14  C   UNL     1      28.727  12.134 -23.200  1.00  0.00     0.090 A 
ATOM     15  C   UNL     1      29.296  12.693 -24.333  1.00  0.00     0.066 A 
ATOM     16  N   UNL     1      29.689  11.806 -22.280  1.00  0.00    -0.228 NA
ATOM     17  N   UNL     1      30.641  12.691 -24.067  1.00  0.00    -0.338 N 
ATOM     18  H   UNL     1      31.355  13.063 -24.672  1.00  0.00     0.168 HD
BRANCH  10  19
ATOM     19  C   UNL     1      25.069  12.395 -24.132  1.00  0.00     0.138 A 
ATOM     20  C   UNL     1      20.630  11.524 -23.390  1.00  0.00     0.039 A 
ATOM     21  C   UNL     1      20.601  12.887 -23.751  1.00  0.00     0.028 A 
ATOM     22  C   UNL     1      21.871  10.860 -23.427  1.00  0.00     0.054 A 
ATOM     23  C   UNL     1      21.756  13.606 -24.109  1.00  0.00     0.033 A 
ATOM     24  C   UNL     1      23.015  11.599 -23.757  1.00  0.00     0.068 A 
ATOM     25  C   UNL     1      22.985  12.942 -24.090  1.00  0.00     0.089 A 
ATOM     26  N   UNL     1      24.342  11.265 -23.825  1.00  0.00    -0.338 N 
ATOM     27  N   UNL     1      24.249  13.410 -24.345  1.00  0.00    -0.229 NA
ATOM     28  H   UNL     1      24.726  10.352 -23.641  1.00  0.00     0.168 HD
BRANCH  20  29
ATOM     29  N   UNL     1      19.458  10.871 -23.022  1.00  0.00    -0.369 N 
ATOM     30  N   UNL     1      17.151   9.637 -21.549  1.00  0.00    -0.303 NA
ATOM     31  C   UNL     1      18.014   8.912 -22.504  1.00  0.00     0.105 C 
ATOM     32  C   UNL     1      17.640  11.016 -21.322  1.00  0.00     0.105 C 
ATOM     33  C   UNL     1      19.459   9.451 -22.640  1.00  0.00     0.132 C 
ATOM     34  C   UNL     1      18.307  11.671 -22.553  1.00  0.00     0.132 C 
ATOM     35  C   UNL     1      17.011   8.924 -20.283  1.00  0.00     0.105 C 
ENDBRANCH  20  29
ENDBRANCH  10  19
ENDBRANCH   4   9
ENDBRANCH   2   3
ENDBRANCH   1   2
BRANCH   1  36
ATOM     36  C   UNL     1      33.901   8.693 -19.192  1.00  0.00     0.051 C 
BRANCH  36  37
ATOM     37  C   UNL     1      34.707   8.237 -20.404  1.00  0.00     0.103 C 
BRANCH  37  38
ATOM     38  C   UNL     1      33.853   7.509 -21.424  1.00  0.00     0.220 C 
ATOM     39  O   UNL     1      34.156   6.435 -21.925  1.00  0.00    -0.275 OA
ATOM     40  N   UNL     1      32.705   8.202 -21.750  1.00  0.00    -0.356 N 
ATOM     41  H   UNL     1      32.542   9.113 -21.340  1.00  0.00     0.163 HD
BRANCH  40  42
ATOM     42  C   UNL     1      31.750   7.699 -22.716  1.00  0.00     0.116 C 
BRANCH  42  43
ATOM     43  C   UNL     1      31.391   8.720 -23.797  1.00  0.00     0.027 C 
BRANCH  43  44
ATOM     44  C   UNL     1      29.924   8.679 -24.219  1.00  0.00     0.092 C 
BRANCH  44  45
ATOM     45  N   UNL     1      29.755   7.717 -25.314  1.00  0.00    -0.094 NA
ATOM     46  N   UNL     1      29.132   6.681 -25.021  1.00  0.00     0.001 N 
ATOM     47  N   UNL     1      28.575   5.725 -24.746  1.00  0.00    -0.003 NA
ENDBRANCH  44  45
ENDBRANCH  43  44
ENDBRANCH  42  43
ENDBRANCH  40  42
ENDBRANCH  37  38
ENDBRANCH  36  37
ENDBRANCH   1  36
TORSDOF 12
ENDMDL
