MODEL 1
REMARK VINA RESULT:      -6.8      0.000      0.000
REMARK SMILES CC(=O)Nc1nc(-c2cccc(NC(=O)[C@@H](N)Cc3c[nH]cn3)c2)cs1
REMARK SMILES IDX 13 1 14 2 15 3 12 5 8 6 9 7 24 8 10 9 11 10 7 11 5 12 6 13
REMARK SMILES IDX 26 14 25 15 4 16 2 17 3 18 1 19 16 21 17 22 18 25 19 26
REMARK SMILES IDX 20 27 23 28 21 29 22 30
REMARK H PARENT 13 4 4 20 17 23 17 24 21 31
ROOT
ATOM      1  N   UNL     1      23.162  17.836 -10.223  1.00  0.00    -0.325 N 
ATOM      2  C   UNL     1      22.948  16.718 -11.017  1.00  0.00     0.241 C 
ATOM      3  O   UNL     1      22.397  15.677 -10.673  1.00  0.00    -0.273 OA
ATOM      4  H   UNL     1      23.673  18.590 -10.666  1.00  0.00     0.169 HD
ENDROOT
BRANCH   1   5
ATOM      5  C   UNL     1      22.757  18.043  -8.889  1.00  0.00     0.041 A 
ATOM      6  C   UNL     1      23.247  19.132  -6.754  1.00  0.00     0.003 A 
ATOM      7  C   UNL     1      22.078  18.575  -6.222  1.00  0.00     0.010 A 
ATOM      8  C   UNL     1      23.573  18.863  -8.093  1.00  0.00     0.036 A 
ATOM      9  C   UNL     1      21.263  17.758  -7.005  1.00  0.00     0.003 A 
ATOM     10  C   UNL     1      21.603  17.492  -8.333  1.00  0.00     0.026 A 
BRANCH   6  11
ATOM     11  C   UNL     1      24.080  19.983  -5.908  1.00  0.00     0.084 A 
ATOM     12  C   UNL     1      25.515  21.621  -5.510  1.00  0.00     0.189 A 
ATOM     13  N   UNL     1      24.857  20.995  -6.457  1.00  0.00    -0.220 NA
ATOM     14  S   UNL     1      25.242  21.069  -3.925  1.00  0.00    -0.105 S 
ATOM     15  C   UNL     1      24.158  19.888  -4.531  1.00  0.00     0.097 A 
BRANCH  12  16
ATOM     16  N   UNL     1      26.364  22.652  -5.815  1.00  0.00    -0.302 N 
ATOM     17  C   UNL     1      26.024  23.945  -6.138  1.00  0.00     0.223 C 
ATOM     18  O   UNL     1      24.899  24.422  -6.235  1.00  0.00    -0.275 OA
ATOM     19  C   UNL     1      27.241  24.792  -6.411  1.00  0.00     0.114 C 
ATOM     20  H   UNL     1      27.337  22.382  -5.783  1.00  0.00     0.172 HD
ENDBRANCH  12  16
ENDBRANCH   6  11
ENDBRANCH   1   5
BRANCH   2  21
ATOM     21  C   UNL     1      23.549  16.865 -12.431  1.00  0.00     0.147 C 
BRANCH  21  22
ATOM     22  N   UNL     1      23.234  18.200 -12.992  1.00  0.00    -0.320 NA
ATOM     23  H   UNL     1      23.921  18.494 -13.681  1.00  0.00     0.119 HD
ATOM     24  H   UNL     1      22.290  18.234 -13.371  1.00  0.00     0.119 HD
ENDBRANCH  21  22
BRANCH  21  25
ATOM     25  C   UNL     1      25.054  16.563 -12.328  1.00  0.00     0.086 C 
BRANCH  25  26
ATOM     26  C   UNL     1      25.912  17.777 -12.291  1.00  0.00     0.060 A 
ATOM     27  C   UNL     1      26.876  18.196 -13.181  1.00  0.00     0.107 A 
ATOM     28  N   UNL     1      25.805  18.668 -11.246  1.00  0.00    -0.242 NA
ATOM     29  N   UNL     1      27.347  19.374 -12.670  1.00  0.00    -0.351 N 
ATOM     30  C   UNL     1      26.678  19.615 -11.506  1.00  0.00     0.196 A 
ATOM     31  H   UNL     1      28.061  19.964 -13.077  1.00  0.00     0.167 HD
ENDBRANCH  25  26
ENDBRANCH  21  25
ENDBRANCH   2  21
TORSDOF 7
ENDMDL
MODEL 2
REMARK VINA RESULT:      -6.5     16.107     17.922
REMARK SMILES CC(=O)Nc1nc(-c2cccc(NC(=O)[C@@H](N)Cc3c[nH]cn3)c2)cs1
REMARK SMILES IDX 13 1 14 2 15 3 12 5 8 6 9 7 24 8 10 9 11 10 7 11 5 12 6 13
REMARK SMILES IDX 26 14 25 15 4 16 2 17 3 18 1 19 16 21 17 22 18 25 19 26
REMARK SMILES IDX 20 27 23 28 21 29 22 30
REMARK H PARENT 13 4 4 20 17 23 17 24 21 31
ROOT
ATOM      1  N   UNL     1      20.116  11.658 -23.020  1.00  0.00    -0.325 N 
ATOM      2  C   UNL     1      19.618  11.546 -21.730  1.00  0.00     0.241 C 
ATOM      3  O   UNL     1      20.121  10.911 -20.808  1.00  0.00    -0.273 OA
ATOM      4  H   UNL     1      19.541  12.191 -23.661  1.00  0.00     0.169 HD
ENDROOT
BRANCH   1   5
ATOM      5  C   UNL     1      21.313  11.124 -23.537  1.00  0.00     0.041 A 
ATOM      6  C   UNL     1      23.639  11.556 -24.159  1.00  0.00     0.003 A 
ATOM      7  C   UNL     1      23.773  10.210 -24.523  1.00  0.00     0.010 A 
ATOM      8  C   UNL     1      22.404  11.999 -23.660  1.00  0.00     0.036 A 
ATOM      9  C   UNL     1      22.694   9.335 -24.406  1.00  0.00     0.003 A 
ATOM     10  C   UNL     1      21.469   9.791 -23.917  1.00  0.00     0.026 A 
BRANCH   6  11
ATOM     11  C   UNL     1      24.788  12.448 -24.293  1.00  0.00     0.084 A 
ATOM     12  C   UNL     1      25.799  14.348 -24.811  1.00  0.00     0.189 A 
ATOM     13  N   UNL     1      24.636  13.740 -24.780  1.00  0.00    -0.220 NA
ATOM     14  S   UNL     1      27.126  13.445 -24.252  1.00  0.00    -0.105 S 
ATOM     15  C   UNL     1      26.084  12.120 -23.941  1.00  0.00     0.097 A 
BRANCH  12  16
ATOM     16  N   UNL     1      25.902  15.634 -25.273  1.00  0.00    -0.302 N 
ATOM     17  C   UNL     1      26.535  16.061 -26.416  1.00  0.00     0.223 C 
ATOM     18  O   UNL     1      27.145  15.381 -27.234  1.00  0.00    -0.275 OA
ATOM     19  C   UNL     1      26.434  17.556 -26.586  1.00  0.00     0.114 C 
ATOM     20  H   UNL     1      25.444  16.304 -24.672  1.00  0.00     0.172 HD
ENDBRANCH  12  16
ENDBRANCH   6  11
ENDBRANCH   1   5
BRANCH   2  21
ATOM     21  C   UNL     1      18.266  12.268 -21.546  1.00  0.00     0.147 C 
BRANCH  21  22
ATOM     22  N   UNL     1      18.351  13.253 -20.442  1.00  0.00    -0.320 NA
ATOM     23  H   UNL     1      18.544  12.807 -19.549  1.00  0.00     0.119 HD
ATOM     24  H   UNL     1      19.028  13.986 -20.645  1.00  0.00     0.119 HD
ENDBRANCH  21  22
BRANCH  21  25
ATOM     25  C   UNL     1      17.876  12.876 -22.904  1.00  0.00     0.086 C 
BRANCH  25  26
ATOM     26  C   UNL     1      16.409  12.972 -23.125  1.00  0.00     0.060 A 
ATOM     27  C   UNL     1      15.404  12.121 -22.720  1.00  0.00     0.107 A 
ATOM     28  N   UNL     1      15.884  14.029 -23.836  1.00  0.00    -0.242 NA
ATOM     29  N   UNL     1      14.248  12.687 -23.182  1.00  0.00    -0.351 N 
ATOM     30  C   UNL     1      14.586  13.828 -23.849  1.00  0.00     0.196 A 
ATOM     31  H   UNL     1      13.311  12.329 -23.055  1.00  0.00     0.167 HD
ENDBRANCH  25  26
ENDBRANCH  21  25
ENDBRANCH   2  21
TORSDOF 7
ENDMDL
MODEL 3
REMARK VINA RESULT:      -6.4     16.424     17.608
REMARK SMILES CC(=O)Nc1nc(-c2cccc(NC(=O)[C@@H](N)Cc3c[nH]cn3)c2)cs1
REMARK SMILES IDX 13 1 14 2 15 3 12 5 8 6 9 7 24 8 10 9 11 10 7 11 5 12 6 13
REMARK SMILES IDX 26 14 25 15 4 16 2 17 3 18 1 19 16 21 17 22 18 25 19 26
REMARK SMILES IDX 20 27 23 28 21 29 22 30
REMARK H PARENT 13 4 4 20 17 23 17 24 21 31
ROOT
ATOM      1  N   UNL     1      19.415  10.923 -22.153  1.00  0.00    -0.325 N 
ATOM      2  C   UNL     1      19.471  10.328 -20.901  1.00  0.00     0.241 C 
ATOM      3  O   UNL     1      20.335  10.506 -20.048  1.00  0.00    -0.273 OA
ATOM      4  H   UNL     1      18.648  10.621 -22.742  1.00  0.00     0.169 HD
ENDROOT
BRANCH   1   5
ATOM      5  C   UNL     1      20.289  11.887 -22.695  1.00  0.00     0.041 A 
ATOM      6  C   UNL     1      22.430  12.306 -23.802  1.00  0.00     0.003 A 
ATOM      7  C   UNL     1      22.125  13.673 -23.834  1.00  0.00     0.010 A 
ATOM      8  C   UNL     1      21.498  11.422 -23.235  1.00  0.00     0.036 A 
ATOM      9  C   UNL     1      20.926  14.143 -23.299  1.00  0.00     0.003 A 
ATOM     10  C   UNL     1      20.014  13.254 -22.729  1.00  0.00     0.026 A 
BRANCH   6  11
ATOM     11  C   UNL     1      23.693  11.844 -24.372  1.00  0.00     0.084 A 
ATOM     12  C   UNL     1      25.867  11.432 -24.352  1.00  0.00     0.189 A 
ATOM     13  N   UNL     1      24.870  11.898 -23.637  1.00  0.00    -0.220 NA
ATOM     14  S   UNL     1      25.473  10.888 -25.914  1.00  0.00    -0.105 S 
ATOM     15  C   UNL     1      23.833  11.306 -25.637  1.00  0.00     0.097 A 
BRANCH  12  16
ATOM     16  N   UNL     1      27.138  11.402 -23.841  1.00  0.00    -0.302 N 
ATOM     17  C   UNL     1      28.056  12.426 -23.825  1.00  0.00     0.223 C 
ATOM     18  O   UNL     1      27.925  13.556 -24.280  1.00  0.00    -0.275 OA
ATOM     19  C   UNL     1      29.350  12.007 -23.175  1.00  0.00     0.114 C 
ATOM     20  H   UNL     1      27.379  10.506 -23.441  1.00  0.00     0.172 HD
ENDBRANCH  12  16
ENDBRANCH   6  11
ENDBRANCH   1   5
BRANCH   2  21
ATOM     21  C   UNL     1      18.333   9.310 -20.672  1.00  0.00     0.147 C 
BRANCH  21  22
ATOM     22  N   UNL     1      18.026   9.194 -19.227  1.00  0.00    -0.320 NA
ATOM     23  H   UNL     1      17.097   8.814 -19.065  1.00  0.00     0.119 HD
ATOM     24  H   UNL     1      18.737   8.657 -18.734  1.00  0.00     0.119 HD
ENDBRANCH  21  22
BRANCH  21  25
ATOM     25  C   UNL     1      17.138   9.748 -21.537  1.00  0.00     0.086 C 
BRANCH  25  26
ATOM     26  C   UNL     1      16.170  10.627 -20.828  1.00  0.00     0.060 A 
ATOM     27  C   UNL     1      16.073  12.001 -20.826  1.00  0.00     0.107 A 
ATOM     28  N   UNL     1      15.195  10.076 -20.025  1.00  0.00    -0.242 NA
ATOM     29  N   UNL     1      15.006  12.283 -20.018  1.00  0.00    -0.351 N 
ATOM     30  C   UNL     1      14.513  11.097 -19.557  1.00  0.00     0.196 A 
ATOM     31  H   UNL     1      14.643  13.201 -19.800  1.00  0.00     0.167 HD
ENDBRANCH  25  26
ENDBRANCH  21  25
ENDBRANCH   2  21
TORSDOF 7
ENDMDL
