MODEL 1
REMARK VINA RESULT:      -6.7      0.000      0.000
REMARK SMILES CC(=O)c1ccc(C(=O)N[C@@H](CCCCN)C(=O)N2C[C@H](N)C[C@H](N)C2)cc1
REMARK SMILES IDX 12 1 11 2 10 3 8 4 9 5 7 7 4 8 5 9 28 10 6 11 27 12 2 13
REMARK SMILES IDX 3 14 1 15 17 16 18 17 19 18 20 19 26 20 21 21 24 22 23 23
REMARK SMILES IDX 22 24 25 27 13 30 14 31 15 32 16 33
REMARK H PARENT 10 6 22 25 22 26 25 28 25 29 16 34 16 35
ROOT
ATOM      1  C   UNL     1      23.448  20.069  -4.950  1.00  0.00     0.035 C 
ENDROOT
BRANCH   1   2
ATOM      2  C   UNL     1      23.012  20.611  -6.326  1.00  0.00     0.171 C 
BRANCH   2   3
ATOM      3  N   UNL     1      23.810  20.039  -7.419  1.00  0.00    -0.340 N 
ATOM      4  C   UNL     1      23.270  19.159  -8.330  1.00  0.00     0.251 C 
ATOM      5  O   UNL     1      22.146  18.685  -8.234  1.00  0.00    -0.269 OA
ATOM      6  H   UNL     1      24.611  20.584  -7.706  1.00  0.00     0.164 HD
BRANCH   4   7
ATOM      7  C   UNL     1      24.129  18.794  -9.491  1.00  0.00     0.039 A 
ATOM      8  C   UNL     1      25.803  18.206 -11.677  1.00  0.00     0.017 A 
ATOM      9  C   UNL     1      24.568  17.557 -11.536  1.00  0.00     0.012 A 
ATOM     10  C   UNL     1      26.191  19.152 -10.720  1.00  0.00     0.012 A 
ATOM     11  C   UNL     1      23.734  17.852 -10.450  1.00  0.00     0.014 A 
ATOM     12  C   UNL     1      25.358  19.449  -9.638  1.00  0.00     0.014 A 
BRANCH   8  13
ATOM     13  C   UNL     1      26.723  17.932 -12.822  1.00  0.00     0.159 C 
ATOM     14  O   UNL     1      26.881  16.779 -13.217  1.00  0.00    -0.295 OA
ATOM     15  C   UNL     1      27.441  19.084 -13.474  1.00  0.00     0.093 C 
ENDBRANCH   8  13
ENDBRANCH   4   7
ENDBRANCH   2   3
BRANCH   2  16
ATOM     16  C   UNL     1      22.942  22.167  -6.324  1.00  0.00     0.245 C 
ATOM     17  O   UNL     1      21.867  22.742  -6.113  1.00  0.00    -0.272 OA
BRANCH  16  18
ATOM     18  N   UNL     1      24.069  22.907  -6.673  1.00  0.00    -0.338 N 
ATOM     19  C   UNL     1      25.060  23.126  -5.617  1.00  0.00     0.138 C 
ATOM     20  C   UNL     1      24.404  23.437  -7.997  1.00  0.00     0.138 C 
ATOM     21  C   UNL     1      26.259  24.015  -6.020  1.00  0.00     0.071 C 
ATOM     22  C   UNL     1      25.839  23.024  -8.373  1.00  0.00     0.071 C 
ATOM     23  C   UNL     1      26.872  23.552  -7.356  1.00  0.00     0.041 C 
BRANCH  21  24
ATOM     24  N   UNL     1      25.871  25.434  -6.112  1.00  0.00    -0.326 NA
ATOM     25  H   UNL     1      24.937  25.558  -5.724  1.00  0.00     0.119 HD
ATOM     26  H   UNL     1      25.818  25.714  -7.091  1.00  0.00     0.119 HD
ENDBRANCH  21  24
BRANCH  22  27
ATOM     27  N   UNL     1      26.205  23.415  -9.741  1.00  0.00    -0.326 NA
ATOM     28  H   UNL     1      25.896  24.367  -9.921  1.00  0.00     0.119 HD
ATOM     29  H   UNL     1      25.706  22.824 -10.406  1.00  0.00     0.119 HD
ENDBRANCH  22  27
ENDBRANCH  16  18
ENDBRANCH   2  16
ENDBRANCH   1   2
BRANCH   1  30
ATOM     30  C   UNL     1      24.188  18.727  -5.035  1.00  0.00     0.004 C 
BRANCH  30  31
ATOM     31  C   UNL     1      23.374  17.610  -4.372  1.00  0.00     0.015 C 
BRANCH  31  32
ATOM     32  C   UNL     1      22.013  17.437  -5.044  1.00  0.00     0.077 C 
BRANCH  32  33
ATOM     33  N   UNL     1      20.950  17.853  -4.141  1.00  0.00    -0.330 NA
ATOM     34  H   UNL     1      20.381  18.573  -4.590  1.00  0.00     0.118 HD
ATOM     35  H   UNL     1      21.355  18.282  -3.309  1.00  0.00     0.118 HD
ENDBRANCH  32  33
ENDBRANCH  31  32
ENDBRANCH  30  31
ENDBRANCH   1  30
TORSDOF 12
ENDMDL
MODEL 2
REMARK VINA RESULT:      -6.6      1.482      1.996
REMARK SMILES CC(=O)c1ccc(C(=O)N[C@@H](CCCCN)C(=O)N2C[C@H](N)C[C@H](N)C2)cc1
REMARK SMILES IDX 12 1 11 2 10 3 8 4 9 5 7 7 4 8 5 9 28 10 6 11 27 12 2 13
REMARK SMILES IDX 3 14 1 15 17 16 18 17 19 18 20 19 26 20 21 21 24 22 23 23
REMARK SMILES IDX 22 24 25 27 13 30 14 31 15 32 16 33
REMARK H PARENT 10 6 22 25 22 26 25 28 25 29 16 34 16 35
ROOT
ATOM      1  C   UNL     1      21.903  18.202  -5.183  1.00  0.00     0.035 C 
ENDROOT
BRANCH   1   2
ATOM      2  C   UNL     1      22.045  19.418  -6.120  1.00  0.00     0.171 C 
BRANCH   2   3
ATOM      3  N   UNL     1      23.027  19.177  -7.186  1.00  0.00    -0.340 N 
ATOM      4  C   UNL     1      22.682  18.552  -8.364  1.00  0.00     0.251 C 
ATOM      5  O   UNL     1      21.592  18.036  -8.567  1.00  0.00    -0.269 OA
ATOM      6  H   UNL     1      23.821  19.802  -7.197  1.00  0.00     0.164 HD
BRANCH   4   7
ATOM      7  C   UNL     1      23.720  18.531  -9.433  1.00  0.00     0.039 A 
ATOM      8  C   UNL     1      25.645  18.390 -11.482  1.00  0.00     0.017 A 
ATOM      9  C   UNL     1      25.859  19.209 -10.365  1.00  0.00     0.012 A 
ATOM     10  C   UNL     1      24.465  17.640 -11.564  1.00  0.00     0.012 A 
ATOM     11  C   UNL     1      24.903  19.277  -9.344  1.00  0.00     0.014 A 
ATOM     12  C   UNL     1      23.511  17.705 -10.544  1.00  0.00     0.014 A 
BRANCH   8  13
ATOM     13  C   UNL     1      26.638  18.277 -12.593  1.00  0.00     0.159 C 
ATOM     14  O   UNL     1      27.214  19.283 -13.003  1.00  0.00    -0.295 OA
ATOM     15  C   UNL     1      26.917  16.923 -13.190  1.00  0.00     0.093 C 
ENDBRANCH   8  13
ENDBRANCH   4   7
ENDBRANCH   2   3
BRANCH   2  16
ATOM     16  C   UNL     1      22.278  20.730  -5.313  1.00  0.00     0.245 C 
ATOM     17  O   UNL     1      21.454  21.095  -4.466  1.00  0.00    -0.272 OA
BRANCH  16  18
ATOM     18  N   UNL     1      23.360  21.549  -5.628  1.00  0.00    -0.338 N 
ATOM     19  C   UNL     1      24.624  21.252  -4.951  1.00  0.00     0.138 C 
ATOM     20  C   UNL     1      23.390  22.635  -6.612  1.00  0.00     0.138 C 
ATOM     21  C   UNL     1      25.780  22.228  -5.268  1.00  0.00     0.071 C 
ATOM     22  C   UNL     1      24.591  22.446  -7.556  1.00  0.00     0.071 C 
ATOM     23  C   UNL     1      25.928  22.442  -6.786  1.00  0.00     0.041 C 
BRANCH  21  24
ATOM     24  N   UNL     1      25.589  23.527  -4.597  1.00  0.00    -0.326 NA
ATOM     25  H   UNL     1      24.817  23.458  -3.934  1.00  0.00     0.119 HD
ATOM     26  H   UNL     1      25.320  24.233  -5.282  1.00  0.00     0.119 HD
ENDBRANCH  21  24
BRANCH  22  27
ATOM     27  N   UNL     1      24.618  23.430  -8.647  1.00  0.00    -0.326 NA
ATOM     28  H   UNL     1      25.396  23.230  -9.271  1.00  0.00     0.119 HD
ATOM     29  H   UNL     1      24.795  24.356  -8.261  1.00  0.00     0.119 HD
ENDBRANCH  22  27
ENDBRANCH  16  18
ENDBRANCH   2  16
ENDBRANCH   1   2
BRANCH   1  30
ATOM     30  C   UNL     1      23.215  17.430  -4.989  1.00  0.00     0.004 C 
BRANCH  30  31
ATOM     31  C   UNL     1      23.950  17.906  -3.731  1.00  0.00     0.015 C 
BRANCH  31  32
ATOM     32  C   UNL     1      24.168  16.759  -2.745  1.00  0.00     0.077 C 
BRANCH  32  33
ATOM     33  N   UNL     1      23.340  15.619  -3.111  1.00  0.00    -0.330 NA
ATOM     34  H   UNL     1      22.605  15.489  -2.413  1.00  0.00     0.118 HD
ATOM     35  H   UNL     1      23.903  14.768  -3.098  1.00  0.00     0.118 HD
ENDBRANCH  32  33
ENDBRANCH  31  32
ENDBRANCH  30  31
ENDBRANCH   1  30
TORSDOF 12
ENDMDL
MODEL 3
REMARK VINA RESULT:      -6.5      1.549      1.746
REMARK SMILES CC(=O)c1ccc(C(=O)N[C@@H](CCCCN)C(=O)N2C[C@H](N)C[C@H](N)C2)cc1
REMARK SMILES IDX 12 1 11 2 10 3 8 4 9 5 7 7 4 8 5 9 28 10 6 11 27 12 2 13
REMARK SMILES IDX 3 14 1 15 17 16 18 17 19 18 20 19 26 20 21 21 24 22 23 23
REMARK SMILES IDX 22 24 25 27 13 30 14 31 15 32 16 33
REMARK H PARENT 10 6 22 25 22 26 25 28 25 29 16 34 16 35
ROOT
ATOM      1  C   UNL     1      21.721  18.178  -5.843  1.00  0.00     0.035 C 
ENDROOT
BRANCH   1   2
ATOM      2  C   UNL     1      21.942  19.354  -6.816  1.00  0.00     0.171 C 
BRANCH   2   3
ATOM      3  N   UNL     1      22.941  19.033  -7.845  1.00  0.00    -0.340 N 
ATOM      4  C   UNL     1      22.657  18.190  -8.897  1.00  0.00     0.251 C 
ATOM      5  O   UNL     1      21.621  17.547  -8.992  1.00  0.00    -0.269 OA
ATOM      6  H   UNL     1      23.671  19.719  -7.973  1.00  0.00     0.164 HD
BRANCH   4   7
ATOM      7  C   UNL     1      23.691  18.090  -9.965  1.00  0.00     0.039 A 
ATOM      8  C   UNL     1      25.675  18.006 -11.960  1.00  0.00     0.017 A 
ATOM      9  C   UNL     1      24.549  17.177 -12.047  1.00  0.00     0.012 A 
ATOM     10  C   UNL     1      25.799  18.879 -10.872  1.00  0.00     0.012 A 
ATOM     11  C   UNL     1      23.559  17.221 -11.056  1.00  0.00     0.014 A 
ATOM     12  C   UNL     1      24.811  18.926  -9.884  1.00  0.00     0.014 A 
BRANCH   8  13
ATOM     13  C   UNL     1      26.752  18.002 -12.995  1.00  0.00     0.159 C 
ATOM     14  O   UNL     1      27.018  16.964 -13.598  1.00  0.00    -0.295 OA
ATOM     15  C   UNL     1      27.495  19.281 -13.283  1.00  0.00     0.093 C 
ENDBRANCH   8  13
ENDBRANCH   4   7
ENDBRANCH   2   3
BRANCH   2  16
ATOM     16  C   UNL     1      22.211  20.681  -6.048  1.00  0.00     0.245 C 
ATOM     17  O   UNL     1      21.294  21.246  -5.439  1.00  0.00    -0.272 OA
BRANCH  16  18
ATOM     18  N   UNL     1      23.461  21.290  -6.142  1.00  0.00    -0.338 N 
ATOM     19  C   UNL     1      24.483  20.834  -5.197  1.00  0.00     0.138 C 
ATOM     20  C   UNL     1      23.885  22.291  -7.124  1.00  0.00     0.138 C 
ATOM     21  C   UNL     1      25.832  21.586  -5.281  1.00  0.00     0.071 C 
ATOM     22  C   UNL     1      25.206  21.847  -7.779  1.00  0.00     0.071 C 
ATOM     23  C   UNL     1      26.330  21.674  -6.736  1.00  0.00     0.041 C 
BRANCH  21  24
ATOM     24  N   UNL     1      25.732  22.938  -4.704  1.00  0.00    -0.326 NA
ATOM     25  H   UNL     1      25.335  23.575  -5.393  1.00  0.00     0.119 HD
ATOM     26  H   UNL     1      26.665  23.290  -4.488  1.00  0.00     0.119 HD
ENDBRANCH  21  24
BRANCH  22  27
ATOM     27  N   UNL     1      25.633  22.741  -8.864  1.00  0.00    -0.326 NA
ATOM     28  H   UNL     1      24.854  22.914  -9.493  1.00  0.00     0.119 HD
ATOM     29  H   UNL     1      26.351  22.278  -9.420  1.00  0.00     0.119 HD
ENDBRANCH  22  27
ENDBRANCH  16  18
ENDBRANCH   2  16
ENDBRANCH   1   2
BRANCH   1  30
ATOM     30  C   UNL     1      22.135  18.499  -4.401  1.00  0.00     0.004 C 
BRANCH  30  31
ATOM     31  C   UNL     1      22.047  17.251  -3.516  1.00  0.00     0.015 C 
BRANCH  31  32
ATOM     32  C   UNL     1      23.413  16.585  -3.353  1.00  0.00     0.077 C 
BRANCH  32  33
ATOM     33  N   UNL     1      24.463  17.593  -3.330  1.00  0.00    -0.330 NA
ATOM     34  H   UNL     1      24.668  17.898  -4.284  1.00  0.00     0.118 HD
ATOM     35  H   UNL     1      25.324  17.184  -2.968  1.00  0.00     0.118 HD
ENDBRANCH  32  33
ENDBRANCH  31  32
ENDBRANCH  30  31
ENDBRANCH   1  30
TORSDOF 12
ENDMDL
