MODEL 1
REMARK VINA RESULT:      -6.8      0.000      0.000
REMARK SMILES CC(=O)Nc1nc(-c2cccc(NC(=O)[C@@H](N)CCCCN)c2)cs1
REMARK SMILES IDX 16 1 14 2 13 3 15 4 12 6 8 7 9 8 23 9 10 10 11 11 7 12 5 13
REMARK SMILES IDX 6 14 25 15 24 16 4 17 2 18 3 19 1 20 17 22 18 25 19 26 20 27
REMARK SMILES IDX 21 28 22 29
REMARK H PARENT 13 5 4 21 17 23 17 24 22 30 22 31
ROOT
ATOM      1  C   UNL     1      23.374  16.655 -12.397  1.00  0.00     0.141 C 
ENDROOT
BRANCH   1   2
ATOM      2  C   UNL     1      22.843  16.612 -10.938  1.00  0.00     0.241 C 
ATOM      3  N   UNL     1      23.176  17.771 -10.255  1.00  0.00    -0.325 N 
ATOM      4  O   UNL     1      22.180  15.675 -10.507  1.00  0.00    -0.273 OA
ATOM      5  H   UNL     1      23.815  18.370 -10.775  1.00  0.00     0.169 HD
BRANCH   3   6
ATOM      6  C   UNL     1      22.840  18.144  -8.942  1.00  0.00     0.041 A 
ATOM      7  C   UNL     1      23.155  19.433  -6.893  1.00  0.00     0.003 A 
ATOM      8  C   UNL     1      22.054  18.772  -6.331  1.00  0.00     0.010 A 
ATOM      9  C   UNL     1      23.541  19.102  -8.203  1.00  0.00     0.036 A 
ATOM     10  C   UNL     1      21.352  17.810  -7.058  1.00  0.00     0.003 A 
ATOM     11  C   UNL     1      21.745  17.498  -8.358  1.00  0.00     0.026 A 
BRANCH   7  12
ATOM     12  C   UNL     1      23.870  20.433  -6.099  1.00  0.00     0.084 A 
ATOM     13  C   UNL     1      24.799  22.413  -5.736  1.00  0.00     0.189 A 
ATOM     14  N   UNL     1      24.159  21.689  -6.624  1.00  0.00    -0.220 NA
ATOM     15  S   UNL     1      25.114  21.658  -4.246  1.00  0.00    -0.105 S 
ATOM     16  C   UNL     1      24.328  20.240  -4.809  1.00  0.00     0.097 A 
BRANCH  13  17
ATOM     17  N   UNL     1      25.184  23.695  -6.029  1.00  0.00    -0.302 N 
ATOM     18  C   UNL     1      26.329  24.094  -6.677  1.00  0.00     0.223 C 
ATOM     19  O   UNL     1      27.236  23.388  -7.100  1.00  0.00    -0.275 OA
ATOM     20  C   UNL     1      26.409  25.595  -6.810  1.00  0.00     0.114 C 
ATOM     21  H   UNL     1      24.528  24.385  -5.693  1.00  0.00     0.172 HD
ENDBRANCH  13  17
ENDBRANCH   7  12
ENDBRANCH   3   6
ENDBRANCH   1   2
BRANCH   1  22
ATOM     22  N   UNL     1      22.263  17.010 -13.317  1.00  0.00    -0.320 NA
ATOM     23  H   UNL     1      21.749  16.161 -13.554  1.00  0.00     0.119 HD
ATOM     24  H   UNL     1      22.671  17.334 -14.199  1.00  0.00     0.119 HD
ENDBRANCH   1  22
BRANCH   1  25
ATOM     25  C   UNL     1      24.572  17.610 -12.523  1.00  0.00     0.029 C 
BRANCH  25  26
ATOM     26  C   UNL     1      25.927  16.896 -12.486  1.00  0.00     0.003 C 
BRANCH  26  27
ATOM     27  C   UNL     1      27.120  17.862 -12.483  1.00  0.00     0.015 C 
BRANCH  27  28
ATOM     28  C   UNL     1      26.915  19.168 -11.711  1.00  0.00     0.077 C 
BRANCH  28  29
ATOM     29  N   UNL     1      27.528  20.318 -12.366  1.00  0.00    -0.330 NA
ATOM     30  H   UNL     1      27.441  20.237 -13.376  1.00  0.00     0.118 HD
ATOM     31  H   UNL     1      28.526  20.338 -12.162  1.00  0.00     0.118 HD
ENDBRANCH  28  29
ENDBRANCH  27  28
ENDBRANCH  26  27
ENDBRANCH  25  26
ENDBRANCH   1  25
TORSDOF 10
ENDMDL
MODEL 2
REMARK VINA RESULT:      -6.5     16.104     17.894
REMARK SMILES CC(=O)Nc1nc(-c2cccc(NC(=O)[C@@H](N)CCCCN)c2)cs1
REMARK SMILES IDX 16 1 14 2 13 3 15 4 12 6 8 7 9 8 23 9 10 10 11 11 7 12 5 13
REMARK SMILES IDX 6 14 25 15 24 16 4 17 2 18 3 19 1 20 17 22 18 25 19 26 20 27
REMARK SMILES IDX 21 28 22 29
REMARK H PARENT 13 5 4 21 17 23 17 24 22 30 22 31
ROOT
ATOM      1  C   UNL     1      18.114  12.153 -21.322  1.00  0.00     0.141 C 
ENDROOT
BRANCH   1   2
ATOM      2  C   UNL     1      19.443  11.384 -21.559  1.00  0.00     0.241 C 
ATOM      3  N   UNL     1      19.984  11.698 -22.795  1.00  0.00    -0.325 N 
ATOM      4  O   UNL     1      19.932  10.643 -20.714  1.00  0.00    -0.273 OA
ATOM      5  H   UNL     1      19.359  12.258 -23.372  1.00  0.00     0.169 HD
BRANCH   3   6
ATOM      6  C   UNL     1      21.194  11.261 -23.361  1.00  0.00     0.041 A 
ATOM      7  C   UNL     1      23.509  11.574 -24.070  1.00  0.00     0.003 A 
ATOM      8  C   UNL     1      23.530  10.247 -24.520  1.00  0.00     0.010 A 
ATOM      9  C   UNL     1      22.327  12.070 -23.495  1.00  0.00     0.036 A 
ATOM     10  C   UNL     1      22.404   9.433 -24.396  1.00  0.00     0.003 A 
ATOM     11  C   UNL     1      21.241   9.940 -23.818  1.00  0.00     0.026 A 
BRANCH   7  12
ATOM     12  C   UNL     1      24.708  12.399 -24.221  1.00  0.00     0.084 A 
ATOM     13  C   UNL     1      25.814  14.251 -24.733  1.00  0.00     0.189 A 
ATOM     14  N   UNL     1      24.620  13.709 -24.681  1.00  0.00    -0.220 NA
ATOM     15  S   UNL     1      27.106  13.251 -24.264  1.00  0.00    -0.105 S 
ATOM     16  C   UNL     1      25.998  11.979 -23.952  1.00  0.00     0.097 A 
BRANCH  13  17
ATOM     17  N   UNL     1      25.975  15.545 -25.153  1.00  0.00    -0.302 N 
ATOM     18  C   UNL     1      26.283  15.978 -26.421  1.00  0.00     0.223 C 
ATOM     19  O   UNL     1      26.494  15.294 -27.415  1.00  0.00    -0.275 OA
ATOM     20  C   UNL     1      26.385  17.481 -26.496  1.00  0.00     0.114 C 
ATOM     21  H   UNL     1      25.863  16.215 -24.405  1.00  0.00     0.172 HD
ENDBRANCH  13  17
ENDBRANCH   7  12
ENDBRANCH   3   6
ENDBRANCH   1   2
BRANCH   1  22
ATOM     22  N   UNL     1      18.361  13.296 -20.406  1.00  0.00    -0.320 NA
ATOM     23  H   UNL     1      18.424  12.943 -19.450  1.00  0.00     0.119 HD
ATOM     24  H   UNL     1      17.533  13.899 -20.417  1.00  0.00     0.119 HD
ENDBRANCH   1  22
BRANCH   1  25
ATOM     25  C   UNL     1      17.482  12.592 -22.653  1.00  0.00     0.029 C 
BRANCH  25  26
ATOM     26  C   UNL     1      15.981  12.880 -22.549  1.00  0.00     0.003 C 
BRANCH  26  27
ATOM     27  C   UNL     1      15.503  13.960 -23.530  1.00  0.00     0.015 C 
BRANCH  27  28
ATOM     28  C   UNL     1      14.171  13.680 -24.229  1.00  0.00     0.077 C 
BRANCH  28  29
ATOM     29  N   UNL     1      13.166  14.704 -23.968  1.00  0.00    -0.330 NA
ATOM     30  H   UNL     1      13.397  15.561 -24.466  1.00  0.00     0.118 HD
ATOM     31  H   UNL     1      13.162  14.938 -22.976  1.00  0.00     0.118 HD
ENDBRANCH  28  29
ENDBRANCH  27  28
ENDBRANCH  26  27
ENDBRANCH  25  26
ENDBRANCH   1  25
TORSDOF 10
ENDMDL
MODEL 3
REMARK VINA RESULT:      -6.3      2.887      5.236
REMARK SMILES CC(=O)Nc1nc(-c2cccc(NC(=O)[C@@H](N)CCCCN)c2)cs1
REMARK SMILES IDX 16 1 14 2 13 3 15 4 12 6 8 7 9 8 23 9 10 10 11 11 7 12 5 13
REMARK SMILES IDX 6 14 25 15 24 16 4 17 2 18 3 19 1 20 17 22 18 25 19 26 20 27
REMARK SMILES IDX 21 28 22 29
REMARK H PARENT 13 5 4 21 17 23 17 24 22 30 22 31
ROOT
ATOM      1  C   UNL     1      25.803  17.937 -12.427  1.00  0.00     0.141 C 
ENDROOT
BRANCH   1   2
ATOM      2  C   UNL     1      26.213  19.110 -11.494  1.00  0.00     0.241 C 
ATOM      3  N   UNL     1      25.411  19.148 -10.364  1.00  0.00    -0.325 N 
ATOM      4  O   UNL     1      27.158  19.849 -11.745  1.00  0.00    -0.273 OA
ATOM      5  H   UNL     1      24.626  18.501 -10.412  1.00  0.00     0.169 HD
BRANCH   3   6
ATOM      6  C   UNL     1      25.490  20.016  -9.261  1.00  0.00     0.041 A 
ATOM      7  C   UNL     1      25.436  20.516  -6.872  1.00  0.00     0.003 A 
ATOM      8  C   UNL     1      25.660  21.867  -7.170  1.00  0.00     0.010 A 
ATOM      9  C   UNL     1      25.347  19.599  -7.934  1.00  0.00     0.036 A 
ATOM     10  C   UNL     1      25.798  22.293  -8.491  1.00  0.00     0.003 A 
ATOM     11  C   UNL     1      25.712  21.370  -9.531  1.00  0.00     0.026 A 
BRANCH   7  12
ATOM     12  C   UNL     1      25.292  20.106  -5.475  1.00  0.00     0.084 A 
ATOM     13  C   UNL     1      24.606  18.780  -3.837  1.00  0.00     0.189 A 
ATOM     14  N   UNL     1      24.604  18.944  -5.139  1.00  0.00    -0.220 NA
ATOM     15  S   UNL     1      25.395  19.984  -2.934  1.00  0.00    -0.105 S 
ATOM     16  C   UNL     1      25.785  20.807  -4.389  1.00  0.00     0.097 A 
BRANCH  13  17
ATOM     17  N   UNL     1      23.991  17.694  -3.270  1.00  0.00    -0.302 N 
ATOM     18  C   UNL     1      23.314  16.687  -3.917  1.00  0.00     0.223 C 
ATOM     19  O   UNL     1      23.110  16.574  -5.119  1.00  0.00    -0.275 OA
ATOM     20  C   UNL     1      22.765  15.664  -2.953  1.00  0.00     0.114 C 
ATOM     21  H   UNL     1      24.055  17.691  -2.262  1.00  0.00     0.172 HD
ENDBRANCH  13  17
ENDBRANCH   7  12
ENDBRANCH   3   6
ENDBRANCH   1   2
BRANCH   1  22
ATOM     22  N   UNL     1      27.025  17.276 -12.954  1.00  0.00    -0.320 NA
ATOM     23  H   UNL     1      26.774  16.738 -13.785  1.00  0.00     0.119 HD
ATOM     24  H   UNL     1      27.335  16.583 -12.266  1.00  0.00     0.119 HD
ENDBRANCH   1  22
BRANCH   1  25
ATOM     25  C   UNL     1      24.868  16.954 -11.703  1.00  0.00     0.029 C 
BRANCH  25  26
ATOM     26  C   UNL     1      23.404  17.409 -11.683  1.00  0.00     0.003 C 
BRANCH  26  27
ATOM     27  C   UNL     1      22.625  16.885 -10.470  1.00  0.00     0.015 C 
BRANCH  27  28
ATOM     28  C   UNL     1      22.320  17.916  -9.381  1.00  0.00     0.077 C 
BRANCH  28  29
ATOM     29  N   UNL     1      21.806  17.313  -8.156  1.00  0.00    -0.330 NA
ATOM     30  H   UNL     1      20.790  17.271  -8.182  1.00  0.00     0.118 HD
ATOM     31  H   UNL     1      22.052  17.895  -7.356  1.00  0.00     0.118 HD
ENDBRANCH  28  29
ENDBRANCH  27  28
ENDBRANCH  26  27
ENDBRANCH  25  26
ENDBRANCH   1  25
TORSDOF 10
ENDMDL
