MODEL 1
REMARK VINA RESULT:      -7.5      0.000      0.000
REMARK SMILES N=C(NCCCCc1c(N)nc(N)nc1N)c1cccc(C(=N)NCCCCc2c(N)nc(N)nc2N)c1
REMARK SMILES IDX 17 1 18 2 19 3 20 4 21 5 38 6 2 7 1 8 3 9 4 12 5 13 6 14
REMARK SMILES IDX 7 15 8 16 9 17 15 18 11 19 14 20 12 21 10 22 16 25 13 28
REMARK SMILES IDX 22 31 23 32 24 33 25 36 26 37 27 38 28 39 29 40 30 41 36 42
REMARK SMILES IDX 32 43 35 44 33 45 31 46 37 49 34 52
REMARK H PARENT 1 10 3 11 10 23 10 24 16 26 16 27 13 29 13 30 23 34 24 35
REMARK H PARENT 31 47 31 48 37 50 37 51 34 53 34 54
ROOT
ATOM      1  C   UNL     1      23.729  20.390  -4.732  1.00  0.00     0.017 A 
ATOM      2  C   UNL     1      24.118  20.447  -3.386  1.00  0.00     0.012 A 
ATOM      3  C   UNL     1      24.543  21.652  -2.827  1.00  0.00     0.002 A 
ATOM      4  C   UNL     1      24.615  22.797  -3.619  1.00  0.00     0.012 A 
ATOM      5  C   UNL     1      24.270  22.737  -4.975  1.00  0.00     0.017 A 
ATOM      6  C   UNL     1      23.791  21.543  -5.523  1.00  0.00     0.023 A 
ENDROOT
BRANCH   1   7
ATOM      7  C   UNL     1      23.313  19.083  -5.337  1.00  0.00     0.125 C 
ATOM      8  N   UNL     1      23.958  17.989  -5.065  1.00  0.00    -0.284 NA
ATOM      9  N   UNL     1      22.217  19.045  -6.162  1.00  0.00    -0.370 N 
ATOM     10  H   UNL     1      24.722  18.144  -4.405  1.00  0.00     0.189 HD
ATOM     11  H   UNL     1      21.714  19.904  -6.345  1.00  0.00     0.162 HD
BRANCH   9  12
ATOM     12  C   UNL     1      21.494  17.828  -6.495  1.00  0.00     0.114 C 
BRANCH  12  13
ATOM     13  C   UNL     1      21.868  17.294  -7.880  1.00  0.00     0.022 C 
BRANCH  13  14
ATOM     14  C   UNL     1      22.553  18.336  -8.765  1.00  0.00     0.007 C 
BRANCH  14  15
ATOM     15  C   UNL     1      22.749  17.815 -10.193  1.00  0.00     0.043 C 
BRANCH  15  16
ATOM     16  C   UNL     1      24.143  18.088 -10.693  1.00  0.00     0.037 A 
ATOM     17  C   UNL     1      25.031  18.914 -10.027  1.00  0.00     0.134 A 
ATOM     18  C   UNL     1      24.607  17.588 -11.903  1.00  0.00     0.134 A 
ATOM     19  N   UNL     1      26.244  19.224 -10.504  1.00  0.00    -0.196 NA
ATOM     20  N   UNL     1      25.806  17.898 -12.413  1.00  0.00    -0.196 NA
ATOM     21  C   UNL     1      26.583  18.691 -11.678  1.00  0.00     0.223 A 
BRANCH  17  22
ATOM     22  N   UNL     1      24.713  19.518  -8.808  1.00  0.00    -0.383 N 
ATOM     23  H   UNL     1      24.626  20.523  -8.911  1.00  0.00     0.158 HD
ATOM     24  H   UNL     1      23.835  19.102  -8.498  1.00  0.00     0.158 HD
ENDBRANCH  17  22
BRANCH  18  25
ATOM     25  N   UNL     1      23.822  16.748 -12.703  1.00  0.00    -0.383 N 
ATOM     26  H   UNL     1      24.344  16.576 -13.561  1.00  0.00     0.158 HD
ATOM     27  H   UNL     1      23.632  15.860 -12.240  1.00  0.00     0.158 HD
ENDBRANCH  18  25
BRANCH  21  28
ATOM     28  N   UNL     1      27.824  19.028 -12.187  1.00  0.00    -0.368 N 
ATOM     29  H   UNL     1      28.497  18.321 -11.935  1.00  0.00     0.159 HD
ATOM     30  H   UNL     1      27.729  19.250 -13.166  1.00  0.00     0.159 HD
ENDBRANCH  21  28
ENDBRANCH  15  16
ENDBRANCH  14  15
ENDBRANCH  13  14
ENDBRANCH  12  13
ENDBRANCH   9  12
ENDBRANCH   1   7
BRANCH   5  31
ATOM     31  C   UNL     1      24.469  23.949  -5.835  1.00  0.00     0.125 C 
ATOM     32  N   UNL     1      24.101  25.092  -5.355  1.00  0.00    -0.284 NA
ATOM     33  N   UNL     1      25.064  23.802  -7.066  1.00  0.00    -0.370 N 
ATOM     34  H   UNL     1      24.274  25.837  -6.027  1.00  0.00     0.189 HD
ATOM     35  H   UNL     1      25.540  22.923  -7.249  1.00  0.00     0.162 HD
BRANCH  33  36
ATOM     36  C   UNL     1      25.335  24.844  -8.030  1.00  0.00     0.114 C 
BRANCH  36  37
ATOM     37  C   UNL     1      26.768  25.364  -7.916  1.00  0.00     0.022 C 
BRANCH  37  38
ATOM     38  C   UNL     1      27.721  24.830  -8.998  1.00  0.00     0.007 C 
BRANCH  38  39
ATOM     39  C   UNL     1      27.543  25.451 -10.393  1.00  0.00     0.043 C 
BRANCH  39  40
ATOM     40  C   UNL     1      28.624  26.402 -10.834  1.00  0.00     0.037 A 
ATOM     41  C   UNL     1      28.581  27.760 -10.554  1.00  0.00     0.134 A 
ATOM     42  C   UNL     1      29.705  26.005 -11.615  1.00  0.00     0.134 A 
ATOM     43  N   UNL     1      29.499  28.630 -10.996  1.00  0.00    -0.196 NA
ATOM     44  N   UNL     1      30.642  26.859 -12.041  1.00  0.00    -0.196 NA
ATOM     45  C   UNL     1      30.489  28.144 -11.738  1.00  0.00     0.223 A 
BRANCH  41  46
ATOM     46  N   UNL     1      27.553  28.331  -9.803  1.00  0.00    -0.383 N 
ATOM     47  H   UNL     1      26.763  28.451 -10.436  1.00  0.00     0.158 HD
ATOM     48  H   UNL     1      27.822  29.231  -9.413  1.00  0.00     0.158 HD
ENDBRANCH  41  46
BRANCH  42  49
ATOM     49  N   UNL     1      29.853  24.689 -12.070  1.00  0.00    -0.383 N 
ATOM     50  H   UNL     1      29.002  24.162 -11.896  1.00  0.00     0.158 HD
ATOM     51  H   UNL     1      30.627  24.216 -11.623  1.00  0.00     0.158 HD
ENDBRANCH  42  49
BRANCH  45  52
ATOM     52  N   UNL     1      31.461  29.022 -12.183  1.00  0.00    -0.368 N 
ATOM     53  H   UNL     1      31.402  29.892 -11.656  1.00  0.00     0.159 HD
ATOM     54  H   UNL     1      32.364  28.556 -12.104  1.00  0.00     0.159 HD
ENDBRANCH  45  52
ENDBRANCH  39  40
ENDBRANCH  38  39
ENDBRANCH  37  38
ENDBRANCH  36  37
ENDBRANCH  33  36
ENDBRANCH   5  31
TORSDOF 18
ENDMDL
MODEL 2
REMARK VINA RESULT:      -7.4      3.680     10.045
REMARK SMILES N=C(NCCCCc1c(N)nc(N)nc1N)c1cccc(C(=N)NCCCCc2c(N)nc(N)nc2N)c1
REMARK SMILES IDX 17 1 18 2 19 3 20 4 21 5 38 6 2 7 1 8 3 9 4 12 5 13 6 14
REMARK SMILES IDX 7 15 8 16 9 17 15 18 11 19 14 20 12 21 10 22 16 25 13 28
REMARK SMILES IDX 22 31 23 32 24 33 25 36 26 37 27 38 28 39 29 40 30 41 36 42
REMARK SMILES IDX 32 43 35 44 33 45 31 46 37 49 34 52
REMARK H PARENT 1 10 3 11 10 23 10 24 16 26 16 27 13 29 13 30 23 34 24 35
REMARK H PARENT 31 47 31 48 37 50 37 51 34 53 34 54
ROOT
ATOM      1  C   UNL     1      28.768  27.141 -10.902  1.00  0.00     0.017 A 
ATOM      2  C   UNL     1      28.680  28.519 -10.658  1.00  0.00     0.012 A 
ATOM      3  C   UNL     1      27.925  28.996  -9.587  1.00  0.00     0.002 A 
ATOM      4  C   UNL     1      27.225  28.103  -8.778  1.00  0.00     0.012 A 
ATOM      5  C   UNL     1      27.272  26.728  -9.042  1.00  0.00     0.017 A 
ATOM      6  C   UNL     1      28.074  26.244 -10.081  1.00  0.00     0.023 A 
ENDROOT
BRANCH   1   7
ATOM      7  C   UNL     1      29.548  26.636 -12.079  1.00  0.00     0.125 C 
ATOM      8  N   UNL     1      29.275  27.044 -13.281  1.00  0.00    -0.284 NA
ATOM      9  N   UNL     1      30.581  25.757 -11.871  1.00  0.00    -0.370 N 
ATOM     10  H   UNL     1      28.519  27.730 -13.295  1.00  0.00     0.189 HD
ATOM     11  H   UNL     1      30.791  25.466 -10.924  1.00  0.00     0.162 HD
BRANCH   9  12
ATOM     12  C   UNL     1      31.632  25.497 -12.840  1.00  0.00     0.114 C 
BRANCH  12  13
ATOM     13  C   UNL     1      32.171  24.067 -12.740  1.00  0.00     0.022 C 
BRANCH  13  14
ATOM     14  C   UNL     1      31.934  23.426 -11.371  1.00  0.00     0.007 C 
BRANCH  14  15
ATOM     15  C   UNL     1      33.191  22.710 -10.865  1.00  0.00     0.043 C 
BRANCH  15  16
ATOM     16  C   UNL     1      33.916  22.011 -11.984  1.00  0.00     0.037 A 
ATOM     17  C   UNL     1      33.553  20.757 -12.446  1.00  0.00     0.134 A 
ATOM     18  C   UNL     1      35.051  22.545 -12.579  1.00  0.00     0.134 A 
ATOM     19  N   UNL     1      34.239  20.096 -13.388  1.00  0.00    -0.196 NA
ATOM     20  N   UNL     1      35.767  21.897 -13.507  1.00  0.00    -0.196 NA
ATOM     21  C   UNL     1      35.315  20.703 -13.886  1.00  0.00     0.223 A 
BRANCH  17  22
ATOM     22  N   UNL     1      32.449  20.069 -11.937  1.00  0.00    -0.383 N 
ATOM     23  H   UNL     1      32.031  20.572 -11.163  1.00  0.00     0.158 HD
ATOM     24  H   UNL     1      31.790  19.965 -12.708  1.00  0.00     0.158 HD
ENDBRANCH  17  22
BRANCH  18  25
ATOM     25  N   UNL     1      35.554  23.800 -12.212  1.00  0.00    -0.383 N 
ATOM     26  H   UNL     1      36.125  23.663 -11.381  1.00  0.00     0.158 HD
ATOM     27  H   UNL     1      36.126  24.205 -12.952  1.00  0.00     0.158 HD
ENDBRANCH  18  25
BRANCH  21  28
ATOM     28  N   UNL     1      36.042  20.013 -14.840  1.00  0.00    -0.368 N 
ATOM     29  H   UNL     1      37.022  20.231 -14.742  1.00  0.00     0.159 HD
ATOM     30  H   UNL     1      35.777  19.040 -14.815  1.00  0.00     0.159 HD
ENDBRANCH  21  28
ENDBRANCH  15  16
ENDBRANCH  14  15
ENDBRANCH  13  14
ENDBRANCH  12  13
ENDBRANCH   9  12
ENDBRANCH   1   7
BRANCH   5  31
ATOM     31  C   UNL     1      26.418  25.797  -8.236  1.00  0.00     0.125 C 
ATOM     32  N   UNL     1      25.729  26.305  -7.266  1.00  0.00    -0.284 NA
ATOM     33  N   UNL     1      26.373  24.467  -8.580  1.00  0.00    -0.370 N 
ATOM     34  H   UNL     1      25.197  25.582  -6.785  1.00  0.00     0.189 HD
ATOM     35  H   UNL     1      26.740  24.212  -9.492  1.00  0.00     0.162 HD
BRANCH  33  36
ATOM     36  C   UNL     1      25.615  23.426  -7.925  1.00  0.00     0.114 C 
BRANCH  36  37
ATOM     37  C   UNL     1      26.110  22.032  -8.314  1.00  0.00     0.022 C 
BRANCH  37  38
ATOM     38  C   UNL     1      25.038  21.141  -8.963  1.00  0.00     0.007 C 
BRANCH  38  39
ATOM     39  C   UNL     1      25.258  19.629  -8.801  1.00  0.00     0.043 C 
BRANCH  39  40
ATOM     40  C   UNL     1      24.593  18.751  -9.828  1.00  0.00     0.037 A 
ATOM     41  C   UNL     1      25.198  18.426 -11.034  1.00  0.00     0.134 A 
ATOM     42  C   UNL     1      23.300  18.262  -9.679  1.00  0.00     0.134 A 
ATOM     43  N   UNL     1      24.596  17.702 -11.986  1.00  0.00    -0.196 NA
ATOM     44  N   UNL     1      22.696  17.516 -10.611  1.00  0.00    -0.196 NA
ATOM     45  C   UNL     1      23.356  17.288 -11.741  1.00  0.00     0.223 A 
BRANCH  41  46
ATOM     46  N   UNL     1      26.486  18.855 -11.358  1.00  0.00    -0.383 N 
ATOM     47  H   UNL     1      26.381  19.588 -12.058  1.00  0.00     0.158 HD
ATOM     48  H   UNL     1      27.056  18.100 -11.731  1.00  0.00     0.158 HD
ENDBRANCH  41  46
BRANCH  42  49
ATOM     49  N   UNL     1      22.509  18.572  -8.566  1.00  0.00    -0.383 N 
ATOM     50  H   UNL     1      21.777  17.877  -8.454  1.00  0.00     0.158 HD
ATOM     51  H   UNL     1      22.083  19.486  -8.643  1.00  0.00     0.158 HD
ENDBRANCH  42  49
BRANCH  45  52
ATOM     52  N   UNL     1      22.725  16.517 -12.702  1.00  0.00    -0.368 N 
ATOM     53  H   UNL     1      22.180  17.120 -13.318  1.00  0.00     0.159 HD
ATOM     54  H   UNL     1      23.439  15.975 -13.187  1.00  0.00     0.159 HD
ENDBRANCH  45  52
ENDBRANCH  39  40
ENDBRANCH  38  39
ENDBRANCH  37  38
ENDBRANCH  36  37
ENDBRANCH  33  36
ENDBRANCH   5  31
TORSDOF 18
ENDMDL
MODEL 3
REMARK VINA RESULT:      -7.4     11.218     17.600
REMARK SMILES N=C(NCCCCc1c(N)nc(N)nc1N)c1cccc(C(=N)NCCCCc2c(N)nc(N)nc2N)c1
REMARK SMILES IDX 17 1 18 2 19 3 20 4 21 5 38 6 2 7 1 8 3 9 4 12 5 13 6 14
REMARK SMILES IDX 7 15 8 16 9 17 15 18 11 19 14 20 12 21 10 22 16 25 13 28
REMARK SMILES IDX 22 31 23 32 24 33 25 36 26 37 27 38 28 39 29 40 30 41 36 42
REMARK SMILES IDX 32 43 35 44 33 45 31 46 37 49 34 52
REMARK H PARENT 1 10 3 11 10 23 10 24 16 26 16 27 13 29 13 30 23 34 24 35
REMARK H PARENT 31 47 31 48 37 50 37 51 34 53 34 54
ROOT
ATOM      1  C   UNL     1      34.125  16.127 -19.633  1.00  0.00     0.017 A 
ATOM      2  C   UNL     1      34.283  17.002 -20.717  1.00  0.00     0.012 A 
ATOM      3  C   UNL     1      34.564  16.503 -21.989  1.00  0.00     0.002 A 
ATOM      4  C   UNL     1      34.724  15.131 -22.176  1.00  0.00     0.012 A 
ATOM      5  C   UNL     1      34.612  14.255 -21.089  1.00  0.00     0.017 A 
ATOM      6  C   UNL     1      34.275  14.749 -19.825  1.00  0.00     0.023 A 
ENDROOT
BRANCH   1   7
ATOM      7  C   UNL     1      33.864  16.673 -18.262  1.00  0.00     0.125 C 
ATOM      8  N   UNL     1      33.233  15.966 -17.374  1.00  0.00    -0.284 NA
ATOM      9  N   UNL     1      34.327  17.924 -17.939  1.00  0.00    -0.370 N 
ATOM     10  H   UNL     1      32.983  15.039 -17.724  1.00  0.00     0.189 HD
ATOM     11  H   UNL     1      34.834  18.452 -18.638  1.00  0.00     0.162 HD
BRANCH   9  12
ATOM     12  C   UNL     1      34.480  18.405 -16.575  1.00  0.00     0.114 C 
BRANCH  12  13
ATOM     13  C   UNL     1      34.398  19.931 -16.488  1.00  0.00     0.022 C 
BRANCH  13  14
ATOM     14  C   UNL     1      34.372  20.454 -15.050  1.00  0.00     0.007 C 
BRANCH  14  15
ATOM     15  C   UNL     1      32.987  20.996 -14.678  1.00  0.00     0.043 C 
BRANCH  15  16
ATOM     16  C   UNL     1      33.032  21.791 -13.400  1.00  0.00     0.037 A 
ATOM     17  C   UNL     1      33.276  23.154 -13.371  1.00  0.00     0.134 A 
ATOM     18  C   UNL     1      32.909  21.195 -12.152  1.00  0.00     0.134 A 
ATOM     19  N   UNL     1      33.395  23.853 -12.236  1.00  0.00    -0.196 NA
ATOM     20  N   UNL     1      33.044  21.867 -11.002  1.00  0.00    -0.196 NA
ATOM     21  C   UNL     1      33.263  23.177 -11.095  1.00  0.00     0.223 A 
BRANCH  17  22
ATOM     22  N   UNL     1      33.449  23.902 -14.539  1.00  0.00    -0.383 N 
ATOM     23  H   UNL     1      33.991  24.739 -14.358  1.00  0.00     0.158 HD
ATOM     24  H   UNL     1      33.921  23.294 -15.207  1.00  0.00     0.158 HD
ENDBRANCH  17  22
BRANCH  18  25
ATOM     25  N   UNL     1      32.674  19.821 -12.011  1.00  0.00    -0.383 N 
ATOM     26  H   UNL     1      33.559  19.346 -12.176  1.00  0.00     0.158 HD
ATOM     27  H   UNL     1      32.336  19.592 -11.078  1.00  0.00     0.158 HD
ENDBRANCH  18  25
BRANCH  21  28
ATOM     28  N   UNL     1      33.411  23.891  -9.920  1.00  0.00    -0.368 N 
ATOM     29  H   UNL     1      32.505  24.059  -9.510  1.00  0.00     0.159 HD
ATOM     30  H   UNL     1      34.103  23.437  -9.344  1.00  0.00     0.159 HD
ENDBRANCH  21  28
ENDBRANCH  15  16
ENDBRANCH  14  15
ENDBRANCH  13  14
ENDBRANCH  12  13
ENDBRANCH   9  12
ENDBRANCH   1   7
BRANCH   5  31
ATOM     31  C   UNL     1      34.907  12.799 -21.289  1.00  0.00     0.125 C 
ATOM     32  N   UNL     1      34.053  12.102 -21.965  1.00  0.00    -0.284 NA
ATOM     33  N   UNL     1      36.077  12.280 -20.786  1.00  0.00    -0.370 N 
ATOM     34  H   UNL     1      34.351  11.130 -22.028  1.00  0.00     0.189 HD
ATOM     35  H   UNL     1      36.790  12.943 -20.496  1.00  0.00     0.162 HD
BRANCH  33  36
ATOM     36  C   UNL     1      36.530  10.911 -20.875  1.00  0.00     0.114 C 
BRANCH  36  37
ATOM     37  C   UNL     1      36.764  10.298 -19.494  1.00  0.00     0.022 C 
BRANCH  37  38
ATOM     38  C   UNL     1      35.714  10.693 -18.443  1.00  0.00     0.007 C 
BRANCH  38  39
ATOM     39  C   UNL     1      34.572   9.684 -18.246  1.00  0.00     0.043 C 
BRANCH  39  40
ATOM     40  C   UNL     1      33.534   9.641 -19.336  1.00  0.00     0.037 A 
ATOM     41  C   UNL     1      32.452  10.510 -19.369  1.00  0.00     0.134 A 
ATOM     42  C   UNL     1      33.540   8.685 -20.347  1.00  0.00     0.134 A 
ATOM     43  N   UNL     1      31.484  10.443 -20.293  1.00  0.00    -0.196 NA
ATOM     44  N   UNL     1      32.594   8.624 -21.291  1.00  0.00    -0.196 NA
ATOM     45  C   UNL     1      31.587   9.488 -21.212  1.00  0.00     0.223 A 
BRANCH  41  46
ATOM     46  N   UNL     1      32.277  11.514 -18.416  1.00  0.00    -0.383 N 
ATOM     47  H   UNL     1      32.116  11.045 -17.526  1.00  0.00     0.158 HD
ATOM     48  H   UNL     1      31.487  12.115 -18.637  1.00  0.00     0.158 HD
ENDBRANCH  41  46
BRANCH  42  49
ATOM     49  N   UNL     1      34.505   7.673 -20.410  1.00  0.00    -0.383 N 
ATOM     50  H   UNL     1      34.882   7.493 -19.484  1.00  0.00     0.158 HD
ATOM     51  H   UNL     1      35.266   7.909 -21.032  1.00  0.00     0.158 HD
ENDBRANCH  42  49
BRANCH  45  52
ATOM     52  N   UNL     1      30.611   9.417 -22.190  1.00  0.00    -0.368 N 
ATOM     53  H   UNL     1      30.521  10.323 -22.648  1.00  0.00     0.159 HD
ATOM     54  H   UNL     1      30.859   8.660 -22.826  1.00  0.00     0.159 HD
ENDBRANCH  45  52
ENDBRANCH  39  40
ENDBRANCH  38  39
ENDBRANCH  37  38
ENDBRANCH  36  37
ENDBRANCH  33  36
ENDBRANCH   5  31
TORSDOF 18
ENDMDL
