MODEL 1
REMARK VINA RESULT:      -7.7      0.000      0.000
REMARK SMILES CN1CCC(=C2c3ccccc3C=Cc3ccccc32)CC1
REMARK SMILES IDX 1 1 2 2 3 3 4 4 5 5 6 6 7 7 8 8 9 9 10 10 11 11 12 12 13 13
REMARK SMILES IDX 14 14 15 15 16 16 17 17 18 18 19 19 20 20 21 21 22 22
REMARK H PARENT
ROOT
ATOM      1  C   UNL     1      21.409  24.768  -5.699  1.00  0.00     0.105 C 
ATOM      2  N   UNL     1      22.005  23.442  -5.819  1.00  0.00    -0.306 NA
ATOM      3  C   UNL     1      22.955  23.166  -4.742  1.00  0.00     0.088 C 
ATOM      4  C   UNL     1      23.435  21.701  -4.791  1.00  0.00     0.047 C 
ATOM      5  C   UNL     1      23.843  21.227  -6.183  1.00  0.00    -0.059 C 
ATOM      6  C   UNL     1      24.064  19.920  -6.491  1.00  0.00    -0.011 C 
ATOM      7  C   UNL     1      24.359  19.496  -7.883  1.00  0.00    -0.011 A 
ATOM      8  C   UNL     1      25.585  19.843  -8.476  1.00  0.00     0.009 A 
ATOM      9  C   UNL     1      25.878  19.445  -9.780  1.00  0.00     0.001 A 
ATOM     10  C   UNL     1      24.955  18.689 -10.497  1.00  0.00     0.001 A 
ATOM     11  C   UNL     1      23.745  18.319  -9.908  1.00  0.00     0.009 A 
ATOM     12  C   UNL     1      23.440  18.696  -8.590  1.00  0.00    -0.018 A 
ATOM     13  C   UNL     1      22.142  18.269  -8.030  1.00  0.00     0.009 C 
ATOM     14  C   UNL     1      21.881  17.933  -6.754  1.00  0.00     0.009 C 
ATOM     15  C   UNL     1      22.830  17.914  -5.625  1.00  0.00    -0.018 A 
ATOM     16  C   UNL     1      22.657  16.929  -4.639  1.00  0.00     0.009 A 
ATOM     17  C   UNL     1      23.520  16.854  -3.542  1.00  0.00     0.001 A 
ATOM     18  C   UNL     1      24.565  17.764  -3.415  1.00  0.00     0.001 A 
ATOM     19  C   UNL     1      24.741  18.759  -4.376  1.00  0.00     0.009 A 
ATOM     20  C   UNL     1      23.866  18.858  -5.469  1.00  0.00    -0.011 A 
ATOM     21  C   UNL     1      23.879  22.370  -7.181  1.00  0.00     0.047 C 
ATOM     22  C   UNL     1      22.596  23.228  -7.151  1.00  0.00     0.088 C 
ENDROOT
TORSDOF 0
ENDMDL
MODEL 2
REMARK VINA RESULT:      -7.7     17.488     20.400
REMARK SMILES CN1CCC(=C2c3ccccc3C=Cc3ccccc32)CC1
REMARK SMILES IDX 1 1 2 2 3 3 4 4 5 5 6 6 7 7 8 8 9 9 10 10 11 11 12 12 13 13
REMARK SMILES IDX 14 14 15 15 16 16 17 17 18 18 19 19 20 20 21 21 22 22
REMARK H PARENT
ROOT
ATOM      1  C   UNL     1      20.276   7.440 -27.636  1.00  0.00     0.105 C 
ATOM      2  N   UNL     1      20.879   8.348 -26.668  1.00  0.00    -0.306 NA
ATOM      3  C   UNL     1      21.980   7.721 -25.937  1.00  0.00     0.088 C 
ATOM      4  C   UNL     1      22.712   8.750 -25.051  1.00  0.00     0.047 C 
ATOM      5  C   UNL     1      21.779   9.634 -24.228  1.00  0.00    -0.059 C 
ATOM      6  C   UNL     1      22.197  10.752 -23.572  1.00  0.00    -0.011 C 
ATOM      7  C   UNL     1      21.235  11.637 -22.869  1.00  0.00    -0.011 A 
ATOM      8  C   UNL     1      20.597  11.189 -21.700  1.00  0.00     0.009 A 
ATOM      9  C   UNL     1      19.697  12.013 -21.025  1.00  0.00     0.001 A 
ATOM     10  C   UNL     1      19.435  13.293 -21.505  1.00  0.00     0.001 A 
ATOM     11  C   UNL     1      20.084  13.756 -22.653  1.00  0.00     0.009 A 
ATOM     12  C   UNL     1      21.005  12.946 -23.336  1.00  0.00    -0.018 A 
ATOM     13  C   UNL     1      21.654  13.500 -24.540  1.00  0.00     0.009 C 
ATOM     14  C   UNL     1      22.909  13.269 -24.964  1.00  0.00     0.009 C 
ATOM     15  C   UNL     1      23.924  12.411 -24.322  1.00  0.00    -0.018 A 
ATOM     16  C   UNL     1      25.268  12.806 -24.410  1.00  0.00     0.009 A 
ATOM     17  C   UNL     1      26.280  12.040 -23.825  1.00  0.00     0.001 A 
ATOM     18  C   UNL     1      25.962  10.868 -23.147  1.00  0.00     0.001 A 
ATOM     19  C   UNL     1      24.633  10.451 -23.064  1.00  0.00     0.009 A 
ATOM     20  C   UNL     1      23.612  11.201 -23.668  1.00  0.00    -0.011 A 
ATOM     21  C   UNL     1      20.338   9.167 -24.311  1.00  0.00     0.047 C 
ATOM     22  C   UNL     1      19.871   8.928 -25.763  1.00  0.00     0.088 C 
ENDROOT
TORSDOF 0
ENDMDL
MODEL 3
REMARK VINA RESULT:      -7.2      1.542      1.787
REMARK SMILES CN1CCC(=C2c3ccccc3C=Cc3ccccc32)CC1
REMARK SMILES IDX 1 1 2 2 3 3 4 4 5 5 6 6 7 7 8 8 9 9 10 10 11 11 12 12 13 13
REMARK SMILES IDX 14 14 15 15 16 16 17 17 18 18 19 19 20 20 21 21 22 22
REMARK H PARENT
ROOT
ATOM      1  C   UNL     1      23.219  26.021  -7.267  1.00  0.00     0.105 C 
ATOM      2  N   UNL     1      23.615  24.628  -7.099  1.00  0.00    -0.306 NA
ATOM      3  C   UNL     1      24.796  24.490  -6.248  1.00  0.00     0.088 C 
ATOM      4  C   UNL     1      25.088  23.006  -5.943  1.00  0.00     0.047 C 
ATOM      5  C   UNL     1      25.036  22.099  -7.169  1.00  0.00    -0.059 C 
ATOM      6  C   UNL     1      25.023  20.740  -7.090  1.00  0.00    -0.011 C 
ATOM      7  C   UNL     1      24.870  19.901  -8.305  1.00  0.00    -0.011 A 
ATOM      8  C   UNL     1      25.908  19.837  -9.250  1.00  0.00     0.009 A 
ATOM      9  C   UNL     1      25.779  19.047 -10.391  1.00  0.00     0.001 A 
ATOM     10  C   UNL     1      24.618  18.305 -10.592  1.00  0.00     0.001 A 
ATOM     11  C   UNL     1      23.591  18.343  -9.647  1.00  0.00     0.009 A 
ATOM     12  C   UNL     1      23.710  19.120  -8.484  1.00  0.00    -0.018 A 
ATOM     13  C   UNL     1      22.586  19.112  -7.528  1.00  0.00     0.009 C 
ATOM     14  C   UNL     1      22.661  19.197  -6.187  1.00  0.00     0.009 C 
ATOM     15  C   UNL     1      23.882  19.316  -5.368  1.00  0.00    -0.018 A 
ATOM     16  C   UNL     1      23.893  18.693  -4.110  1.00  0.00     0.009 A 
ATOM     17  C   UNL     1      25.016  18.766  -3.283  1.00  0.00     0.001 A 
ATOM     18  C   UNL     1      26.144  19.467  -3.701  1.00  0.00     0.001 A 
ATOM     19  C   UNL     1      26.145  20.107  -4.940  1.00  0.00     0.009 A 
ATOM     20  C   UNL     1      25.012  20.058  -5.769  1.00  0.00    -0.011 A 
ATOM     21  C   UNL     1      24.908  22.894  -8.455  1.00  0.00     0.047 C 
ATOM     22  C   UNL     1      23.782  23.948  -8.395  1.00  0.00     0.088 C 
ENDROOT
TORSDOF 0
ENDMDL
