MODEL 1
REMARK VINA RESULT:      -7.4      0.000      0.000
REMARK SMILES Nc1nc(N)c2c(N)c(N)ccc2n1
REMARK SMILES IDX 2 1 3 2 4 3 6 4 7 5 9 6 11 7 12 8 13 9 14 10 1 11 5 14 8 17
REMARK SMILES IDX 10 20
REMARK H PARENT 1 12 1 13 5 15 5 16 8 18 8 19 10 21 10 22
ROOT
ATOM      1  C   UNL     1      22.724  18.402  -8.846  1.00  0.00     0.222 A 
ATOM      2  N   UNL     1      22.251  17.447  -9.634  1.00  0.00    -0.196 NA
ATOM      3  C   UNL     1      23.000  17.090 -10.688  1.00  0.00     0.139 A 
ATOM      4  C   UNL     1      24.250  17.676 -10.996  1.00  0.00     0.068 A 
ATOM      5  C   UNL     1      25.149  17.370 -12.077  1.00  0.00     0.068 A 
ATOM      6  C   UNL     1      26.314  18.150 -12.274  1.00  0.00     0.056 A 
ATOM      7  C   UNL     1      26.658  19.114 -11.338  1.00  0.00     0.030 A 
ATOM      8  C   UNL     1      25.804  19.374 -10.269  1.00  0.00     0.031 A 
ATOM      9  C   UNL     1      24.612  18.687 -10.091  1.00  0.00     0.080 A 
ATOM     10  N   UNL     1      23.868  19.050  -9.044  1.00  0.00    -0.213 NA
ENDROOT
BRANCH   1  11
ATOM     11  N   UNL     1      21.952  18.784  -7.769  1.00  0.00    -0.368 N 
ATOM     12  H   UNL     1      21.863  18.007  -7.128  1.00  0.00     0.159 HD
ATOM     13  H   UNL     1      21.103  19.224  -8.092  1.00  0.00     0.159 HD
ENDBRANCH   1  11
BRANCH   3  14
ATOM     14  N   UNL     1      22.455  16.038 -11.440  1.00  0.00    -0.383 N 
ATOM     15  H   UNL     1      22.958  15.955 -12.318  1.00  0.00     0.158 HD
ATOM     16  H   UNL     1      21.465  16.190 -11.590  1.00  0.00     0.158 HD
ENDBRANCH   3  14
BRANCH   5  17
ATOM     17  N   UNL     1      24.816  16.473 -13.139  1.00  0.00    -0.396 N 
ATOM     18  H   UNL     1      25.626  15.996 -13.513  1.00  0.00     0.156 HD
ATOM     19  H   UNL     1      24.109  15.811 -12.825  1.00  0.00     0.156 HD
ENDBRANCH   5  17
BRANCH   6  20
ATOM     20  N   UNL     1      27.219  17.806 -13.292  1.00  0.00    -0.397 N 
ATOM     21  H   UNL     1      26.913  16.964 -13.778  1.00  0.00     0.156 HD
ATOM     22  H   UNL     1      27.487  18.569 -13.901  1.00  0.00     0.156 HD
ENDBRANCH   6  20
TORSDOF 4
ENDMDL
MODEL 2
REMARK VINA RESULT:      -6.6      1.266      4.212
REMARK SMILES Nc1nc(N)c2c(N)c(N)ccc2n1
REMARK SMILES IDX 2 1 3 2 4 3 6 4 7 5 9 6 11 7 12 8 13 9 14 10 1 11 5 14 8 17
REMARK SMILES IDX 10 20
REMARK H PARENT 1 12 1 13 5 15 5 16 8 18 8 19 10 21 10 22
ROOT
ATOM      1  C   UNL     1      26.776  18.919 -11.876  1.00  0.00     0.222 A 
ATOM      2  N   UNL     1      26.134  17.983 -12.561  1.00  0.00    -0.196 NA
ATOM      3  C   UNL     1      24.972  17.540 -12.060  1.00  0.00     0.139 A 
ATOM      4  C   UNL     1      24.407  18.015 -10.854  1.00  0.00     0.068 A 
ATOM      5  C   UNL     1      23.168  17.637 -10.226  1.00  0.00     0.068 A 
ATOM      6  C   UNL     1      22.829  18.158  -8.954  1.00  0.00     0.056 A 
ATOM      7  C   UNL     1      23.622  19.141  -8.383  1.00  0.00     0.030 A 
ATOM      8  C   UNL     1      24.798  19.533  -9.018  1.00  0.00     0.031 A 
ATOM      9  C   UNL     1      25.206  18.984 -10.225  1.00  0.00     0.080 A 
ATOM     10  N   UNL     1      26.367  19.423 -10.716  1.00  0.00    -0.213 NA
ENDROOT
BRANCH   1  11
ATOM     11  N   UNL     1      27.980  19.367 -12.377  1.00  0.00    -0.368 N 
ATOM     12  H   UNL     1      28.721  19.126 -11.733  1.00  0.00     0.159 HD
ATOM     13  H   UNL     1      27.899  20.334 -12.658  1.00  0.00     0.159 HD
ENDBRANCH   1  11
BRANCH   3  14
ATOM     14  N   UNL     1      24.330  16.591 -12.870  1.00  0.00    -0.383 N 
ATOM     15  H   UNL     1      25.003  15.894 -13.170  1.00  0.00     0.158 HD
ATOM     16  H   UNL     1      23.885  17.046 -13.658  1.00  0.00     0.158 HD
ENDBRANCH   3  14
BRANCH   5  17
ATOM     17  N   UNL     1      22.355  16.558 -10.692  1.00  0.00    -0.396 N 
ATOM     18  H   UNL     1      22.808  15.658 -10.593  1.00  0.00     0.156 HD
ATOM     19  H   UNL     1      21.454  16.571 -10.218  1.00  0.00     0.156 HD
ENDBRANCH   5  17
BRANCH   6  20
ATOM     20  N   UNL     1      21.589  17.834  -8.378  1.00  0.00    -0.397 N 
ATOM     21  H   UNL     1      20.897  17.629  -9.097  1.00  0.00     0.156 HD
ATOM     22  H   UNL     1      21.631  17.153  -7.629  1.00  0.00     0.156 HD
ENDBRANCH   6  20
TORSDOF 4
ENDMDL
MODEL 3
REMARK VINA RESULT:      -6.4      1.109      4.184
REMARK SMILES Nc1nc(N)c2c(N)c(N)ccc2n1
REMARK SMILES IDX 2 1 3 2 4 3 6 4 7 5 9 6 11 7 12 8 13 9 14 10 1 11 5 14 8 17
REMARK SMILES IDX 10 20
REMARK H PARENT 1 12 1 13 5 15 5 16 8 18 8 19 10 21 10 22
ROOT
ATOM      1  C   UNL     1      26.002  17.600 -12.407  1.00  0.00     0.222 A 
ATOM      2  N   UNL     1      24.879  16.899 -12.461  1.00  0.00    -0.196 NA
ATOM      3  C   UNL     1      23.969  17.115 -11.499  1.00  0.00     0.139 A 
ATOM      4  C   UNL     1      24.148  18.041 -10.446  1.00  0.00     0.068 A 
ATOM      5  C   UNL     1      23.248  18.375  -9.374  1.00  0.00     0.068 A 
ATOM      6  C   UNL     1      23.661  19.260  -8.350  1.00  0.00     0.056 A 
ATOM      7  C   UNL     1      24.879  19.914  -8.459  1.00  0.00     0.030 A 
ATOM      8  C   UNL     1      25.727  19.617  -9.524  1.00  0.00     0.031 A 
ATOM      9  C   UNL     1      25.392  18.693 -10.502  1.00  0.00     0.080 A 
ATOM     10  N   UNL     1      26.303  18.476 -11.452  1.00  0.00    -0.213 NA
ENDROOT
BRANCH   1  11
ATOM     11  N   UNL     1      26.948  17.370 -13.383  1.00  0.00    -0.368 N 
ATOM     12  H   UNL     1      26.946  16.389 -13.627  1.00  0.00     0.159 HD
ATOM     13  H   UNL     1      27.829  17.785 -13.115  1.00  0.00     0.159 HD
ENDBRANCH   1  11
BRANCH   3  14
ATOM     14  N   UNL     1      22.789  16.374 -11.659  1.00  0.00    -0.383 N 
ATOM     15  H   UNL     1      22.726  15.677 -10.924  1.00  0.00     0.158 HD
ATOM     16  H   UNL     1      22.761  15.952 -12.579  1.00  0.00     0.158 HD
ENDBRANCH   3  14
BRANCH   5  17
ATOM     17  N   UNL     1      22.029  17.670  -9.131  1.00  0.00    -0.396 N 
ATOM     18  H   UNL     1      21.541  18.008  -8.311  1.00  0.00     0.156 HD
ATOM     19  H   UNL     1      21.434  17.709  -9.956  1.00  0.00     0.156 HD
ENDBRANCH   5  17
BRANCH   6  20
ATOM     20  N   UNL     1      22.754  19.631  -7.342  1.00  0.00    -0.397 N 
ATOM     21  H   UNL     1      21.946  19.011  -7.337  1.00  0.00     0.156 HD
ATOM     22  H   UNL     1      23.169  19.791  -6.432  1.00  0.00     0.156 HD
ENDBRANCH   6  20
TORSDOF 4
ENDMDL
