MODEL 1
REMARK VINA RESULT:      -7.2      0.000      0.000
REMARK SMILES CN(C)CCCNc1nc2cc([N+](=O)[O-])ccc2nc1NCc1ccc(NC(=O)CCCC[C@H]2SCC3NC(=O)NC32)cc1
REMARK SMILES IDX 22 1 21 2 20 4 8 5 9 6 10 7 19 8 11 9 18 10 12 11 17 12
REMARK SMILES IDX 16 13 7 14 6 16 5 17 4 18 2 19 1 20 3 21 13 22 14 23 15 24
REMARK SMILES IDX 23 25 24 26 44 27 25 28 43 29 26 30 27 31 28 32 29 33 30 35
REMARK SMILES IDX 31 36 32 37 33 38 34 39 35 40 42 41 36 42 41 43 37 44 39 45
REMARK SMILES IDX 38 46 40 47
REMARK H PARENT 21 3 7 15 27 34 41 48 38 49
ROOT
ATOM      1  C   UNL     1      25.254  23.442  -7.234  1.00  0.00     0.150 C 
ENDROOT
BRANCH   1   2
ATOM      2  N   UNL     1      25.887  22.144  -7.044  1.00  0.00    -0.363 N 
ATOM      3  H   UNL     1      26.876  22.142  -7.257  1.00  0.00     0.162 HD
BRANCH   2   4
ATOM      4  C   UNL     1      25.259  21.036  -7.653  1.00  0.00     0.170 A 
ATOM      5  C   UNL     1      24.029  20.541  -7.133  1.00  0.00     0.169 A 
ATOM      6  N   UNL     1      23.361  19.546  -7.759  1.00  0.00    -0.225 NA
ATOM      7  C   UNL     1      23.877  19.070  -8.901  1.00  0.00     0.098 A 
ATOM      8  N   UNL     1      25.807  20.494  -8.766  1.00  0.00    -0.226 NA
ATOM      9  C   UNL     1      23.177  18.099  -9.603  1.00  0.00     0.116 A 
ATOM     10  C   UNL     1      25.111  19.540  -9.402  1.00  0.00     0.092 A 
ATOM     11  C   UNL     1      23.680  17.594 -10.807  1.00  0.00     0.271 A 
ATOM     12  C   UNL     1      25.611  19.010 -10.587  1.00  0.00     0.038 A 
ATOM     13  C   UNL     1      24.908  18.040 -11.304  1.00  0.00     0.088 A 
BRANCH   5  14
ATOM     14  N   UNL     1      23.464  21.123  -5.967  1.00  0.00    -0.367 N 
ATOM     15  H   UNL     1      23.840  20.643  -5.162  1.00  0.00     0.162 HD
BRANCH  14  16
ATOM     16  C   UNL     1      22.000  21.171  -5.949  1.00  0.00     0.116 C 
BRANCH  16  17
ATOM     17  C   UNL     1      21.487  22.540  -5.489  1.00  0.00     0.037 C 
BRANCH  17  18
ATOM     18  C   UNL     1      21.587  23.558  -6.632  1.00  0.00     0.085 C 
BRANCH  18  19
ATOM     19  N   UNL     1      20.455  24.503  -6.707  1.00  0.00    -0.309 NA
ATOM     20  C   UNL     1      19.200  23.787  -6.457  1.00  0.00     0.104 C 
ATOM     21  C   UNL     1      20.384  25.172  -8.010  1.00  0.00     0.104 C 
ENDBRANCH  18  19
ENDBRANCH  17  18
ENDBRANCH  16  17
ENDBRANCH  14  16
ENDBRANCH   5  14
BRANCH  11  22
ATOM     22  N   UNL     1      22.900  16.612 -11.564  1.00  0.00     0.062 N 
ATOM     23  O   UNL     1      22.428  15.644 -10.947  1.00  0.00    -0.258 OA
ATOM     24  O   UNL     1      22.784  16.780 -12.786  1.00  0.00    -0.258 OA
ENDBRANCH  11  22
ENDBRANCH   2   4
ENDBRANCH   1   2
BRANCH   1  25
ATOM     25  C   UNL     1      26.081  24.338  -8.132  1.00  0.00    -0.029 A 
ATOM     26  C   UNL     1      26.486  25.608  -7.706  1.00  0.00     0.008 A 
ATOM     27  C   UNL     1      26.425  23.926  -9.425  1.00  0.00     0.008 A 
ATOM     28  C   UNL     1      27.191  26.455  -8.568  1.00  0.00     0.026 A 
ATOM     29  C   UNL     1      27.126  24.776 -10.288  1.00  0.00     0.026 A 
ATOM     30  C   UNL     1      27.501  26.054  -9.873  1.00  0.00     0.041 A 
BRANCH  30  31
ATOM     31  N   UNL     1      28.148  26.996 -10.703  1.00  0.00    -0.326 N 
ATOM     32  C   UNL     1      29.154  26.754 -11.620  1.00  0.00     0.224 C 
ATOM     33  O   UNL     1      29.742  25.692 -11.794  1.00  0.00    -0.275 OA
ATOM     34  H   UNL     1      27.771  27.935 -10.669  1.00  0.00     0.169 HD
BRANCH  32  35
ATOM     35  C   UNL     1      29.494  27.987 -12.450  1.00  0.00     0.100 C 
BRANCH  35  36
ATOM     36  C   UNL     1      30.404  27.647 -13.633  1.00  0.00     0.010 C 
BRANCH  36  37
ATOM     37  C   UNL     1      31.798  28.266 -13.472  1.00  0.00     0.002 C 
BRANCH  37  38
ATOM     38  C   UNL     1      32.672  27.458 -12.509  1.00  0.00     0.017 C 
BRANCH  38  39
ATOM     39  C   UNL     1      33.373  26.287 -13.200  1.00  0.00     0.071 C 
ATOM     40  S   UNL     1      35.218  26.542 -13.171  1.00  0.00    -0.154 SA
ATOM     41  C   UNL     1      33.260  24.949 -12.486  1.00  0.00     0.120 C 
ATOM     42  C   UNL     1      35.649  24.797 -12.756  1.00  0.00     0.097 C 
ATOM     43  N   UNL     1      32.137  24.068 -12.641  1.00  0.00    -0.332 N 
ATOM     44  C   UNL     1      34.362  24.093 -13.100  1.00  0.00     0.117 C 
ATOM     45  C   UNL     1      32.625  22.757 -12.504  1.00  0.00     0.315 C 
ATOM     46  N   UNL     1      34.025  22.803 -12.585  1.00  0.00    -0.332 N 
ATOM     47  O   UNL     1      31.955  21.758 -12.336  1.00  0.00    -0.249 OA
ATOM     48  H   UNL     1      31.215  24.229 -12.246  1.00  0.00     0.165 HD
ATOM     49  H   UNL     1      34.491  21.935 -12.827  1.00  0.00     0.165 HD
ENDBRANCH  38  39
ENDBRANCH  37  38
ENDBRANCH  36  37
ENDBRANCH  35  36
ENDBRANCH  32  35
ENDBRANCH  30  31
ENDBRANCH   1  25
TORSDOF 15
ENDMDL
MODEL 2
REMARK VINA RESULT:      -7.0      1.282      1.568
REMARK SMILES CN(C)CCCNc1nc2cc([N+](=O)[O-])ccc2nc1NCc1ccc(NC(=O)CCCC[C@H]2SCC3NC(=O)NC32)cc1
REMARK SMILES IDX 22 1 21 2 20 4 8 5 9 6 10 7 19 8 11 9 18 10 12 11 17 12
REMARK SMILES IDX 16 13 7 14 6 16 5 17 4 18 2 19 1 20 3 21 13 22 14 23 15 24
REMARK SMILES IDX 23 25 24 26 44 27 25 28 43 29 26 30 27 31 28 32 29 33 30 35
REMARK SMILES IDX 31 36 32 37 33 38 34 39 35 40 42 41 36 42 41 43 37 44 39 45
REMARK SMILES IDX 38 46 40 47
REMARK H PARENT 21 3 7 15 27 34 41 48 38 49
ROOT
ATOM      1  C   UNL     1      24.746  23.401  -7.102  1.00  0.00     0.150 C 
ENDROOT
BRANCH   1   2
ATOM      2  N   UNL     1      25.233  22.099  -6.666  1.00  0.00    -0.363 N 
ATOM      3  H   UNL     1      26.216  22.097  -6.423  1.00  0.00     0.162 HD
BRANCH   2   4
ATOM      4  C   UNL     1      24.939  20.999  -7.498  1.00  0.00     0.170 A 
ATOM      5  C   UNL     1      23.744  20.252  -7.294  1.00  0.00     0.169 A 
ATOM      6  N   UNL     1      23.393  19.257  -8.141  1.00  0.00    -0.225 NA
ATOM      7  C   UNL     1      24.188  19.026  -9.195  1.00  0.00     0.098 A 
ATOM      8  N   UNL     1      25.771  20.704  -8.525  1.00  0.00    -0.226 NA
ATOM      9  C   UNL     1      23.816  18.061 -10.120  1.00  0.00     0.116 A 
ATOM     10  C   UNL     1      25.388  19.746  -9.383  1.00  0.00     0.092 A 
ATOM     11  C   UNL     1      24.616  17.807 -11.240  1.00  0.00     0.271 A 
ATOM     12  C   UNL     1      26.185  19.466 -10.488  1.00  0.00     0.038 A 
ATOM     13  C   UNL     1      25.813  18.502 -11.427  1.00  0.00     0.088 A 
BRANCH   5  14
ATOM     14  N   UNL     1      22.877  20.576  -6.216  1.00  0.00    -0.367 N 
ATOM     15  H   UNL     1      22.928  19.829  -5.537  1.00  0.00     0.162 HD
BRANCH  14  16
ATOM     16  C   UNL     1      21.498  20.880  -6.604  1.00  0.00     0.116 C 
BRANCH  16  17
ATOM     17  C   UNL     1      21.163  22.358  -6.379  1.00  0.00     0.037 C 
BRANCH  17  18
ATOM     18  C   UNL     1      21.691  22.823  -5.015  1.00  0.00     0.085 C 
BRANCH  18  19
ATOM     19  N   UNL     1      20.648  22.993  -3.983  1.00  0.00    -0.309 NA
ATOM     20  C   UNL     1      20.717  21.883  -3.028  1.00  0.00     0.104 C 
ATOM     21  C   UNL     1      19.305  23.053  -4.565  1.00  0.00     0.104 C 
ENDBRANCH  18  19
ENDBRANCH  17  18
ENDBRANCH  16  17
ENDBRANCH  14  16
ENDBRANCH   5  14
BRANCH  11  22
ATOM     22  N   UNL     1      24.178  16.825 -12.236  1.00  0.00     0.062 N 
ATOM     23  O   UNL     1      25.039  16.094 -12.748  1.00  0.00    -0.258 OA
ATOM     24  O   UNL     1      22.977  16.804 -12.540  1.00  0.00    -0.258 OA
ENDBRANCH  11  22
ENDBRANCH   2   4
ENDBRANCH   1   2
BRANCH   1  25
ATOM     25  C   UNL     1      25.729  24.081  -8.032  1.00  0.00    -0.029 A 
ATOM     26  C   UNL     1      26.534  25.134  -7.584  1.00  0.00     0.008 A 
ATOM     27  C   UNL     1      25.825  23.691  -9.373  1.00  0.00     0.008 A 
ATOM     28  C   UNL     1      27.389  25.800  -8.468  1.00  0.00     0.026 A 
ATOM     29  C   UNL     1      26.678  24.361 -10.258  1.00  0.00     0.026 A 
ATOM     30  C   UNL     1      27.455  25.432  -9.817  1.00  0.00     0.041 A 
BRANCH  30  31
ATOM     31  N   UNL     1      28.288  26.203 -10.658  1.00  0.00    -0.326 N 
ATOM     32  C   UNL     1      28.512  27.566 -10.592  1.00  0.00     0.224 C 
ATOM     33  O   UNL     1      27.937  28.366  -9.861  1.00  0.00    -0.275 OA
ATOM     34  H   UNL     1      28.836  25.677 -11.326  1.00  0.00     0.169 HD
BRANCH  32  35
ATOM     35  C   UNL     1      29.599  28.024 -11.559  1.00  0.00     0.100 C 
BRANCH  35  36
ATOM     36  C   UNL     1      29.296  27.602 -12.999  1.00  0.00     0.010 C 
BRANCH  36  37
ATOM     37  C   UNL     1      30.480  27.886 -13.932  1.00  0.00     0.002 C 
BRANCH  37  38
ATOM     38  C   UNL     1      31.748  28.241 -13.151  1.00  0.00     0.017 C 
BRANCH  38  39
ATOM     39  C   UNL     1      32.853  27.197 -13.326  1.00  0.00     0.071 C 
ATOM     40  S   UNL     1      34.463  27.853 -12.655  1.00  0.00    -0.154 SA
ATOM     41  C   UNL     1      32.692  25.935 -12.494  1.00  0.00     0.120 C 
ATOM     42  C   UNL     1      34.980  26.289 -11.826  1.00  0.00     0.097 C 
ATOM     43  N   UNL     1      31.890  24.818 -12.907  1.00  0.00    -0.332 N 
ATOM     44  C   UNL     1      34.075  25.291 -12.502  1.00  0.00     0.117 C 
ATOM     45  C   UNL     1      32.497  23.663 -12.382  1.00  0.00     0.315 C 
ATOM     46  N   UNL     1      33.784  24.009 -11.942  1.00  0.00    -0.332 N 
ATOM     47  O   UNL     1      31.994  22.560 -12.311  1.00  0.00    -0.249 OA
ATOM     48  H   UNL     1      30.875  24.806 -12.916  1.00  0.00     0.165 HD
ATOM     49  H   UNL     1      34.446  23.247 -11.846  1.00  0.00     0.165 HD
ENDBRANCH  38  39
ENDBRANCH  37  38
ENDBRANCH  36  37
ENDBRANCH  35  36
ENDBRANCH  32  35
ENDBRANCH  30  31
ENDBRANCH   1  25
TORSDOF 15
ENDMDL
MODEL 3
REMARK VINA RESULT:      -7.0      2.239      2.810
REMARK SMILES CN(C)CCCNc1nc2cc([N+](=O)[O-])ccc2nc1NCc1ccc(NC(=O)CCCC[C@H]2SCC3NC(=O)NC32)cc1
REMARK SMILES IDX 22 1 21 2 20 4 8 5 9 6 10 7 19 8 11 9 18 10 12 11 17 12
REMARK SMILES IDX 16 13 7 14 6 16 5 17 4 18 2 19 1 20 3 21 13 22 14 23 15 24
REMARK SMILES IDX 23 25 24 26 44 27 25 28 43 29 26 30 27 31 28 32 29 33 30 35
REMARK SMILES IDX 31 36 32 37 33 38 34 39 35 40 42 41 36 42 41 43 37 44 39 45
REMARK SMILES IDX 38 46 40 47
REMARK H PARENT 21 3 7 15 27 34 41 48 38 49
ROOT
ATOM      1  C   UNL     1      24.499  23.239  -6.972  1.00  0.00     0.150 C 
ENDROOT
BRANCH   1   2
ATOM      2  N   UNL     1      24.926  21.923  -6.512  1.00  0.00    -0.363 N 
ATOM      3  H   UNL     1      25.864  21.913  -6.134  1.00  0.00     0.162 HD
BRANCH   2   4
ATOM      4  C   UNL     1      24.754  20.850  -7.412  1.00  0.00     0.170 A 
ATOM      5  C   UNL     1      23.659  19.953  -7.249  1.00  0.00     0.169 A 
ATOM      6  N   UNL     1      23.420  18.979  -8.156  1.00  0.00    -0.225 NA
ATOM      7  C   UNL     1      24.224  18.911  -9.227  1.00  0.00     0.098 A 
ATOM      8  N   UNL     1      25.603  20.722  -8.459  1.00  0.00    -0.226 NA
ATOM      9  C   UNL     1      23.958  17.968 -10.209  1.00  0.00     0.116 A 
ATOM     10  C   UNL     1      25.326  19.781  -9.375  1.00  0.00     0.092 A 
ATOM     11  C   UNL     1      24.768  17.883 -11.347  1.00  0.00     0.271 A 
ATOM     12  C   UNL     1      26.137  19.668 -10.499  1.00  0.00     0.038 A 
ATOM     13  C   UNL     1      25.871  18.728 -11.496  1.00  0.00     0.088 A 
BRANCH   5  14
ATOM     14  N   UNL     1      22.774  20.103  -6.149  1.00  0.00    -0.367 N 
ATOM     15  H   UNL     1      23.257  20.619  -5.425  1.00  0.00     0.162 HD
BRANCH  14  16
ATOM     16  C   UNL     1      22.197  18.854  -5.647  1.00  0.00     0.116 C 
BRANCH  16  17
ATOM     17  C   UNL     1      21.523  19.054  -4.285  1.00  0.00     0.037 C 
BRANCH  17  18
ATOM     18  C   UNL     1      22.545  19.547  -3.252  1.00  0.00     0.085 C 
BRANCH  18  19
ATOM     19  N   UNL     1      22.307  20.922  -2.768  1.00  0.00    -0.309 NA
ATOM     20  C   UNL     1      20.993  21.383  -3.225  1.00  0.00     0.104 C 
ATOM     21  C   UNL     1      23.340  21.853  -3.232  1.00  0.00     0.104 C 
ENDBRANCH  18  19
ENDBRANCH  17  18
ENDBRANCH  16  17
ENDBRANCH  14  16
ENDBRANCH   5  14
BRANCH  11  22
ATOM     22  N   UNL     1      24.438  16.920 -12.401  1.00  0.00     0.062 N 
ATOM     23  O   UNL     1      23.272  16.897 -12.823  1.00  0.00    -0.258 OA
ATOM     24  O   UNL     1      25.333  16.155 -12.788  1.00  0.00    -0.258 OA
ENDBRANCH  11  22
ENDBRANCH   2   4
ENDBRANCH   1   2
BRANCH   1  25
ATOM     25  C   UNL     1      25.486  23.832  -7.954  1.00  0.00    -0.029 A 
ATOM     26  C   UNL     1      25.264  23.754  -9.334  1.00  0.00     0.008 A 
ATOM     27  C   UNL     1      26.662  24.441  -7.501  1.00  0.00     0.008 A 
ATOM     28  C   UNL     1      26.215  24.244 -10.235  1.00  0.00     0.026 A 
ATOM     29  C   UNL     1      27.615  24.927  -8.404  1.00  0.00     0.026 A 
ATOM     30  C   UNL     1      27.408  24.818  -9.778  1.00  0.00     0.041 A 
BRANCH  30  31
ATOM     31  N   UNL     1      28.346  25.220 -10.754  1.00  0.00    -0.326 N 
ATOM     32  C   UNL     1      28.709  26.513 -11.085  1.00  0.00     0.224 C 
ATOM     33  O   UNL     1      28.194  27.544 -10.668  1.00  0.00    -0.275 OA
ATOM     34  H   UNL     1      28.861  24.469 -11.197  1.00  0.00     0.169 HD
BRANCH  32  35
ATOM     35  C   UNL     1      29.872  26.556 -12.071  1.00  0.00     0.100 C 
BRANCH  35  36
ATOM     36  C   UNL     1      29.925  27.882 -12.834  1.00  0.00     0.010 C 
BRANCH  36  37
ATOM     37  C   UNL     1      31.206  28.002 -13.670  1.00  0.00     0.002 C 
BRANCH  37  38
ATOM     38  C   UNL     1      32.151  26.820 -13.438  1.00  0.00     0.017 C 
BRANCH  38  39
ATOM     39  C   UNL     1      33.512  27.258 -12.894  1.00  0.00     0.071 C 
ATOM     40  S   UNL     1      33.479  29.077 -12.487  1.00  0.00    -0.154 SA
ATOM     41  C   UNL     1      33.891  26.672 -11.544  1.00  0.00     0.120 C 
ATOM     42  C   UNL     1      34.402  28.936 -10.896  1.00  0.00     0.097 C 
ATOM     43  N   UNL     1      34.505  25.383 -11.392  1.00  0.00    -0.332 N 
ATOM     44  C   UNL     1      35.018  27.568 -11.040  1.00  0.00     0.117 C 
ATOM     45  C   UNL     1      35.340  25.459 -10.263  1.00  0.00     0.315 C 
ATOM     46  N   UNL     1      35.490  26.812  -9.923  1.00  0.00    -0.332 N 
ATOM     47  O   UNL     1      35.837  24.519  -9.677  1.00  0.00    -0.249 OA
ATOM     48  H   UNL     1      34.027  24.496 -11.516  1.00  0.00     0.165 HD
ATOM     49  H   UNL     1      36.298  27.046  -9.356  1.00  0.00     0.165 HD
ENDBRANCH  38  39
ENDBRANCH  37  38
ENDBRANCH  36  37
ENDBRANCH  35  36
ENDBRANCH  32  35
ENDBRANCH  30  31
ENDBRANCH   1  25
TORSDOF 15
ENDMDL
