MODEL 1
REMARK VINA RESULT:      -6.8      0.000      0.000
REMARK SMILES COc1ccc2c(c1)[nH]c1c(C)nccc12
REMARK SMILES IDX 3 1 4 2 5 3 6 4 7 5 8 6 9 7 10 8 11 9 12 10 13 11 14 12
REMARK SMILES IDX 15 13 16 14 2 16 1 17
REMARK H PARENT 9 15
ROOT
ATOM      1  C   UNL     1      26.038  18.013 -12.194  1.00  0.00     0.120 A 
ATOM      2  C   UNL     1      24.963  17.128 -12.290  1.00  0.00     0.047 A 
ATOM      3  C   UNL     1      23.946  17.109 -11.327  1.00  0.00     0.015 A 
ATOM      4  C   UNL     1      24.010  18.003 -10.241  1.00  0.00     0.008 A 
ATOM      5  C   UNL     1      25.092  18.877 -10.165  1.00  0.00     0.050 A 
ATOM      6  C   UNL     1      26.120  18.907 -11.121  1.00  0.00     0.073 A 
ATOM      7  N   UNL     1      24.918  19.631  -9.027  1.00  0.00    -0.353 N 
ATOM      8  C   UNL     1      23.765  19.274  -8.367  1.00  0.00     0.068 A 
ATOM      9  C   UNL     1      23.206  19.772  -7.184  1.00  0.00     0.061 A 
ATOM     10  C   UNL     1      23.807  20.866  -6.361  1.00  0.00     0.069 C 
ATOM     11  N   UNL     1      22.036  19.223  -6.758  1.00  0.00    -0.259 NA
ATOM     12  C   UNL     1      21.459  18.232  -7.472  1.00  0.00     0.112 A 
ATOM     13  C   UNL     1      21.970  17.704  -8.645  1.00  0.00     0.031 A 
ATOM     14  C   UNL     1      23.174  18.253  -9.107  1.00  0.00     0.011 A 
ATOM     15  H   UNL     1      25.555  20.350  -8.718  1.00  0.00     0.167 HD
ENDROOT
BRANCH   1  16
ATOM     16  O   UNL     1      26.948  17.906 -13.213  1.00  0.00    -0.497 OA
ATOM     17  C   UNL     1      27.555  19.110 -13.664  1.00  0.00     0.278 C 
ENDBRANCH   1  16
TORSDOF 1
ENDMDL
MODEL 2
REMARK VINA RESULT:      -6.6      1.045      1.204
REMARK SMILES COc1ccc2c(c1)[nH]c1c(C)nccc12
REMARK SMILES IDX 3 1 4 2 5 3 6 4 7 5 8 6 9 7 10 8 11 9 12 10 13 11 14 12
REMARK SMILES IDX 15 13 16 14 2 16 1 17
REMARK H PARENT 9 15
ROOT
ATOM      1  C   UNL     1      26.030  18.108 -11.938  1.00  0.00     0.120 A 
ATOM      2  C   UNL     1      24.805  17.445 -11.867  1.00  0.00     0.047 A 
ATOM      3  C   UNL     1      23.917  17.667 -10.805  1.00  0.00     0.015 A 
ATOM      4  C   UNL     1      24.270  18.577  -9.791  1.00  0.00     0.008 A 
ATOM      5  C   UNL     1      25.499  19.228  -9.883  1.00  0.00     0.050 A 
ATOM      6  C   UNL     1      26.400  19.016 -10.939  1.00  0.00     0.073 A 
ATOM      7  N   UNL     1      25.599  20.049  -8.784  1.00  0.00    -0.353 N 
ATOM      8  C   UNL     1      24.482  19.952  -7.987  1.00  0.00     0.068 A 
ATOM      9  C   UNL     1      24.163  20.600  -6.788  1.00  0.00     0.061 A 
ATOM     10  C   UNL     1      25.048  21.591  -6.103  1.00  0.00     0.069 C 
ATOM     11  N   UNL     1      22.966  20.308  -6.210  1.00  0.00    -0.259 NA
ATOM     12  C   UNL     1      22.136  19.417  -6.797  1.00  0.00     0.112 A 
ATOM     13  C   UNL     1      22.403  18.750  -7.979  1.00  0.00     0.031 A 
ATOM     14  C   UNL     1      23.629  19.034  -8.596  1.00  0.00     0.011 A 
ATOM     15  H   UNL     1      26.391  20.644  -8.589  1.00  0.00     0.167 HD
ENDROOT
BRANCH   1  16
ATOM     16  O   UNL     1      26.784  17.783 -13.036  1.00  0.00    -0.497 OA
ATOM     17  C   UNL     1      26.752  16.427 -13.461  1.00  0.00     0.278 C 
ENDBRANCH   1  16
TORSDOF 1
ENDMDL
MODEL 3
REMARK VINA RESULT:      -6.5      2.734      5.594
REMARK SMILES COc1ccc2c(c1)[nH]c1c(C)nccc12
REMARK SMILES IDX 3 1 4 2 5 3 6 4 7 5 8 6 9 7 10 8 11 9 12 10 13 11 14 12
REMARK SMILES IDX 15 13 16 14 2 16 1 17
REMARK H PARENT 9 15
ROOT
ATOM      1  C   UNL     1      22.416  19.429  -6.687  1.00  0.00     0.120 A 
ATOM      2  C   UNL     1      21.624  18.427  -7.249  1.00  0.00     0.047 A 
ATOM      3  C   UNL     1      21.973  17.817  -8.461  1.00  0.00     0.015 A 
ATOM      4  C   UNL     1      23.146  18.225  -9.124  1.00  0.00     0.008 A 
ATOM      5  C   UNL     1      23.922  19.226  -8.545  1.00  0.00     0.050 A 
ATOM      6  C   UNL     1      23.586  19.848  -7.331  1.00  0.00     0.073 A 
ATOM      7  N   UNL     1      24.995  19.435  -9.379  1.00  0.00    -0.353 N 
ATOM      8  C   UNL     1      24.941  18.605 -10.475  1.00  0.00     0.068 A 
ATOM      9  C   UNL     1      25.813  18.480 -11.563  1.00  0.00     0.061 A 
ATOM     10  C   UNL     1      27.058  19.288 -11.744  1.00  0.00     0.069 C 
ATOM     11  N   UNL     1      25.506  17.560 -12.517  1.00  0.00    -0.259 NA
ATOM     12  C   UNL     1      24.390  16.809 -12.392  1.00  0.00     0.112 A 
ATOM     13  C   UNL     1      23.496  16.894 -11.339  1.00  0.00     0.031 A 
ATOM     14  C   UNL     1      23.789  17.833 -10.341  1.00  0.00     0.011 A 
ATOM     15  H   UNL     1      25.726  20.110  -9.208  1.00  0.00     0.167 HD
ENDROOT
BRANCH   1  16
ATOM     16  O   UNL     1      21.939  19.924  -5.501  1.00  0.00    -0.497 OA
ATOM     17  C   UNL     1      22.084  19.099  -4.352  1.00  0.00     0.278 C 
ENDBRANCH   1  16
TORSDOF 1
ENDMDL
