MODEL 1
REMARK VINA RESULT:      -6.9      0.000      0.000
REMARK SMILES CNc1ncc(CN2CCC[C@H](c3nc(-c4cccs4)cc(=O)[nH]3)C2)cn1
REMARK SMILES IDX 7 1 6 2 3 3 4 4 27 5 5 6 26 7 2 8 1 9 8 11 9 12 25 13 10 14
REMARK SMILES IDX 12 15 11 16 13 17 14 18 24 19 15 20 22 21 21 22 23 23 16 25
REMARK SMILES IDX 17 26 20 27 18 28 19 29
REMARK H PARENT 2 10 24 24
ROOT
ATOM      1  C   UNL     1      32.840  25.373 -12.549  1.00  0.00     0.123 C 
ENDROOT
BRANCH   1   2
ATOM      2  C   UNL     1      32.956  23.994 -13.121  1.00  0.00     0.003 A 
ATOM      3  C   UNL     1      33.108  21.489 -14.184  1.00  0.00     0.222 A 
ATOM      4  N   UNL     1      32.491  21.637 -13.004  1.00  0.00    -0.221 NA
ATOM      5  N   UNL     1      33.636  22.501 -14.884  1.00  0.00    -0.221 NA
ATOM      6  C   UNL     1      32.431  22.884 -12.498  1.00  0.00     0.121 A 
ATOM      7  C   UNL     1      33.550  23.731 -14.337  1.00  0.00     0.121 A 
BRANCH   3   8
ATOM      8  N   UNL     1      33.228  20.235 -14.768  1.00  0.00    -0.357 N 
ATOM      9  C   UNL     1      34.011  20.218 -15.982  1.00  0.00     0.143 C 
ATOM     10  H   UNL     1      33.556  19.622 -14.029  1.00  0.00     0.163 HD
ENDBRANCH   3   8
ENDBRANCH   1   2
BRANCH   1  11
ATOM     11  N   UNL     1      31.578  26.055 -12.897  1.00  0.00    -0.298 NA
ATOM     12  C   UNL     1      31.835  27.401 -13.445  1.00  0.00     0.085 C 
ATOM     13  C   UNL     1      30.708  26.143 -11.708  1.00  0.00     0.096 C 
ATOM     14  C   UNL     1      30.531  28.102 -13.832  1.00  0.00     0.016 C 
ATOM     15  C   UNL     1      29.358  26.794 -12.047  1.00  0.00     0.070 C 
ATOM     16  C   UNL     1      29.574  28.185 -12.647  1.00  0.00     0.014 C 
BRANCH  15  17
ATOM     17  C   UNL     1      28.500  26.824 -10.794  1.00  0.00     0.113 C 
ATOM     18  N   UNL     1      28.107  25.738 -10.214  1.00  0.00    -0.233 NA
ATOM     19  N   UNL     1      28.126  28.069 -10.365  1.00  0.00    -0.310 N 
ATOM     20  C   UNL     1      27.302  25.860  -9.109  1.00  0.00     0.088 C 
ATOM     21  C   UNL     1      27.347  28.254  -9.265  1.00  0.00     0.251 C 
ATOM     22  C   UNL     1      26.899  27.030  -8.594  1.00  0.00     0.101 C 
ATOM     23  O   UNL     1      27.035  29.364  -8.851  1.00  0.00    -0.269 OA
ATOM     24  H   UNL     1      28.455  28.907 -10.822  1.00  0.00     0.171 HD
BRANCH  20  25
ATOM     25  C   UNL     1      26.888  24.635  -8.486  1.00  0.00     0.053 A 
ATOM     26  C   UNL     1      27.271  24.087  -7.268  1.00  0.00     0.022 A 
ATOM     27  S   UNL     1      25.732  23.600  -9.252  1.00  0.00    -0.142 S 
ATOM     28  C   UNL     1      26.631  22.848  -6.975  1.00  0.00     0.012 A 
ATOM     29  C   UNL     1      25.767  22.471  -7.974  1.00  0.00     0.065 A 
ENDBRANCH  20  25
ENDBRANCH  15  17
ENDBRANCH   1  11
TORSDOF 5
ENDMDL
MODEL 2
REMARK VINA RESULT:      -6.8      6.074     10.755
REMARK SMILES CNc1ncc(CN2CCC[C@H](c3nc(-c4cccs4)cc(=O)[nH]3)C2)cn1
REMARK SMILES IDX 7 1 6 2 3 3 4 4 27 5 5 6 26 7 2 8 1 9 8 11 9 12 25 13 10 14
REMARK SMILES IDX 12 15 11 16 13 17 14 18 24 19 15 20 22 21 21 22 23 23 16 25
REMARK SMILES IDX 17 26 20 27 18 28 19 29
REMARK H PARENT 2 10 24 24
ROOT
ATOM      1  C   UNL     1      24.884  21.006  -5.625  1.00  0.00     0.123 C 
ENDROOT
BRANCH   1   2
ATOM      2  C   UNL     1      25.287  22.245  -6.364  1.00  0.00     0.003 A 
ATOM      3  C   UNL     1      26.023  24.530  -7.655  1.00  0.00     0.222 A 
ATOM      4  N   UNL     1      24.732  24.378  -7.327  1.00  0.00    -0.221 NA
ATOM      5  N   UNL     1      26.977  23.637  -7.367  1.00  0.00    -0.221 NA
ATOM      6  C   UNL     1      24.393  23.239  -6.692  1.00  0.00     0.121 A 
ATOM      7  C   UNL     1      26.589  22.513  -6.729  1.00  0.00     0.121 A 
BRANCH   3   8
ATOM      8  N   UNL     1      26.454  25.667  -8.325  1.00  0.00    -0.357 N 
ATOM      9  C   UNL     1      27.541  25.436  -9.248  1.00  0.00     0.143 C 
ATOM     10  H   UNL     1      25.619  26.077  -8.729  1.00  0.00     0.163 HD
ENDBRANCH   3   8
ENDBRANCH   1   2
BRANCH   1  11
ATOM     11  N   UNL     1      23.686  20.348  -6.182  1.00  0.00    -0.298 NA
ATOM     12  C   UNL     1      23.057  19.458  -5.186  1.00  0.00     0.085 C 
ATOM     13  C   UNL     1      24.047  19.587  -7.394  1.00  0.00     0.096 C 
ATOM     14  C   UNL     1      21.800  18.793  -5.750  1.00  0.00     0.016 C 
ATOM     15  C   UNL     1      22.812  18.936  -8.037  1.00  0.00     0.070 C 
ATOM     16  C   UNL     1      22.108  18.023  -7.030  1.00  0.00     0.014 C 
BRANCH  15  17
ATOM     17  C   UNL     1      23.243  18.199  -9.293  1.00  0.00     0.113 C 
ATOM     18  N   UNL     1      24.268  18.577  -9.983  1.00  0.00    -0.233 NA
ATOM     19  N   UNL     1      22.441  17.156  -9.669  1.00  0.00    -0.310 N 
ATOM     20  C   UNL     1      24.563  17.875 -11.125  1.00  0.00     0.088 C 
ATOM     21  C   UNL     1      22.693  16.410 -10.779  1.00  0.00     0.251 C 
ATOM     22  C   UNL     1      23.858  16.826 -11.568  1.00  0.00     0.101 C 
ATOM     23  O   UNL     1      22.003  15.454 -11.108  1.00  0.00    -0.269 OA
ATOM     24  H   UNL     1      21.652  16.865  -9.110  1.00  0.00     0.171 HD
BRANCH  20  25
ATOM     25  C   UNL     1      25.710  18.317 -11.865  1.00  0.00     0.053 A 
ATOM     26  C   UNL     1      26.310  17.758 -12.987  1.00  0.00     0.022 A 
ATOM     27  S   UNL     1      26.558  19.755 -11.406  1.00  0.00    -0.142 S 
ATOM     28  C   UNL     1      27.438  18.494 -13.455  1.00  0.00     0.012 A 
ATOM     29  C   UNL     1      27.679  19.604 -12.684  1.00  0.00     0.065 A 
ENDBRANCH  20  25
ENDBRANCH  15  17
ENDBRANCH   1  11
TORSDOF 5
ENDMDL
MODEL 3
REMARK VINA RESULT:      -6.8      5.966      9.508
REMARK SMILES CNc1ncc(CN2CCC[C@H](c3nc(-c4cccs4)cc(=O)[nH]3)C2)cn1
REMARK SMILES IDX 7 1 6 2 3 3 4 4 27 5 5 6 26 7 2 8 1 9 8 11 9 12 25 13 10 14
REMARK SMILES IDX 12 15 11 16 13 17 14 18 24 19 15 20 22 21 21 22 23 23 16 25
REMARK SMILES IDX 17 26 20 27 18 28 19 29
REMARK H PARENT 2 10 24 24
ROOT
ATOM      1  C   UNL     1      22.357  17.981  -9.554  1.00  0.00     0.123 C 
ENDROOT
BRANCH   1   2
ATOM      2  C   UNL     1      23.491  17.774 -10.510  1.00  0.00     0.003 A 
ATOM      3  C   UNL     1      25.586  17.368 -12.205  1.00  0.00     0.222 A 
ATOM      4  N   UNL     1      25.670  18.379 -11.330  1.00  0.00    -0.221 NA
ATOM      5  N   UNL     1      24.544  16.531 -12.283  1.00  0.00    -0.221 NA
ATOM      6  C   UNL     1      24.621  18.561 -10.504  1.00  0.00     0.121 A 
ATOM      7  C   UNL     1      23.519  16.753 -11.435  1.00  0.00     0.121 A 
BRANCH   3   8
ATOM      8  N   UNL     1      26.617  17.121 -13.103  1.00  0.00    -0.357 N 
ATOM      9  C   UNL     1      27.263  18.311 -13.607  1.00  0.00     0.143 C 
ATOM     10  H   UNL     1      27.226  16.457 -12.638  1.00  0.00     0.163 HD
ENDBRANCH   3   8
ENDBRANCH   1   2
BRANCH   1  11
ATOM     11  N   UNL     1      22.768  17.973  -8.136  1.00  0.00    -0.298 NA
ATOM     12  C   UNL     1      21.625  17.672  -7.252  1.00  0.00     0.085 C 
ATOM     13  C   UNL     1      23.366  19.274  -7.777  1.00  0.00     0.096 C 
ATOM     14  C   UNL     1      22.052  17.637  -5.783  1.00  0.00     0.016 C 
ATOM     15  C   UNL     1      23.862  19.282  -6.323  1.00  0.00     0.070 C 
ATOM     16  C   UNL     1      22.714  18.946  -5.368  1.00  0.00     0.014 C 
BRANCH  15  17
ATOM     17  C   UNL     1      24.493  20.632  -6.027  1.00  0.00     0.113 C 
ATOM     18  N   UNL     1      25.010  21.358  -6.962  1.00  0.00    -0.233 NA
ATOM     19  N   UNL     1      24.528  20.989  -4.706  1.00  0.00    -0.310 N 
ATOM     20  C   UNL     1      25.593  22.547  -6.598  1.00  0.00     0.088 C 
ATOM     21  C   UNL     1      25.074  22.163  -4.287  1.00  0.00     0.251 C 
ATOM     22  C   UNL     1      25.659  23.000  -5.340  1.00  0.00     0.101 C 
ATOM     23  O   UNL     1      25.081  22.510  -3.113  1.00  0.00    -0.269 OA
ATOM     24  H   UNL     1      24.106  20.416  -3.991  1.00  0.00     0.171 HD
BRANCH  20  25
ATOM     25  C   UNL     1      26.153  23.332  -7.661  1.00  0.00     0.053 A 
ATOM     26  C   UNL     1      25.814  23.369  -9.008  1.00  0.00     0.022 A 
ATOM     27  S   UNL     1      27.440  24.448  -7.353  1.00  0.00    -0.142 S 
ATOM     28  C   UNL     1      26.592  24.293  -9.765  1.00  0.00     0.012 A 
ATOM     29  C   UNL     1      27.513  24.946  -8.983  1.00  0.00     0.065 A 
ENDBRANCH  20  25
ENDBRANCH  15  17
ENDBRANCH   1  11
TORSDOF 5
ENDMDL
