MODEL 1
REMARK VINA RESULT:      -7.1      0.000      0.000
REMARK SMILES N=C(N)c1ccc(NCCNc2ccc(C(=N)N)cc2)cc1
REMARK SMILES IDX 9 1 8 2 7 4 4 5 5 6 22 7 6 8 21 9 2 10 1 11 3 12 10 16 11 17
REMARK SMILES IDX 12 19 13 20 20 21 14 22 19 23 15 24 16 25 17 26 18 27
REMARK H PARENT 8 3 1 13 3 14 3 15 11 18 17 28 18 29 18 30
ROOT
ATOM      1  C   UNL     1      21.659  17.252  -8.001  1.00  0.00     0.134 C 
ENDROOT
BRANCH   1   2
ATOM      2  N   UNL     1      21.920  18.183  -9.103  1.00  0.00    -0.383 N 
ATOM      3  H   UNL     1      21.892  19.140  -8.741  1.00  0.00     0.160 HD
BRANCH   2   4
ATOM      4  C   UNL     1      23.038  17.979  -9.920  1.00  0.00     0.034 A 
ATOM      5  C   UNL     1      25.298  17.782 -11.613  1.00  0.00     0.016 A 
ATOM      6  C   UNL     1      25.281  18.701 -10.562  1.00  0.00     0.014 A 
ATOM      7  C   UNL     1      24.169  16.992 -11.844  1.00  0.00     0.014 A 
ATOM      8  C   UNL     1      24.157  18.803  -9.736  1.00  0.00     0.026 A 
ATOM      9  C   UNL     1      23.047  17.104 -11.011  1.00  0.00     0.026 A 
BRANCH   5  10
ATOM     10  C   UNL     1      26.506  17.672 -12.484  1.00  0.00     0.122 C 
ATOM     11  N   UNL     1      26.526  16.803 -13.442  1.00  0.00    -0.284 NA
ATOM     12  N   UNL     1      27.582  18.491 -12.290  1.00  0.00    -0.384 N 
ATOM     13  H   UNL     1      27.427  16.830 -13.918  1.00  0.00     0.189 HD
ATOM     14  H   UNL     1      28.205  18.583 -13.083  1.00  0.00     0.158 HD
ATOM     15  H   UNL     1      27.372  19.396 -11.882  1.00  0.00     0.158 HD
ENDBRANCH   5  10
ENDBRANCH   2   4
ENDBRANCH   1   2
BRANCH   1  16
ATOM     16  C   UNL     1      21.667  18.019  -6.662  1.00  0.00     0.134 C 
BRANCH  16  17
ATOM     17  N   UNL     1      23.018  18.086  -6.085  1.00  0.00    -0.383 N 
ATOM     18  H   UNL     1      23.571  17.259  -6.297  1.00  0.00     0.160 HD
BRANCH  17  19
ATOM     19  C   UNL     1      23.775  19.255  -6.104  1.00  0.00     0.034 A 
ATOM     20  C   UNL     1      25.142  19.309  -5.813  1.00  0.00     0.026 A 
ATOM     21  C   UNL     1      23.164  20.429  -6.573  1.00  0.00     0.026 A 
ATOM     22  C   UNL     1      25.863  20.505  -5.925  1.00  0.00     0.014 A 
ATOM     23  C   UNL     1      23.873  21.631  -6.689  1.00  0.00     0.014 A 
ATOM     24  C   UNL     1      25.226  21.668  -6.359  1.00  0.00     0.016 A 
BRANCH  24  25
ATOM     25  C   UNL     1      25.998  22.931  -6.477  1.00  0.00     0.122 C 
ATOM     26  N   UNL     1      26.493  23.331  -7.605  1.00  0.00    -0.284 NA
ATOM     27  N   UNL     1      26.212  23.721  -5.390  1.00  0.00    -0.384 N 
ATOM     28  H   UNL     1      26.251  22.684  -8.361  1.00  0.00     0.189 HD
ATOM     29  H   UNL     1      26.535  24.649  -5.642  1.00  0.00     0.158 HD
ATOM     30  H   UNL     1      25.555  23.696  -4.623  1.00  0.00     0.158 HD
ENDBRANCH  24  25
ENDBRANCH  17  19
ENDBRANCH  16  17
ENDBRANCH   1  16
TORSDOF 7
ENDMDL
MODEL 2
REMARK VINA RESULT:      -7.1      0.672      5.967
REMARK SMILES N=C(N)c1ccc(NCCNc2ccc(C(=N)N)cc2)cc1
REMARK SMILES IDX 9 1 8 2 7 4 4 5 5 6 22 7 6 8 21 9 2 10 1 11 3 12 10 16 11 17
REMARK SMILES IDX 12 19 13 20 20 21 14 22 19 23 15 24 16 25 17 26 18 27
REMARK H PARENT 8 3 1 13 3 14 3 15 11 18 17 28 18 29 18 30
ROOT
ATOM      1  C   UNL     1      21.676  18.226  -6.655  1.00  0.00     0.134 C 
ENDROOT
BRANCH   1   2
ATOM      2  N   UNL     1      22.987  18.514  -6.068  1.00  0.00    -0.383 N 
ATOM      3  H   UNL     1      23.554  17.661  -6.089  1.00  0.00     0.160 HD
BRANCH   2   4
ATOM      4  C   UNL     1      23.713  19.619  -6.525  1.00  0.00     0.034 A 
ATOM      5  C   UNL     1      25.304  21.839  -7.270  1.00  0.00     0.016 A 
ATOM      6  C   UNL     1      25.902  20.626  -6.927  1.00  0.00     0.014 A 
ATOM      7  C   UNL     1      23.913  21.957  -7.199  1.00  0.00     0.014 A 
ATOM      8  C   UNL     1      25.112  19.535  -6.548  1.00  0.00     0.026 A 
ATOM      9  C   UNL     1      23.131  20.858  -6.816  1.00  0.00     0.026 A 
BRANCH   5  10
ATOM     10  C   UNL     1      26.153  22.995  -7.683  1.00  0.00     0.122 C 
ATOM     11  N   UNL     1      27.130  23.375  -6.924  1.00  0.00    -0.284 NA
ATOM     12  N   UNL     1      25.920  23.645  -8.862  1.00  0.00    -0.384 N 
ATOM     13  H   UNL     1      27.588  24.192  -7.327  1.00  0.00     0.189 HD
ATOM     14  H   UNL     1      26.699  24.184  -9.221  1.00  0.00     0.158 HD
ATOM     15  H   UNL     1      25.497  23.082  -9.593  1.00  0.00     0.158 HD
ENDBRANCH   5  10
ENDBRANCH   2   4
ENDBRANCH   1   2
BRANCH   1  16
ATOM     16  C   UNL     1      21.851  17.342  -7.908  1.00  0.00     0.134 C 
BRANCH  16  17
ATOM     17  N   UNL     1      22.042  18.154  -9.119  1.00  0.00    -0.383 N 
ATOM     18  H   UNL     1      21.857  19.141  -8.958  1.00  0.00     0.160 HD
BRANCH  17  19
ATOM     19  C   UNL     1      23.109  17.945  -9.990  1.00  0.00     0.034 A 
ATOM     20  C   UNL     1      23.056  17.106 -11.108  1.00  0.00     0.026 A 
ATOM     21  C   UNL     1      24.265  18.723  -9.817  1.00  0.00     0.026 A 
ATOM     22  C   UNL     1      24.140  16.998 -11.989  1.00  0.00     0.014 A 
ATOM     23  C   UNL     1      25.356  18.624 -10.689  1.00  0.00     0.014 A 
ATOM     24  C   UNL     1      25.293  17.755 -11.776  1.00  0.00     0.016 A 
BRANCH  24  25
ATOM     25  C   UNL     1      26.436  17.636 -12.716  1.00  0.00     0.122 C 
ATOM     26  N   UNL     1      26.599  16.596 -13.472  1.00  0.00    -0.284 NA
ATOM     27  N   UNL     1      27.363  18.627 -12.815  1.00  0.00    -0.384 N 
ATOM     28  H   UNL     1      25.835  15.927 -13.342  1.00  0.00     0.189 HD
ATOM     29  H   UNL     1      27.943  18.535 -13.643  1.00  0.00     0.158 HD
ATOM     30  H   UNL     1      27.099  19.575 -12.587  1.00  0.00     0.158 HD
ENDBRANCH  24  25
ENDBRANCH  17  19
ENDBRANCH  16  17
ENDBRANCH   1  16
TORSDOF 7
ENDMDL
MODEL 3
REMARK VINA RESULT:      -7.1      2.702      6.774
REMARK SMILES N=C(N)c1ccc(NCCNc2ccc(C(=N)N)cc2)cc1
REMARK SMILES IDX 9 1 8 2 7 4 4 5 5 6 22 7 6 8 21 9 2 10 1 11 3 12 10 16 11 17
REMARK SMILES IDX 12 19 13 20 20 21 14 22 19 23 15 24 16 25 17 26 18 27
REMARK H PARENT 8 3 1 13 3 14 3 15 11 18 17 28 18 29 18 30
ROOT
ATOM      1  C   UNL     1      23.462  22.418  -7.109  1.00  0.00     0.134 C 
ENDROOT
BRANCH   1   2
ATOM      2  N   UNL     1      24.917  22.478  -6.949  1.00  0.00    -0.383 N 
ATOM      3  H   UNL     1      25.291  21.525  -6.965  1.00  0.00     0.160 HD
BRANCH   2   4
ATOM      4  C   UNL     1      25.661  23.330  -7.772  1.00  0.00     0.034 A 
ATOM      5  C   UNL     1      27.236  24.878  -9.544  1.00  0.00     0.016 A 
ATOM      6  C   UNL     1      26.317  23.953 -10.041  1.00  0.00     0.014 A 
ATOM      7  C   UNL     1      27.400  24.999  -8.162  1.00  0.00     0.014 A 
ATOM      8  C   UNL     1      25.549  23.182  -9.161  1.00  0.00     0.026 A 
ATOM      9  C   UNL     1      26.628  24.220  -7.288  1.00  0.00     0.026 A 
BRANCH   5  10
ATOM     10  C   UNL     1      28.043  25.704 -10.490  1.00  0.00     0.122 C 
ATOM     11  N   UNL     1      28.039  26.993 -10.376  1.00  0.00    -0.284 NA
ATOM     12  N   UNL     1      28.799  25.112 -11.462  1.00  0.00    -0.384 N 
ATOM     13  H   UNL     1      28.608  27.409 -11.113  1.00  0.00     0.189 HD
ATOM     14  H   UNL     1      29.542  25.685 -11.842  1.00  0.00     0.158 HD
ATOM     15  H   UNL     1      29.130  24.177 -11.246  1.00  0.00     0.158 HD
ENDBRANCH   5  10
ENDBRANCH   2   4
ENDBRANCH   1   2
BRANCH   1  16
ATOM     16  C   UNL     1      22.971  20.977  -6.854  1.00  0.00     0.134 C 
BRANCH  16  17
ATOM     17  N   UNL     1      24.001  19.986  -7.198  1.00  0.00    -0.383 N 
ATOM     18  H   UNL     1      24.309  19.451  -6.390  1.00  0.00     0.160 HD
BRANCH  17  19
ATOM     19  C   UNL     1      23.929  19.214  -8.356  1.00  0.00     0.034 A 
ATOM     20  C   UNL     1      22.804  18.474  -8.735  1.00  0.00     0.026 A 
ATOM     21  C   UNL     1      24.996  19.286  -9.265  1.00  0.00     0.026 A 
ATOM     22  C   UNL     1      22.767  17.779  -9.951  1.00  0.00     0.014 A 
ATOM     23  C   UNL     1      24.972  18.595 -10.483  1.00  0.00     0.014 A 
ATOM     24  C   UNL     1      23.854  17.836 -10.824  1.00  0.00     0.016 A 
BRANCH  24  25
ATOM     25  C   UNL     1      23.806  17.098 -12.111  1.00  0.00     0.122 C 
ATOM     26  N   UNL     1      24.882  16.737 -12.736  1.00  0.00    -0.284 NA
ATOM     27  N   UNL     1      22.616  16.771 -12.683  1.00  0.00    -0.384 N 
ATOM     28  H   UNL     1      25.719  17.003 -12.209  1.00  0.00     0.189 HD
ATOM     29  H   UNL     1      22.716  16.076 -13.416  1.00  0.00     0.158 HD
ATOM     30  H   UNL     1      21.801  16.655 -12.098  1.00  0.00     0.158 HD
ENDBRANCH  24  25
ENDBRANCH  17  19
ENDBRANCH  16  17
ENDBRANCH   1  16
TORSDOF 7
ENDMDL
