REMARK SMILES CN1CCCN(c2nc(C(F)(F)F)nc3ccccc23)CC1
REMARK SMILES IDX 9 1 14 2 15 3 16 4 17 5 18 6 19 7 20 8 7 9 8 10 10 11 11 12
REMARK SMILES IDX 12 13 13 14 6 15 5 16 21 17 4 18 22 19 3 20 2 21 1 22
REMARK H PARENT
ROOT
ATOM      1  C2  ZO0 F 206      15.208  -3.919 -10.063  1.00  0.00     0.237 A 
ATOM      2  N1  ZO0 F 206      16.537  -4.214 -10.033  1.00  0.00    -0.224 NA
ATOM      3  C6  ZO0 F 206      17.453  -3.203 -10.051  1.00  0.00     0.076 A 
ATOM      4  C7  ZO0 F 206      18.808  -3.481 -10.022  1.00  0.00     0.029 A 
ATOM      5  C8  ZO0 F 206      19.734  -2.444 -10.046  1.00  0.00     0.002 A 
ATOM      6  C9  ZO0 F 206      19.313  -1.106 -10.100  1.00  0.00     0.001 A 
ATOM      7  C10 ZO0 F 206      17.967  -0.764 -10.133  1.00  0.00     0.014 A 
ATOM      8  C5  ZO0 F 206      17.006  -1.774 -10.110  1.00  0.00     0.043 A 
ATOM      9  C4  ZO0 F 206      15.530  -1.541 -10.132  1.00  0.00     0.140 A 
ATOM     10  N3  ZO0 F 206      14.746  -2.645 -10.091  1.00  0.00    -0.206 NA
ENDROOT
BRANCH   1  11
ATOM     11  C11 ZO0 F 206      14.165  -4.991 -10.019  1.00  0.00     0.451 C 
ATOM     12  F13 ZO0 F 206      13.754  -4.968  -8.775  1.00  0.00    -0.163 F 
ATOM     13  F14 ZO0 F 206      14.571  -6.212 -10.316  1.00  0.00    -0.163 F 
ATOM     14  F12 ZO0 F 206      13.183  -4.714 -10.861  1.00  0.00    -0.163 F 
ENDBRANCH   1  11
BRANCH   9  15
ATOM     15  N15 ZO0 F 206      14.883  -0.283 -10.187  1.00  0.00    -0.355 N 
ATOM     16  C16 ZO0 F 206      13.798  -0.119 -11.163  1.00  0.00     0.119 C 
ATOM     17  C21 ZO0 F 206      15.245   0.806  -9.278  1.00  0.00     0.133 C 
ATOM     18  C17 ZO0 F 206      12.657   0.695 -10.552  1.00  0.00     0.037 C 
ATOM     19  C20 ZO0 F 206      15.227   2.151 -10.010  1.00  0.00     0.105 C 
ATOM     20  C18 ZO0 F 206      12.830   2.189 -10.817  1.00  0.00     0.086 C 
ATOM     21  N19 ZO0 F 206      13.859   2.662  -9.904  1.00  0.00    -0.305 NA
ATOM     22  C22 ZO0 F 206      13.513   3.652  -8.885  1.00  0.00     0.105 C 
ENDBRANCH   9  15
TORSDOF 2
