REMARK SMILES CN1CCCN(c2ncnc3ccccc23)CC1
REMARK SMILES IDX 6 1 2 2 17 3 18 4 5 5 1 6 3 7 4 8 7 9 10 10 9 11 11 12 8 13
REMARK SMILES IDX 16 14 12 15 15 16 13 17 14 18
REMARK H PARENT
ROOT
ATOM      1  N3  4MQ A1000      -4.440   1.760  33.416  1.00  0.00    -0.355 N 
ATOM      2  N4  4MQ A1000      -7.457   1.669  33.927  1.00  0.00    -0.305 NA
ATOM      3  C9  4MQ A1000      -5.366   0.735  33.843  1.00  0.00     0.133 C 
ATOM      4  C10 4MQ A1000      -6.611   0.928  33.019  1.00  0.00     0.105 C 
ATOM      5  C12 4MQ A1000      -5.030   3.024  33.002  1.00  0.00     0.119 C 
ATOM      6  C13 4MQ A1000      -8.466   0.959  34.694  1.00  0.00     0.105 C 
ATOM      7  C15 4MQ A1000      -7.312   3.120  34.056  1.00  0.00     0.086 C 
ATOM      8  C16 4MQ A1000      -5.837   3.494  34.202  1.00  0.00     0.037 C 
ENDROOT
BRANCH   1   9
ATOM      9  C8  4MQ A1000      -3.052   1.545  33.425  1.00  0.00     0.139 A 
ATOM     10  N1  4MQ A1000      -0.229   1.290  33.430  1.00  0.00    -0.236 NA
ATOM     11  C2  4MQ A1000      -0.853   2.476  33.285  1.00  0.00     0.224 A 
ATOM     12  C3  4MQ A1000      -0.943   0.155  33.590  1.00  0.00     0.076 A 
ATOM     13  N9  4MQ A1000      -2.207   2.600  33.279  1.00  0.00    -0.219 NA
ATOM     14  C4  4MQ A1000      -2.427   0.193  33.609  1.00  0.00     0.043 A 
ATOM     15  C17 4MQ A1000      -0.296  -1.063  33.741  1.00  0.00     0.029 A 
ATOM     16  C5  4MQ A1000      -3.093  -1.027  33.784  1.00  0.00     0.014 A 
ATOM     17  C7  4MQ A1000      -1.018  -2.239  33.924  1.00  0.00     0.002 A 
ATOM     18  C6  4MQ A1000      -2.405  -2.222  33.932  1.00  0.00     0.001 A 
ENDBRANCH   1   9
TORSDOF 1
