ROOT
ATOM      1  CAF 5FW A1000       1.477   0.110  34.286  1.00  0.00     0.117 C 
ATOM      2  NAD 5FW A1000       0.822   1.368  33.927  1.00  0.00    -0.312 NA
ATOM      3  H   UNL     1       0.998   1.510  32.922  1.00  0.00     0.123 HD
ATOM      4  CAG 5FW A1000      -0.601   1.571  34.124  1.00  0.00     0.047 C 
ATOM      5  CAI 5FW A1000      -1.396   0.515  33.368  1.00  0.00     0.024 C 
ATOM      6  CAJ 5FW A1000      -0.988   2.982  33.684  1.00  0.00     0.024 C 
ATOM      7  CAE 5FW A1000       2.914   0.334  34.749  1.00  0.00     0.158 C 
ATOM      8  OAA 5FW A1000       3.464   1.392  33.957  1.00  0.00    -0.387 OA
ATOM      9  H   UNL     1       3.829   2.094  34.552  1.00  0.00     0.211 HD
ATOM     10  CAH 5FW A1000       3.717  -0.906  34.560  1.00  0.00    -0.014 A 
ATOM     11  CAK 5FW A1000       4.779  -0.890  33.644  1.00  0.00     0.056 A 
ATOM     12  CAL 5FW A1000       3.430  -2.079  35.294  1.00  0.00     0.010 A 
ATOM     13  CAM 5FW A1000       5.543  -2.040  33.426  1.00  0.00     0.157 A 
ATOM     14  CAN 5FW A1000       4.176  -3.255  35.102  1.00  0.00     0.050 A 
ATOM     15  CAO 5FW A1000       5.247  -3.275  34.200  1.00  0.00     0.157 A 
ATOM     16  OAB 5FW A1000       6.576  -2.031  32.562  1.00  0.00    -0.504 OA
ATOM     17  H   UNL     1       6.780  -1.213  32.043  1.00  0.00     0.293 HD
ATOM     18  OAC 5FW A1000       5.999  -4.398  33.971  1.00  0.00    -0.504 OA
ATOM     19  H   UNL     1       6.748  -4.369  33.324  1.00  0.00     0.293 HD
ENDROOT
TORSDOF 0
