REMARK SMILES CC(C)NC[C@H](O)c1ccc(O)c(O)c1
REMARK SMILES IDX 5 1 4 2 2 4 1 5 3 6 6 7 7 8 8 10 15 11 9 12 13 13 10 14
REMARK SMILES IDX 11 15 14 16 12 18
REMARK H PARENT 4 3 7 9 14 17 12 19
ROOT
ATOM      1  C   UNL     1       1.671  -0.006   0.217  1.00  0.00     0.117 C 
ENDROOT
BRANCH   1   2
ATOM      2  N   UNL     1       3.101   0.213  -0.084  1.00  0.00    -0.312 NA
ATOM      3  H   UNL     1       3.236   1.211  -0.259  1.00  0.00     0.123 HD
BRANCH   2   4
ATOM      4  C   UNL     1       3.979  -0.191   1.025  1.00  0.00     0.047 C 
ATOM      5  C   UNL     1       5.422  -0.138   0.518  1.00  0.00     0.024 C 
ATOM      6  C   UNL     1       3.827   0.705   2.256  1.00  0.00     0.024 C 
ENDBRANCH   2   4
ENDBRANCH   1   2
BRANCH   1   7
ATOM      7  C   UNL     1       0.819   0.039  -1.074  1.00  0.00     0.158 C 
BRANCH   7   8
ATOM      8  O   UNL     1       1.150   1.213  -1.826  1.00  0.00    -0.387 OA
ATOM      9  H   UNL     1       2.091   1.093  -2.050  1.00  0.00     0.211 HD
ENDBRANCH   7   8
BRANCH   7  10
ATOM     10  C   UNL     1      -0.663   0.014  -0.765  1.00  0.00    -0.014 A 
ATOM     11  C   UNL     1      -1.320  -1.218  -0.612  1.00  0.00     0.056 A 
ATOM     12  C   UNL     1      -1.396   1.201  -0.581  1.00  0.00     0.010 A 
ATOM     13  C   UNL     1      -2.672  -1.246  -0.293  1.00  0.00     0.157 A 
ATOM     14  C   UNL     1      -2.760   1.163  -0.277  1.00  0.00     0.050 A 
ATOM     15  C   UNL     1      -3.391  -0.064  -0.153  1.00  0.00     0.157 A 
BRANCH  13  16
ATOM     16  O   UNL     1      -3.275  -2.453  -0.087  1.00  0.00    -0.504 OA
ATOM     17  H   UNL     1      -3.965  -2.296   0.584  1.00  0.00     0.293 HD
ENDBRANCH  13  16
BRANCH  15  18
ATOM     18  O   UNL     1      -4.736  -0.098   0.078  1.00  0.00    -0.504 OA
ATOM     19  H   UNL     1      -5.088  -0.780  -0.524  1.00  0.00     0.293 HD
ENDBRANCH  15  18
ENDBRANCH   7  10
ENDBRANCH   1   7
TORSDOF 7
