REMARK SMILES CN1CCN(c2ncnc3ccccc23)CC1
REMARK SMILES IDX 5 1 2 2 4 3 3 4 17 5 16 6 1 7 6 8 9 9 8 10 10 11 7 12 15 13
REMARK SMILES IDX 11 14 14 15 12 16 13 17
REMARK H PARENT
ROOT
ATOM      1 N3   LIG A   1      43.054  75.927  71.732  1.00  0.00    -0.353 N 
ATOM      2 N4   LIG A   1      45.527  75.090  72.638  1.00  0.00    -0.303 NA
ATOM      3 C9   LIG A   1      44.103  76.916  71.944  1.00  0.00     0.133 C 
ATOM      4 C10  LIG A   1      45.003  76.389  73.059  1.00  0.00     0.105 C 
ATOM      5 C11  LIG A   1      44.820  74.301  71.648  1.00  0.00     0.105 C 
ATOM      6 C12  LIG A   1      43.345  74.511  71.965  1.00  0.00     0.133 C 
ATOM      7 C13  LIG A   1      46.758  74.566  73.208  1.00  0.00     0.105 C 
ENDROOT
BRANCH   1   8
ATOM      8 C8   LIG A   1      41.749  76.248  71.304  1.00  0.00     0.139 A 
ATOM      9 N1   LIG A   1      39.049  76.612  70.583  1.00  0.00    -0.236 NA
ATOM     10 C2   LIG A   1      39.460  75.588  71.362  1.00  0.00     0.224 A 
ATOM     11 C3   LIG A   1      39.920  77.530  70.103  1.00  0.00     0.076 A 
ATOM     12 N9   LIG A   1      40.747  75.412  71.704  1.00  0.00    -0.219 NA
ATOM     13 C4   LIG A   1      41.363  77.405  70.435  1.00  0.00     0.043 A 
ATOM     14 C17  LIG A   1      39.473  78.583  69.303  1.00  0.00     0.029 A 
ATOM     15 C5   LIG A   1      42.236  78.361  69.921  1.00  0.00     0.014 A 
ATOM     16 C7   LIG A   1      40.383  79.523  68.813  1.00  0.00     0.002 A 
ATOM     17 C6   LIG A   1      41.739  79.406  69.131  1.00  0.00     0.001 A 
ENDBRANCH   1   8
TORSDOF 1
