REMARK SMILES COc1ccc(NC(=O)CN(C)C(=O)C(C)Oc2ccc(Br)cc2)cc1
REMARK SMILES IDX 11 1 12 2 10 3 8 4 7 5 9 6 6 8 3 9 4 10 26 11 5 12 25 13
REMARK SMILES IDX 2 14 1 15 13 16 14 17 15 18 16 19 17 20 18 21 19 22 24 23
REMARK SMILES IDX 20 24 23 25 21 26 22 27
REMARK H PARENT 7 7
ROOT
ATOM      1  N   UNL     1      -1.322   0.676   1.930  1.00  0.00    -0.333 N 
ATOM      2  C   UNL     1      -2.333  -0.367   1.812  1.00  0.00     0.147 C 
ENDROOT
BRANCH   1   3
ATOM      3  C   UNL     1      -0.293   0.461   2.947  1.00  0.00     0.219 C 
BRANCH   3   4
ATOM      4  C   UNL     1       0.796  -0.510   2.477  1.00  0.00     0.243 C 
ATOM      5  N   UNL     1       1.679   0.083   1.593  1.00  0.00    -0.325 N 
ATOM      6  O   UNL     1       0.812  -1.677   2.871  1.00  0.00    -0.273 OA
ATOM      7  H   UNL     1       1.423   1.018   1.280  1.00  0.00     0.169 HD
BRANCH   5   8
ATOM      8  C   UNL     1       2.817  -0.486   0.993  1.00  0.00     0.041 A 
ATOM      9  C   UNL     1       5.148  -1.459  -0.260  1.00  0.00     0.119 A 
ATOM     10  C   UNL     1       4.703  -0.154  -0.517  1.00  0.00     0.048 A 
ATOM     11  C   UNL     1       4.413  -2.271   0.603  1.00  0.00     0.048 A 
ATOM     12  C   UNL     1       3.545   0.326   0.110  1.00  0.00     0.030 A 
ATOM     13  C   UNL     1       3.258  -1.793   1.234  1.00  0.00     0.030 A 
BRANCH   9  14
ATOM     14  O   UNL     1       6.255  -2.046  -0.805  1.00  0.00    -0.497 OA
ATOM     15  C   UNL     1       7.152  -1.192  -1.509  1.00  0.00     0.278 C 
ENDBRANCH   9  14
ENDBRANCH   5   8
ENDBRANCH   3   4
ENDBRANCH   1   3
BRANCH   1  16
ATOM     16  C   UNL     1      -1.054   1.611   0.928  1.00  0.00     0.263 C 
ATOM     17  O   UNL     1       0.002   2.256   0.945  1.00  0.00    -0.271 OA
BRANCH  16  18
ATOM     18  C   UNL     1      -2.120   1.828  -0.173  1.00  0.00     0.259 C 
ATOM     19  C   UNL     1      -1.756   3.035  -1.033  1.00  0.00     0.064 C 
BRANCH  18  20
ATOM     20  O   UNL     1      -2.153   0.671  -1.008  1.00  0.00    -0.481 OA
BRANCH  20  21
ATOM     21  C   UNL     1      -3.360   0.253  -1.504  1.00  0.00     0.120 A 
ATOM     22  C   UNL     1      -4.541   0.997  -1.531  1.00  0.00     0.047 A 
ATOM     23  C   UNL     1      -3.360  -1.050  -2.015  1.00  0.00     0.047 A 
ATOM     24  C   UNL     1      -5.718   0.430  -2.041  1.00  0.00     0.019 A 
ATOM     25  C   UNL     1      -4.531  -1.618  -2.523  1.00  0.00     0.019 A 
ATOM     26  C   UNL     1      -5.707  -0.875  -2.537  1.00  0.00     0.018 A 
ATOM     27  Br  UNL     1      -7.303  -1.638  -3.213  1.00  0.00    -0.051 Br
ENDBRANCH  20  21
ENDBRANCH  18  20
ENDBRANCH  16  18
ENDBRANCH   1  16
TORSDOF 8
