REMARK SMILES CC(=O)NC(c1ccc2c(c1)OCO2)c1ccc2cccnc2c1O
REMARK SMILES IDX 15 1 16 2 17 3 18 4 19 5 20 6 21 7 22 8 23 9 24 10 5 11 4 12
REMARK SMILES IDX 2 13 3 14 1 15 6 17 7 18 11 19 8 20 10 21 9 22 12 23 14 24
REMARK SMILES IDX 13 25 25 26
REMARK H PARENT 4 16 25 27
ROOT
ATOM      1  C   UNL     1      -0.908   0.495  -0.036  1.00  0.00     0.023 A 
ATOM      2  C   UNL     1      -1.688   0.489  -1.202  1.00  0.00     0.011 A 
ATOM      3  C   UNL     1      -2.953  -0.104  -1.214  1.00  0.00     0.011 A 
ATOM      4  C   UNL     1      -3.466  -0.712  -0.057  1.00  0.00     0.004 A 
ATOM      5  C   UNL     1      -4.730  -1.317  -0.029  1.00  0.00     0.012 A 
ATOM      6  C   UNL     1      -5.188  -1.907   1.144  1.00  0.00     0.021 A 
ATOM      7  C   UNL     1      -4.364  -1.875   2.254  1.00  0.00     0.112 A 
ATOM      8  N   UNL     1      -3.139  -1.304   2.268  1.00  0.00    -0.252 NA
ATOM      9  C   UNL     1      -2.703  -0.729   1.125  1.00  0.00     0.112 A 
ATOM     10  C   UNL     1      -1.445  -0.127   1.103  1.00  0.00     0.147 A 
ENDROOT
BRANCH   1  11
ATOM     11  C   UNL     1       0.483   1.114   0.015  1.00  0.00     0.147 C 
BRANCH  11  12
ATOM     12  N   UNL     1       0.701   2.143  -1.000  1.00  0.00    -0.345 N 
ATOM     13  C   UNL     1       0.194   3.412  -0.860  1.00  0.00     0.217 C 
ATOM     14  O   UNL     1      -0.546   3.765   0.051  1.00  0.00    -0.275 OA
ATOM     15  C   UNL     1       0.639   4.367  -1.935  1.00  0.00     0.114 C 
ATOM     16  H   UNL     1       1.480   2.006  -1.627  1.00  0.00     0.164 HD
ENDBRANCH  11  12
BRANCH  11  17
ATOM     17  C   UNL     1       1.590   0.067  -0.105  1.00  0.00    -0.017 A 
ATOM     18  C   UNL     1       1.703  -0.760  -1.252  1.00  0.00     0.010 A 
ATOM     19  C   UNL     1       2.532  -0.068   0.932  1.00  0.00     0.056 A 
ATOM     20  C   UNL     1       2.728  -1.705  -1.365  1.00  0.00     0.051 A 
ATOM     21  C   UNL     1       3.531  -1.008   0.791  1.00  0.00     0.166 A 
ATOM     22  C   UNL     1       3.626  -1.803  -0.326  1.00  0.00     0.165 A 
ATOM     23  O   UNL     1       4.514  -1.264   1.695  1.00  0.00    -0.454 OA
ATOM     24  O   UNL     1       4.680  -2.660  -0.265  1.00  0.00    -0.454 OA
ATOM     25  C   UNL     1       5.227  -2.325   1.027  1.00  0.00     0.468 C 
ENDBRANCH  11  17
ENDBRANCH   1  11
BRANCH  10  26
ATOM     26  O   UNL     1      -0.705  -0.154   2.267  1.00  0.00    -0.505 OA
ATOM     27  H   UNL     1      -1.289  -0.621   2.904  1.00  0.00     0.293 HD
ENDBRANCH  10  26
TORSDOF 4
