REMARK SMILES O=C(O)COc1ccc(O)c(C(=O)/C=C/c2cccc(/C=C/c3ccc4ccccc4n3)c2)c1
REMARK SMILES IDX 6 1 7 2 8 3 9 4 11 5 34 6 5 7 4 8 2 9 1 10 3 11 12 13 13 14
REMARK SMILES IDX 14 15 15 16 16 17 17 18 33 19 18 20 20 21 19 22 21 23 22 24
REMARK SMILES IDX 23 25 24 26 32 27 25 28 31 29 26 30 30 31 27 32 29 33 28 34
REMARK SMILES IDX 10 35
REMARK H PARENT 3 12 10 36
ROOT
ATOM      1  C   UNL     1      -6.494  -0.594   0.461  1.00  0.00     0.121 A 
ATOM      2  C   UNL     1      -6.811  -0.596  -0.898  1.00  0.00     0.050 A 
ATOM      3  C   UNL     1      -5.853  -0.968  -1.849  1.00  0.00     0.051 A 
ATOM      4  C   UNL     1      -4.569  -1.330  -1.442  1.00  0.00     0.127 A 
ATOM      5  C   UNL     1      -4.237  -1.312  -0.085  1.00  0.00     0.067 A 
ATOM      6  C   UNL     1      -5.208  -0.968   0.863  1.00  0.00     0.062 A 
ENDROOT
BRANCH   1   7
ATOM      7  O   UNL     1      -7.335  -0.269   1.487  1.00  0.00    -0.482 OA
BRANCH   7   8
ATOM      8  C   UNL     1      -8.592   0.315   1.175  1.00  0.00     0.351 C 
BRANCH   8   9
ATOM      9  C   UNL     1      -9.689  -0.671   0.800  1.00  0.00     0.341 C 
ATOM     10  O   UNL     1      -9.610  -1.884   0.703  1.00  0.00    -0.248 OA
BRANCH   9  11
ATOM     11  O   UNL     1     -10.863  -0.050   0.549  1.00  0.00    -0.479 OA
ATOM     12  H   UNL     1     -11.479  -0.787   0.345  1.00  0.00     0.296 HD
ENDBRANCH   9  11
ENDBRANCH   8   9
ENDBRANCH   7   8
ENDBRANCH   1   7
BRANCH   5  13
ATOM     13  C   UNL     1      -2.901  -1.701   0.413  1.00  0.00     0.189 C 
ATOM     14  O   UNL     1      -2.807  -2.550   1.295  1.00  0.00    -0.289 OA
BRANCH  13  15
ATOM     15  C   UNL     1      -1.672  -1.044  -0.109  1.00  0.00     0.053 C 
ATOM     16  C   UNL     1      -1.643   0.165  -0.689  1.00  0.00     0.012 C 
BRANCH  16  17
ATOM     17  C   UNL     1      -0.419   0.813  -1.188  1.00  0.00    -0.025 A 
ATOM     18  C   UNL     1      -0.516   1.664  -2.296  1.00  0.00     0.008 A 
ATOM     19  C   UNL     1       0.829   0.656  -0.566  1.00  0.00     0.016 A 
ATOM     20  C   UNL     1       0.610   2.327  -2.784  1.00  0.00     0.001 A 
ATOM     21  C   UNL     1       1.972   1.302  -1.060  1.00  0.00    -0.025 A 
ATOM     22  C   UNL     1       1.848   2.148  -2.167  1.00  0.00     0.008 A 
BRANCH  21  23
ATOM     23  C   UNL     1       3.252   1.112  -0.363  1.00  0.00     0.010 C 
ATOM     24  C   UNL     1       4.431   0.975  -0.992  1.00  0.00     0.029 C 
BRANCH  24  25
ATOM     25  C   UNL     1       5.712   0.770  -0.298  1.00  0.00     0.064 A 
ATOM     26  C   UNL     1       6.883   0.632  -1.032  1.00  0.00     0.029 A 
ATOM     27  N   UNL     1       5.690   0.725   1.055  1.00  0.00    -0.248 NA
ATOM     28  C   UNL     1       8.080   0.441  -0.350  1.00  0.00     0.012 A 
ATOM     29  C   UNL     1       6.848   0.539   1.713  1.00  0.00     0.071 A 
ATOM     30  C   UNL     1       8.082   0.392   1.047  1.00  0.00     0.000 A 
ATOM     31  C   UNL     1       6.843   0.488   3.101  1.00  0.00     0.029 A 
ATOM     32  C   UNL     1       9.267   0.201   1.780  1.00  0.00     0.010 A 
ATOM     33  C   UNL     1       8.018   0.299   3.834  1.00  0.00     0.002 A 
ATOM     34  C   UNL     1       9.232   0.155   3.172  1.00  0.00     0.001 A 
ENDBRANCH  24  25
ENDBRANCH  21  23
ENDBRANCH  16  17
ENDBRANCH  13  15
ENDBRANCH   5  13
BRANCH   4  35
ATOM     35  O   UNL     1      -3.651  -1.719  -2.374  1.00  0.00    -0.507 OA
ATOM     36  H   UNL     1      -4.090  -1.839  -3.233  1.00  0.00     0.293 HD
ENDBRANCH   4  35
TORSDOF 10
