REMARK SMILES c1ccc(N2CCN(c3ncccn3)CC2)cc1
REMARK SMILES IDX 5 1 6 2 7 3 8 4 15 5 16 6 4 7 1 8 2 9 18 10 3 11 17 12 9 13
REMARK SMILES IDX 10 14 14 15 11 16 13 17 12 18
REMARK H PARENT
ROOT
ATOM      1  N   UNL     1       1.218  -0.035   0.352  1.00  0.00    -0.368 N 
ATOM      2  C   UNL     1       0.348  -1.045  -0.279  1.00  0.00     0.138 C 
ATOM      3  C   UNL     1      -0.918  -1.328   0.563  1.00  0.00     0.141 C 
ATOM      4  N   UNL     1      -1.670  -0.103   0.854  1.00  0.00    -0.337 N 
ATOM      5  C   UNL     1      -0.922   1.158   0.853  1.00  0.00     0.141 C 
ATOM      6  C   UNL     1       0.559   0.943   1.238  1.00  0.00     0.138 C 
ENDROOT
BRANCH   1   7
ATOM      7  C   UNL     1       2.582  -0.001   0.117  1.00  0.00     0.037 A 
ATOM      8  C   UNL     1       5.385   0.071  -0.364  1.00  0.00     0.000 A 
ATOM      9  C   UNL     1       4.537  -0.579  -1.252  1.00  0.00     0.002 A 
ATOM     10  C   UNL     1       4.851   0.685   0.761  1.00  0.00     0.002 A 
ATOM     11  C   UNL     1       3.158  -0.612  -1.010  1.00  0.00     0.026 A 
ATOM     12  C   UNL     1       3.469   0.647   0.993  1.00  0.00     0.026 A 
ENDBRANCH   1   7
BRANCH   4  13
ATOM     13  C   UNL     1      -3.001  -0.036   0.495  1.00  0.00     0.225 A 
ATOM     14  N   UNL     1      -3.592   1.170   0.425  1.00  0.00    -0.221 NA
ATOM     15  N   UNL     1      -3.672  -1.176   0.257  1.00  0.00    -0.221 NA
ATOM     16  C   UNL     1      -4.898   1.215   0.100  1.00  0.00     0.117 A 
ATOM     17  C   UNL     1      -4.977  -1.085  -0.063  1.00  0.00     0.117 A 
ATOM     18  C   UNL     1      -5.653   0.102  -0.159  1.00  0.00     0.040 A 
ENDBRANCH   4  13
TORSDOF 2
