REMARK SMILES Cc1oc(-c2ccccc2F)nc1C[S+]([O-])CC(=O)NC1CC1
REMARK SMILES IDX 14 1 13 2 2 3 3 4 4 5 12 6 1 7 5 8 6 9 10 10 7 11 9 12 8 13
REMARK SMILES IDX 11 14 15 15 16 16 17 17 18 18 19 19 20 20 21 22 22 23 23 24
REMARK H PARENT 20 21
ROOT
ATOM      1  C   UNL     1       0.878   0.564   1.199  1.00  0.00     0.336 C 
ENDROOT
BRANCH   1   2
ATOM      2  C   UNL     1      -0.459   0.630   0.561  1.00  0.00     0.132 A 
ATOM      3  C   UNL     1      -0.836   1.213  -0.631  1.00  0.00     0.129 A 
ATOM      4  O   UNL     1      -2.178   1.014  -0.786  1.00  0.00    -0.441 OA
ATOM      5  C   UNL     1      -2.561   0.319   0.327  1.00  0.00     0.229 A 
ATOM      6  N   UNL     1      -1.566   0.064   1.160  1.00  0.00    -0.209 NA
ATOM      7  C   UNL     1      -0.149   1.949  -1.707  1.00  0.00     0.090 C 
BRANCH   5   8
ATOM      8  C   UNL     1      -3.969  -0.041   0.451  1.00  0.00     0.073 A 
ATOM      9  C   UNL     1      -4.399  -0.735   1.597  1.00  0.00     0.017 A 
ATOM     10  C   UNL     1      -4.925   0.269  -0.522  1.00  0.00     0.135 A 
ATOM     11  C   UNL     1      -5.739  -1.101   1.758  1.00  0.00     0.001 A 
ATOM     12  C   UNL     1      -6.264  -0.094  -0.366  1.00  0.00     0.040 A 
ATOM     13  C   UNL     1      -6.672  -0.781   0.775  1.00  0.00     0.003 A 
ATOM     14  F   UNL     1      -4.589   0.927  -1.642  1.00  0.00    -0.206 F 
ENDBRANCH   5   8
ENDBRANCH   1   2
BRANCH   1  15
ATOM     15  S   UNL     1       1.362  -1.151   1.584  1.00  0.00    -0.037 S 
ATOM     16  O   UNL     1       2.896  -1.132   2.232  1.00  0.00    -0.616 OA
BRANCH  15  17
ATOM     17  C   UNL     1       1.508  -1.766  -0.116  1.00  0.00     0.375 C 
BRANCH  17  18
ATOM     18  C   UNL     1       2.498  -0.979  -0.940  1.00  0.00     0.270 C 
ATOM     19  O   UNL     1       2.153  -0.375  -1.954  1.00  0.00    -0.270 OA
ATOM     20  N   UNL     1       3.797  -1.012  -0.469  1.00  0.00    -0.349 N 
ATOM     21  H   UNL     1       3.923  -1.294   0.508  1.00  0.00     0.163 HD
BRANCH  20  22
ATOM     22  C   UNL     1       4.836  -0.234  -1.066  1.00  0.00     0.082 C 
ATOM     23  C   UNL     1       6.176  -0.107  -0.396  1.00  0.00     0.027 C 
ATOM     24  C   UNL     1       5.253   1.074  -0.452  1.00  0.00     0.027 C 
ENDBRANCH  20  22
ENDBRANCH  17  18
ENDBRANCH  15  17
ENDBRANCH   1  15
TORSDOF 6
