REMARK SMILES Cc1ccc(-c2cc(C(=O)O)c3cc(Br)ccc3n2)o1
REMARK SMILES IDX 6 1 7 2 8 3 12 4 13 5 14 6 15 7 16 8 17 9 18 10 19 11 5 12
REMARK SMILES IDX 2 13 3 14 20 15 4 16 1 17 9 18 10 19 11 20
REMARK H PARENT 11 21
ROOT
ATOM      1  C   UNL     1       0.490   0.227  -0.264  1.00  0.00     0.107 A 
ATOM      2  C   UNL     1       0.141  -0.878   0.485  1.00  0.00     0.048 A 
ATOM      3  C   UNL     1      -1.205  -1.056   0.807  1.00  0.00     0.071 A 
ATOM      4  C   UNL     1      -2.180  -0.109   0.411  1.00  0.00     0.016 A 
ATOM      5  C   UNL     1      -3.561  -0.161   0.736  1.00  0.00     0.027 A 
ATOM      6  C   UNL     1      -4.439   0.826   0.294  1.00  0.00     0.018 A 
ATOM      7  Br  UNL     1      -6.273   0.727   0.737  1.00  0.00    -0.051 Br
ATOM      8  C   UNL     1      -3.968   1.882  -0.469  1.00  0.00     0.018 A 
ATOM      9  C   UNL     1      -2.608   1.946  -0.780  1.00  0.00     0.030 A 
ATOM     10  C   UNL     1      -1.708   0.979  -0.352  1.00  0.00     0.072 A 
ATOM     11  N   UNL     1      -0.418   1.138  -0.683  1.00  0.00    -0.244 NA
ENDROOT
BRANCH   1  12
ATOM     12  C   UNL     1       1.861   0.504  -0.669  1.00  0.00     0.152 A 
ATOM     13  C   UNL     1       4.012   0.048  -0.760  1.00  0.00     0.101 A 
ATOM     14  C   UNL     1       3.839   1.226  -1.452  1.00  0.00     0.046 A 
ATOM     15  O   UNL     1       2.816  -0.396  -0.283  1.00  0.00    -0.460 OA
ATOM     16  C   UNL     1       2.455   1.519  -1.394  1.00  0.00     0.053 A 
ATOM     17  C   UNL     1       5.189  -0.786  -0.449  1.00  0.00     0.087 C 
ENDBRANCH   1  12
BRANCH   3  18
ATOM     18  C   UNL     1      -1.513  -2.269   1.588  1.00  0.00     0.336 C 
ATOM     19  O   UNL     1      -0.858  -2.697   2.519  1.00  0.00    -0.246 OA
BRANCH  18  20
ATOM     20  O   UNL     1      -2.562  -2.943   1.091  1.00  0.00    -0.478 OA
ATOM     21  H   UNL     1      -2.612  -3.754   1.640  1.00  0.00     0.297 HD
ENDBRANCH  18  20
ENDBRANCH   3  18
TORSDOF 3
