REMARK SMILES COc1ccc(CN2C3CC2CN(c2ccc(-c4cc(OCC(C)(C)O)cn5ncc(C#N)c45)cn2)C3)cn1
REMARK SMILES IDX 18 1 19 2 20 3 27 4 28 5 29 6 30 7 31 8 32 9 33 10 34 11
REMARK SMILES IDX 17 12 14 13 15 14 36 15 16 16 35 17 13 18 8 19 11 20 9 21
REMARK SMILES IDX 10 22 12 23 37 24 7 25 6 26 3 27 4 28 39 29 5 30 38 31 2 32
REMARK SMILES IDX 1 33 21 34 22 35 23 36 24 37 25 38 26 39
REMARK H PARENT 26 40
ROOT
ATOM      1  C   UNL     1      -3.526  -1.061  -0.674  1.00  0.00     0.014 C 
ATOM      2  C   UNL     1      -4.324   0.020  -0.841  1.00  0.00     0.059 C 
ATOM      3  C   UNL     1      -5.770  -0.075  -0.959  1.00  0.00     0.138 C 
ATOM      4  C   UNL     1      -6.332  -1.294  -0.919  1.00  0.00     0.159 C 
ATOM      5  N   UNL     1      -5.538  -2.425  -0.755  1.00  0.00    -0.235 N 
ATOM      6  N   UNL     1      -5.974  -3.713  -0.702  1.00  0.00    -0.175 NA
ATOM      7  C   UNL     1      -4.875  -4.440  -0.515  1.00  0.00     0.155 A 
ATOM      8  C   UNL     1      -3.714  -3.659  -0.456  1.00  0.00     0.098 A 
ATOM      9  C   UNL     1      -2.386  -4.139  -0.270  1.00  0.00     0.103 C 
ATOM     10  N   UNL     1      -1.315  -4.564  -0.134  1.00  0.00    -0.192 NA
ATOM     11  C   UNL     1      -4.144  -2.358  -0.623  1.00  0.00     0.092 A 
ENDROOT
BRANCH   1  12
ATOM     12  C   UNL     1      -2.078  -0.804  -0.591  1.00  0.00     0.003 A 
ATOM     13  C   UNL     1       0.660  -0.284  -0.362  1.00  0.00     0.128 A 
ATOM     14  C   UNL     1       0.155  -0.941  -1.486  1.00  0.00     0.047 A 
ATOM     15  N   UNL     1      -0.186   0.128   0.610  1.00  0.00    -0.239 NA
ATOM     16  C   UNL     1      -1.214  -1.200  -1.605  1.00  0.00     0.014 A 
ATOM     17  C   UNL     1      -1.508  -0.144   0.489  1.00  0.00     0.122 A 
BRANCH  13  18
ATOM     18  N   UNL     1       2.011   0.002  -0.228  1.00  0.00    -0.353 N 
ATOM     19  N   UNL     1       4.559  -0.671   1.013  1.00  0.00    -0.289 NA
ATOM     20  C   UNL     1       4.465  -0.461  -0.462  1.00  0.00     0.078 C 
ATOM     21  C   UNL     1       3.979   0.700   1.163  1.00  0.00     0.078 C 
ATOM     22  C   UNL     1       4.588   1.067  -0.218  1.00  0.00     0.042 C 
ATOM     23  C   UNL     1       3.024  -0.810  -0.937  1.00  0.00     0.137 C 
ATOM     24  C   UNL     1       2.429   0.605   1.062  1.00  0.00     0.137 C 
BRANCH  19  25
ATOM     25  C   UNL     1       5.883  -0.907   1.588  1.00  0.00     0.122 C 
BRANCH  25  26
ATOM     26  C   UNL     1       7.059  -0.036   1.240  1.00  0.00    -0.015 A 
ATOM     27  C   UNL     1       9.234   1.480   0.533  1.00  0.00     0.212 A 
ATOM     28  C   UNL     1       8.481   1.874   1.626  1.00  0.00     0.069 A 
ATOM     29  N   UNL     1       8.964   0.384  -0.206  1.00  0.00    -0.222 NA
ATOM     30  C   UNL     1       7.380   1.102   1.986  1.00  0.00     0.012 A 
ATOM     31  C   UNL     1       7.890  -0.348   0.167  1.00  0.00     0.120 A 
BRANCH  27  32
ATOM     32  O   UNL     1      10.312   2.281   0.214  1.00  0.00    -0.481 OA
ATOM     33  C   UNL     1      11.055   1.796  -0.900  1.00  0.00     0.280 C 
ENDBRANCH  27  32
ENDBRANCH  25  26
ENDBRANCH  19  25
ENDBRANCH  13  18
ENDBRANCH   1  12
BRANCH   3  34
ATOM     34  O   UNL     1      -6.379   1.141  -1.101  1.00  0.00    -0.489 OA
BRANCH  34  35
ATOM     35  C   UNL     1      -7.805   1.221  -1.212  1.00  0.00     0.264 C 
BRANCH  35  36
ATOM     36  C   UNL     1      -8.514   1.338   0.159  1.00  0.00     0.093 C 
ATOM     37  C   UNL     1      -7.814   2.343   1.078  1.00  0.00     0.045 C 
ATOM     38  C   UNL     1      -9.978   1.733  -0.051  1.00  0.00     0.045 C 
BRANCH  36  39
ATOM     39  O   UNL     1      -8.513   0.060   0.808  1.00  0.00    -0.387 OA
ATOM     40  H   UNL     1      -8.891   0.172   1.697  1.00  0.00     0.211 HD
ENDBRANCH  36  39
ENDBRANCH  35  36
ENDBRANCH  34  35
ENDBRANCH   3  34
TORSDOF 9
