REMARK SMILES CN(C)c1ccc(NC(=O)C(=O)C2C(=O)Nc3ccccc32)cc1
REMARK SMILES IDX 8 1 9 2 10 3 7 5 4 6 5 7 24 8 6 9 23 10 2 11 1 12 3 13 11 14
REMARK SMILES IDX 12 15 13 16 14 17 22 18 15 19 16 20 21 21 17 22 20 23 18 24
REMARK SMILES IDX 19 25
REMARK H PARENT 8 4 16 26
ROOT
ATOM      1  N   UNL     1      -0.220  -0.326   0.444  1.00  0.00    -0.319 N 
ATOM      2  C   UNL     1       0.738   0.529  -0.060  1.00  0.00     0.292 C 
ATOM      3  O   UNL     1       0.598   1.610  -0.608  1.00  0.00    -0.265 OA
ATOM      4  H   UNL     1       0.149  -1.149   0.915  1.00  0.00     0.170 HD
ENDROOT
BRANCH   1   5
ATOM      5  C   UNL     1      -1.615  -0.168   0.412  1.00  0.00     0.041 A 
ATOM      6  C   UNL     1      -4.477   0.002   0.420  1.00  0.00     0.036 A 
ATOM      7  C   UNL     1      -3.790  -1.059   1.034  1.00  0.00     0.028 A 
ATOM      8  C   UNL     1      -3.667   0.982  -0.179  1.00  0.00     0.028 A 
ATOM      9  C   UNL     1      -2.389  -1.149   1.028  1.00  0.00     0.028 A 
ATOM     10  C   UNL     1      -2.264   0.901  -0.192  1.00  0.00     0.028 A 
BRANCH   6  11
ATOM     11  N   UNL     1      -5.874   0.095   0.443  1.00  0.00    -0.378 N 
ATOM     12  C   UNL     1      -6.533   1.089  -0.403  1.00  0.00     0.143 C 
ATOM     13  C   UNL     1      -6.655  -1.108   0.725  1.00  0.00     0.143 C 
ENDBRANCH   6  11
ENDBRANCH   1   5
BRANCH   2  14
ATOM     14  C   UNL     1       2.151  -0.004   0.170  1.00  0.00     0.237 C 
ATOM     15  O   UNL     1       2.304  -0.905   0.991  1.00  0.00    -0.287 OA
BRANCH  14  16
ATOM     16  C   UNL     1       3.225   0.614  -0.677  1.00  0.00     0.188 C 
ATOM     17  C   UNL     1       3.247  -0.031  -2.066  1.00  0.00     0.240 C 
ATOM     18  C   UNL     1       4.636   0.370  -0.200  1.00  0.00    -0.004 A 
ATOM     19  O   UNL     1       2.304  -0.162  -2.829  1.00  0.00    -0.273 OA
ATOM     20  N   UNL     1       4.539  -0.482  -2.305  1.00  0.00    -0.325 N 
ATOM     21  C   UNL     1       5.244   0.700   0.999  1.00  0.00     0.007 A 
ATOM     22  C   UNL     1       5.358  -0.262  -1.210  1.00  0.00     0.045 A 
ATOM     23  C   UNL     1       6.592   0.369   1.161  1.00  0.00     0.000 A 
ATOM     24  C   UNL     1       6.688  -0.598  -1.075  1.00  0.00     0.026 A 
ATOM     25  C   UNL     1       7.308  -0.275   0.134  1.00  0.00     0.002 A 
ATOM     26  H   UNL     1       4.808  -0.954  -3.156  1.00  0.00     0.169 HD
ENDBRANCH  14  16
ENDBRANCH   2  14
TORSDOF 4
