REMARK SMILES CCOC(=O)C1=C(COC(=O)c2ccc([N+](=O)[O-])s2)NC(=O)NC1C
REMARK SMILES IDX 8 1 7 2 6 3 24 4 20 5 23 6 21 7 22 8 25 9 4 12 5 13 3 14
REMARK SMILES IDX 2 15 1 16 9 17 10 18 11 19 12 20 13 21 19 22 14 23 15 24
REMARK SMILES IDX 16 25 17 26 18 27
REMARK H PARENT 20 10 23 11
ROOT
ATOM      1  C   UNL     1      -0.127   0.489  -1.671  1.00  0.00     0.287 C 
ENDROOT
BRANCH   1   2
ATOM      2  C   UNL     1       0.645  -0.572  -0.913  1.00  0.00     0.070 C 
ATOM      3  C   UNL     1       1.600  -0.381   0.024  1.00  0.00     0.082 C 
ATOM      4  C   UNL     1       2.355  -1.560   0.591  1.00  0.00     0.120 C 
ATOM      5  N   UNL     1       0.325  -1.875  -1.261  1.00  0.00    -0.308 N 
ATOM      6  N   UNL     1       1.556  -2.766   0.471  1.00  0.00    -0.331 N 
ATOM      7  C   UNL     1       0.720  -2.988  -0.578  1.00  0.00     0.319 C 
ATOM      8  O   UNL     1       0.319  -4.111  -0.855  1.00  0.00    -0.248 OA
ATOM      9  C   UNL     1       3.697  -1.767  -0.119  1.00  0.00     0.036 C 
ATOM     10  H   UNL     1      -0.385  -2.045  -1.972  1.00  0.00     0.171 HD
ATOM     11  H   UNL     1       1.867  -3.611   0.930  1.00  0.00     0.166 HD
BRANCH   3  12
ATOM     12  C   UNL     1       1.928   0.972   0.553  1.00  0.00     0.338 C 
ATOM     13  O   UNL     1       1.236   1.966   0.403  1.00  0.00    -0.246 OA
BRANCH  12  14
ATOM     14  O   UNL     1       3.101   0.939   1.235  1.00  0.00    -0.463 OA
BRANCH  14  15
ATOM     15  C   UNL     1       3.532   2.183   1.810  1.00  0.00     0.230 C 
ATOM     16  C   UNL     1       4.324   2.980   0.791  1.00  0.00     0.049 C 
ENDBRANCH  14  15
ENDBRANCH  12  14
ENDBRANCH   3  12
ENDBRANCH   1   2
BRANCH   1  17
ATOM     17  O   UNL     1      -1.446   0.624  -1.121  1.00  0.00    -0.455 OA
BRANCH  17  18
ATOM     18  C   UNL     1      -2.390  -0.220  -1.620  1.00  0.00     0.348 C 
ATOM     19  O   UNL     1      -2.165  -1.068  -2.478  1.00  0.00    -0.245 OA
BRANCH  18  20
ATOM     20  C   UNL     1      -3.687  -0.004  -1.000  1.00  0.00     0.119 A 
ATOM     21  C   UNL     1      -4.851  -0.708  -1.265  1.00  0.00     0.035 A 
ATOM     22  S   UNL     1      -3.958   1.200   0.194  1.00  0.00    -0.056 S 
ATOM     23  C   UNL     1      -5.959  -0.256  -0.486  1.00  0.00     0.100 A 
ATOM     24  C   UNL     1      -5.596   0.780   0.346  1.00  0.00     0.324 A 
BRANCH  24  25
ATOM     25  N   UNL     1      -6.453   1.479   1.269  1.00  0.00     0.074 N 
ATOM     26  O   UNL     1      -5.966   2.389   1.950  1.00  0.00    -0.258 OA
ATOM     27  O   UNL     1      -7.634   1.107   1.308  1.00  0.00    -0.258 OA
ENDBRANCH  24  25
ENDBRANCH  18  20
ENDBRANCH  17  18
ENDBRANCH   1  17
TORSDOF 8
