REMARK SMILES CCOc1ccc(NC(=O)Cn2c(=O)n(CC(=O)NCc3ccccc3Cl)c(=O)c3sccc32)cc1
REMARK SMILES IDX 12 1 13 2 14 3 15 4 28 5 29 6 30 7 31 8 32 9 33 10 34 11
REMARK SMILES IDX 11 12 9 13 8 14 10 15 7 17 4 18 5 19 36 20 6 21 35 22 3 23
REMARK SMILES IDX 2 24 1 25 16 26 17 27 18 28 19 29 20 31 21 32 22 33 26 34
REMARK SMILES IDX 23 35 25 36 24 37 27 38
REMARK H PARENT 8 16 19 30
ROOT
ATOM      1  N   UNL     1       0.094  -0.557  -1.357  1.00  0.00    -0.283 N 
ATOM      2  C   UNL     1       0.834   0.227  -0.466  1.00  0.00     0.332 C 
ATOM      3  O   UNL     1       0.516   1.397  -0.242  1.00  0.00    -0.247 OA
ATOM      4  N   UNL     1       1.940  -0.364   0.151  1.00  0.00    -0.249 N 
ATOM      5  C   UNL     1       2.390  -1.664  -0.088  1.00  0.00     0.274 C 
ATOM      6  O   UNL     1       3.448  -2.083   0.388  1.00  0.00    -0.268 OA
ATOM      7  C   UNL     1       1.547  -2.415  -0.971  1.00  0.00     0.116 A 
ATOM      8  S   UNL     1       1.829  -4.038  -1.373  1.00  0.00    -0.136 S 
ATOM      9  C   UNL     1       0.432  -4.080  -2.364  1.00  0.00     0.068 A 
ATOM     10  C   UNL     1      -0.220  -2.863  -2.386  1.00  0.00     0.039 A 
ATOM     11  C   UNL     1       0.438  -1.890  -1.579  1.00  0.00     0.070 A 
ENDROOT
BRANCH   1  12
ATOM     12  C   UNL     1      -1.103   0.052  -1.935  1.00  0.00     0.227 C 
BRANCH  12  13
ATOM     13  C   UNL     1      -2.324  -0.137  -1.021  1.00  0.00     0.244 C 
ATOM     14  N   UNL     1      -3.314   0.806  -1.268  1.00  0.00    -0.325 N 
ATOM     15  O   UNL     1      -2.396  -1.066  -0.221  1.00  0.00    -0.273 OA
ATOM     16  H   UNL     1      -3.089   1.550  -1.916  1.00  0.00     0.169 HD
BRANCH  14  17
ATOM     17  C   UNL     1      -4.585   0.894  -0.662  1.00  0.00     0.041 A 
ATOM     18  C   UNL     1      -7.162   1.208   0.448  1.00  0.00     0.119 A 
ATOM     19  C   UNL     1      -6.679   2.114  -0.497  1.00  0.00     0.048 A 
ATOM     20  C   UNL     1      -6.354   0.142   0.830  1.00  0.00     0.048 A 
ATOM     21  C   UNL     1      -5.402   1.962  -1.047  1.00  0.00     0.030 A 
ATOM     22  C   UNL     1      -5.074  -0.014   0.278  1.00  0.00     0.030 A 
BRANCH  18  23
ATOM     23  O   UNL     1      -8.423   1.475   0.896  1.00  0.00    -0.494 OA
BRANCH  23  24
ATOM     24  C   UNL     1      -8.956   0.694   1.964  1.00  0.00     0.226 C 
ATOM     25  C   UNL     1      -9.684  -0.525   1.427  1.00  0.00     0.049 C 
ENDBRANCH  23  24
ENDBRANCH  18  23
ENDBRANCH  14  17
ENDBRANCH  12  13
ENDBRANCH   1  12
BRANCH   4  26
ATOM     26  C   UNL     1       2.705   0.455   1.088  1.00  0.00     0.230 C 
BRANCH  26  27
ATOM     27  C   UNL     1       3.887   1.154   0.409  1.00  0.00     0.240 C 
ATOM     28  O   UNL     1       4.102   2.356   0.548  1.00  0.00    -0.273 OA
ATOM     29  N   UNL     1       4.745   0.313  -0.268  1.00  0.00    -0.350 N 
ATOM     30  H   UNL     1       4.651  -0.685  -0.096  1.00  0.00     0.163 HD
BRANCH  29  31
ATOM     31  C   UNL     1       6.011   0.778  -0.798  1.00  0.00     0.153 C 
BRANCH  31  32
ATOM     32  C   UNL     1       7.138   0.649   0.202  1.00  0.00    -0.010 A 
ATOM     33  C   UNL     1       7.332  -0.579   0.867  1.00  0.00     0.007 A 
ATOM     34  C   UNL     1       8.045   1.690   0.464  1.00  0.00     0.046 A 
ATOM     35  C   UNL     1       8.371  -0.749   1.785  1.00  0.00     0.000 A 
ATOM     36  C   UNL     1       9.085   1.515   1.384  1.00  0.00     0.021 A 
ATOM     37  C   UNL     1       9.246   0.300   2.047  1.00  0.00     0.002 A 
ATOM     38  Cl  UNL     1       7.960   3.219  -0.336  1.00  0.00    -0.084 Cl
ENDBRANCH  31  32
ENDBRANCH  29  31
ENDBRANCH  26  27
ENDBRANCH   4  26
TORSDOF 9
