REMARK SMILES COc1cc2c(cc1OC)CN(C(=O)CSC1=NCCS1)CC2
REMARK SMILES IDX 13 1 14 2 12 3 3 4 4 5 8 6 5 7 7 8 6 9 23 10 11 11 22 12
REMARK SMILES IDX 2 13 1 14 9 15 10 16 15 17 16 18 17 19 18 20 21 21 19 22
REMARK SMILES IDX 20 23
REMARK H PARENT
ROOT
ATOM      1  C   UNL     1       2.046   2.046   0.824  1.00  0.00     0.233 C 
ATOM      2  O   UNL     1       2.903   1.927   1.704  1.00  0.00    -0.274 OA
ENDROOT
BRANCH   1   3
ATOM      3  N   UNL     1       0.810   1.417   0.906  1.00  0.00    -0.337 N 
ATOM      4  C   UNL     1      -3.485  -1.252  -0.048  1.00  0.00     0.161 A 
ATOM      5  C   UNL     1      -2.392  -1.415   0.808  1.00  0.00     0.054 A 
ATOM      6  C   UNL     1      -3.522  -0.124  -0.877  1.00  0.00     0.161 A 
ATOM      7  C   UNL     1      -1.364  -0.456   0.855  1.00  0.00    -0.037 A 
ATOM      8  C   UNL     1      -2.511   0.839  -0.831  1.00  0.00     0.056 A 
ATOM      9  C   UNL     1      -1.413   0.675   0.024  1.00  0.00    -0.021 A 
ATOM     10  C   UNL     1      -0.180  -0.668   1.765  1.00  0.00     0.057 C 
ATOM     11  C   UNL     1      -0.320   1.719   0.028  1.00  0.00     0.155 C 
ATOM     12  C   UNL     1       0.496   0.656   2.112  1.00  0.00     0.124 C 
BRANCH   4  13
ATOM     13  O   UNL     1      -4.539  -2.120  -0.149  1.00  0.00    -0.493 OA
ATOM     14  C   UNL     1      -4.606  -3.177   0.800  1.00  0.00     0.278 C 
ENDBRANCH   4  13
BRANCH   6  15
ATOM     15  O   UNL     1      -4.576   0.126  -1.722  1.00  0.00    -0.493 OA
ATOM     16  C   UNL     1      -4.465  -0.669  -2.903  1.00  0.00     0.278 C 
ENDBRANCH   6  15
ENDBRANCH   1   3
BRANCH   1  17
ATOM     17  C   UNL     1       2.357   2.900  -0.398  1.00  0.00     0.177 C 
BRANCH  17  18
ATOM     18  S   UNL     1       2.863   1.893  -1.818  1.00  0.00    -0.090 SA
BRANCH  18  19
ATOM     19  C   UNL     1       4.085   0.936  -1.052  1.00  0.00     0.125 C 
ATOM     20  N   UNL     1       3.857  -0.273  -0.662  1.00  0.00    -0.271 NA
ATOM     21  S   UNL     1       5.683   1.592  -0.867  1.00  0.00    -0.098 SA
ATOM     22  C   UNL     1       5.066  -0.779   0.020  1.00  0.00     0.155 C 
ATOM     23  C   UNL     1       6.300  -0.064  -0.511  1.00  0.00     0.101 C 
ENDBRANCH  18  19
ENDBRANCH  17  18
ENDBRANCH   1  17
TORSDOF 6
