REMARK SMILES O=C1NC(=O)C(=Cc2ccccc2OCCOc2ccc([N+](=O)[O-])cc2)C(=O)N1
REMARK SMILES IDX 15 1 14 2 13 3 8 4 9 5 10 6 12 7 11 8 7 9 1 10 2 11 3 12
REMARK SMILES IDX 29 13 4 14 27 15 5 16 6 17 28 18 16 21 17 22 18 23 19 24
REMARK SMILES IDX 26 25 20 26 25 27 21 28 22 29 23 30 24 31
REMARK H PARENT 3 19 29 20
ROOT
ATOM      1  C   UNL     1       0.134  -1.582  -2.383  1.00  0.00     0.271 C 
ENDROOT
BRANCH   1   2
ATOM      2  O   UNL     1      -1.067  -1.279  -1.657  1.00  0.00    -0.489 OA
BRANCH   2   3
ATOM      3  C   UNL     1      -1.292  -2.084  -0.569  1.00  0.00     0.126 A 
ATOM      4  C   UNL     1      -1.481  -1.472   0.682  1.00  0.00     0.018 A 
ATOM      5  C   UNL     1      -1.714  -2.268   1.809  1.00  0.00     0.012 A 
ATOM      6  C   UNL     1      -1.789  -3.657   1.685  1.00  0.00     0.001 A 
ATOM      7  C   UNL     1      -1.397  -3.471  -0.694  1.00  0.00     0.047 A 
ATOM      8  C   UNL     1      -1.638  -4.256   0.435  1.00  0.00     0.004 A 
BRANCH   4   9
ATOM      9  C   UNL     1      -1.404  -0.014   0.843  1.00  0.00     0.031 C 
ATOM     10  O   UNL     1      -4.802   3.738  -1.004  1.00  0.00    -0.248 OA
ATOM     11  C   UNL     1      -4.023   2.873  -0.617  1.00  0.00     0.328 C 
ATOM     12  N   UNL     1      -4.284   1.549  -0.787  1.00  0.00    -0.273 N 
ATOM     13  N   UNL     1      -2.873   3.191   0.035  1.00  0.00    -0.273 N 
ATOM     14  C   UNL     1      -3.629   0.517  -0.174  1.00  0.00     0.264 C 
ATOM     15  C   UNL     1      -1.982   2.317   0.589  1.00  0.00     0.264 C 
ATOM     16  O   UNL     1      -4.150  -0.590  -0.103  1.00  0.00    -0.269 OA
ATOM     17  C   UNL     1      -2.323   0.880   0.433  1.00  0.00     0.106 C 
ATOM     18  O   UNL     1      -0.982   2.722   1.174  1.00  0.00    -0.269 OA
ATOM     19  H   UNL     1      -5.187   1.324  -1.178  1.00  0.00     0.175 HD
ATOM     20  H   UNL     1      -2.680   4.175   0.156  1.00  0.00     0.175 HD
ENDBRANCH   4   9
ENDBRANCH   2   3
ENDBRANCH   1   2
BRANCH   1  21
ATOM     21  C   UNL     1       1.404  -1.229  -1.601  1.00  0.00     0.271 C 
BRANCH  21  22
ATOM     22  O   UNL     1       1.425   0.183  -1.365  1.00  0.00    -0.490 OA
BRANCH  22  23
ATOM     23  C   UNL     1       2.382   0.649  -0.507  1.00  0.00     0.119 A 
ATOM     24  C   UNL     1       2.177   1.958  -0.058  1.00  0.00     0.053 A 
ATOM     25  C   UNL     1       3.508  -0.057  -0.080  1.00  0.00     0.053 A 
ATOM     26  C   UNL     1       3.074   2.560   0.827  1.00  0.00     0.089 A 
ATOM     27  C   UNL     1       4.418   0.537   0.803  1.00  0.00     0.089 A 
ATOM     28  C   UNL     1       4.196   1.844   1.255  1.00  0.00     0.269 A 
BRANCH  28  29
ATOM     29  N   UNL     1       5.150   2.465   2.183  1.00  0.00     0.062 N 
ATOM     30  O   UNL     1       6.122   1.787   2.547  1.00  0.00    -0.258 OA
ATOM     31  O   UNL     1       4.930   3.629   2.546  1.00  0.00    -0.258 OA
ENDBRANCH  28  29
ENDBRANCH  22  23
ENDBRANCH  21  22
ENDBRANCH   1  21
TORSDOF 7
