REMARK SMILES C[C@H](CS)C(=O)N1CCC[C@H]1C(=O)O
REMARK SMILES IDX 5 1 6 2 2 3 1 4 3 5 4 6 7 8 8 9 11 10 9 11 10 12 12 13 13 14
REMARK SMILES IDX 14 15
REMARK H PARENT 4 7 14 16
ROOT
ATOM      1  C   UNL     1       0.741  -1.007  -0.366  1.00  0.00     0.226 C 
ATOM      2  O   UNL     1       1.105  -2.165  -0.580  1.00  0.00    -0.275 OA
ENDROOT
BRANCH   1   3
ATOM      3  C   UNL     1       1.726   0.155  -0.472  1.00  0.00     0.085 C 
ATOM      4  C   UNL     1       1.678   0.708  -1.899  1.00  0.00     0.019 C 
BRANCH   3   5
ATOM      5  C   UNL     1       3.125  -0.348  -0.091  1.00  0.00     0.079 C 
BRANCH   5   6
ATOM      6  S   UNL     1       4.315   1.014   0.145  1.00  0.00    -0.179 SA
ATOM      7  H   UNL     1       3.755   1.511   1.258  1.00  0.00     0.102 HD
ENDBRANCH   5   6
ENDBRANCH   3   5
ENDBRANCH   1   3
BRANCH   1   8
ATOM      8  N   UNL     1      -0.578  -0.718  -0.088  1.00  0.00    -0.329 N 
ATOM      9  C   UNL     1      -1.572  -1.778  -0.080  1.00  0.00     0.120 C 
ATOM     10  C   UNL     1      -1.187   0.589   0.198  1.00  0.00     0.195 C 
ATOM     11  C   UNL     1      -2.852  -1.116   0.403  1.00  0.00     0.024 C 
ATOM     12  C   UNL     1      -2.678   0.334  -0.037  1.00  0.00     0.039 C 
BRANCH  10  13
ATOM     13  C   UNL     1      -0.910   1.033   1.642  1.00  0.00     0.326 C 
ATOM     14  O   UNL     1      -0.075   0.576   2.406  1.00  0.00    -0.250 OA
BRANCH  13  15
ATOM     15  O   UNL     1      -1.648   2.099   2.018  1.00  0.00    -0.480 OA
ATOM     16  H   UNL     1      -1.347   2.287   2.933  1.00  0.00     0.296 HD
ENDBRANCH  13  15
ENDBRANCH  10  13
ENDBRANCH   1   8
TORSDOF 6
