REMARK SMILES N#CCSc1ccccc1NC(=O)CN1C(=O)C(=O)N(Cc2ccccc2)C1=O
REMARK SMILES IDX 11 1 12 2 13 3 10 5 5 6 6 7 7 8 9 9 8 10 4 11 3 12 1 13 2 14
REMARK SMILES IDX 14 15 15 16 16 17 28 18 17 19 18 20 20 21 29 22 19 23 21 24
REMARK SMILES IDX 22 25 23 26 27 27 24 28 26 29 25 30
REMARK H PARENT 11 4
ROOT
ATOM      1  N   UNL     1      -2.233   0.671  -1.358  1.00  0.00    -0.324 N 
ATOM      2  C   UNL     1      -1.588   1.886  -1.498  1.00  0.00     0.244 C 
ATOM      3  O   UNL     1      -2.001   2.973  -1.106  1.00  0.00    -0.273 OA
ATOM      4  H   UNL     1      -1.697  -0.172  -1.552  1.00  0.00     0.170 HD
ENDROOT
BRANCH   1   5
ATOM      5  C   UNL     1      -3.530   0.424  -0.850  1.00  0.00     0.054 A 
ATOM      6  C   UNL     1      -3.911  -0.920  -0.636  1.00  0.00     0.032 A 
ATOM      7  C   UNL     1      -5.194  -1.221  -0.162  1.00  0.00     0.017 A 
ATOM      8  C   UNL     1      -6.095  -0.195   0.117  1.00  0.00     0.001 A 
ATOM      9  C   UNL     1      -4.445   1.440  -0.567  1.00  0.00     0.027 A 
ATOM     10  C   UNL     1      -5.720   1.131  -0.083  1.00  0.00     0.002 A 
BRANCH   6  11
ATOM     11  S   UNL     1      -2.775  -2.277  -0.952  1.00  0.00    -0.109 SA
BRANCH  11  12
ATOM     12  C   UNL     1      -1.992  -2.380   0.699  1.00  0.00     0.194 C 
ATOM     13  N   UNL     1      -3.487  -3.602   2.485  1.00  0.00    -0.197 NA
ATOM     14  C   UNL     1      -2.831  -3.063   1.692  1.00  0.00     0.073 C 
ENDBRANCH  11  12
ENDBRANCH   6  11
ENDBRANCH   1   5
BRANCH   2  15
ATOM     15  C   UNL     1      -0.185   1.743  -2.086  1.00  0.00     0.231 C 
BRANCH  15  16
ATOM     16  N   UNL     1       0.752   1.805  -0.989  1.00  0.00    -0.246 N 
ATOM     17  C   UNL     1       1.497   2.886  -0.655  1.00  0.00     0.321 C 
ATOM     18  C   UNL     1       0.995   0.777  -0.121  1.00  0.00     0.335 C 
ATOM     19  O   UNL     1       1.582   3.967  -1.197  1.00  0.00    -0.263 OA
ATOM     20  C   UNL     1       2.294   2.447   0.588  1.00  0.00     0.320 C 
ATOM     21  N   UNL     1       1.911   1.166   0.814  1.00  0.00    -0.251 N 
ATOM     22  O   UNL     1       0.446  -0.318  -0.177  1.00  0.00    -0.247 OA
ATOM     23  O   UNL     1       3.086   3.136   1.194  1.00  0.00    -0.263 OA
BRANCH  21  24
ATOM     24  C   UNL     1       2.443   0.326   1.860  1.00  0.00     0.166 C 
BRANCH  24  25
ATOM     25  C   UNL     1       3.645  -0.451   1.377  1.00  0.00    -0.028 A 
ATOM     26  C   UNL     1       3.492  -1.730   0.822  1.00  0.00     0.005 A 
ATOM     27  C   UNL     1       4.926   0.117   1.435  1.00  0.00     0.005 A 
ATOM     28  C   UNL     1       4.602  -2.432   0.351  1.00  0.00     0.000 A 
ATOM     29  C   UNL     1       6.033  -0.588   0.963  1.00  0.00     0.000 A 
ATOM     30  C   UNL     1       5.872  -1.862   0.423  1.00  0.00     0.000 A 
ENDBRANCH  24  25
ENDBRANCH  21  24
ENDBRANCH  15  16
ENDBRANCH   2  15
TORSDOF 7
