REMARK SMILES O=C1CN=C(c2ccccn2)c2cc(Br)ccc2N1
REMARK SMILES IDX 1 1 2 2 3 3 4 4 5 5 12 6 13 7 14 8 15 9 16 10 17 11 18 12
REMARK SMILES IDX 19 13 6 15 7 16 11 17 8 18 10 19 9 20
REMARK H PARENT 19 14
ROOT
ATOM      1  O   UNL     1      -3.853   1.244   1.237  1.00  0.00    -0.273 OA
ATOM      2  C   UNL     1      -2.981   0.538   0.728  1.00  0.00     0.246 C 
ATOM      3  C   UNL     1      -2.344  -0.631   1.460  1.00  0.00     0.243 C 
ATOM      4  N   UNL     1      -0.916  -0.400   1.639  1.00  0.00    -0.272 NA
ATOM      5  C   UNL     1      -0.137  -0.409   0.607  1.00  0.00     0.093 C 
ATOM      6  C   UNL     1      -0.597  -0.665  -0.796  1.00  0.00     0.027 A 
ATOM      7  C   UNL     1       0.176  -1.504  -1.617  1.00  0.00     0.028 A 
ATOM      8  C   UNL     1      -0.122  -1.625  -2.972  1.00  0.00     0.018 A 
ATOM      9  Br  UNL     1       0.942  -2.736  -4.071  1.00  0.00    -0.051 Br
ATOM     10  C   UNL     1      -1.182  -0.917  -3.527  1.00  0.00     0.018 A 
ATOM     11  C   UNL     1      -1.976  -0.110  -2.710  1.00  0.00     0.028 A 
ATOM     12  C   UNL     1      -1.720  -0.015  -1.334  1.00  0.00     0.050 A 
ATOM     13  N   UNL     1      -2.638   0.735  -0.584  1.00  0.00    -0.324 N 
ATOM     14  H   UNL     1      -3.261   1.376  -1.060  1.00  0.00     0.170 HD
ENDROOT
BRANCH   5  15
ATOM     15  C   UNL     1       1.323  -0.109   0.839  1.00  0.00     0.089 A 
ATOM     16  C   UNL     1       1.847  -0.156   2.128  1.00  0.00     0.030 A 
ATOM     17  N   UNL     1       2.062   0.236  -0.246  1.00  0.00    -0.255 NA
ATOM     18  C   UNL     1       3.192   0.152   2.313  1.00  0.00     0.004 A 
ATOM     19  C   UNL     1       3.362   0.532  -0.033  1.00  0.00     0.112 A 
ATOM     20  C   UNL     1       3.967   0.502   1.213  1.00  0.00     0.020 A 
ENDBRANCH   5  15
TORSDOF 1
