REMARK SMILES Cc1cccc(C(=O)NC(=S)NNC(=O)Cc2ccccc2)c1
REMARK SMILES IDX 7 1 8 2 9 3 10 4 11 5 12 6 6 9 2 10 3 11 23 12 4 13 5 14
REMARK SMILES IDX 1 15 13 16 14 17 15 18 16 20 17 21 18 22 22 23 19 24 21 25
REMARK SMILES IDX 20 26
REMARK H PARENT 9 7 12 8 13 19
ROOT
ATOM      1  C   UNL     1       2.175  -0.784  -0.067  1.00  0.00     0.257 C 
ATOM      2  O   UNL     1       1.572  -1.852  -0.090  1.00  0.00    -0.269 OA
ATOM      3  N   UNL     1       1.617   0.410   0.367  1.00  0.00    -0.298 N 
ATOM      4  C   UNL     1       0.309   0.653   0.723  1.00  0.00     0.192 C 
ATOM      5  S   UNL     1      -0.098   2.199   1.227  1.00  0.00    -0.039 S 
ATOM      6  N   UNL     1      -0.567  -0.394   0.592  1.00  0.00    -0.274 N 
ATOM      7  H   UNL     1       2.222   1.211   0.482  1.00  0.00     0.172 HD
ATOM      8  H   UNL     1      -0.197  -1.344   0.450  1.00  0.00     0.190 HD
ENDROOT
BRANCH   1   9
ATOM      9  C   UNL     1       3.607  -0.727  -0.468  1.00  0.00     0.040 A 
ATOM     10  C   UNL     1       5.526   0.434  -1.410  1.00  0.00    -0.050 A 
ATOM     11  C   UNL     1       6.301  -0.716  -1.210  1.00  0.00     0.003 A 
ATOM     12  C   UNL     1       4.171   0.417  -1.050  1.00  0.00     0.017 A 
ATOM     13  C   UNL     1       5.737  -1.862  -0.648  1.00  0.00     0.001 A 
ATOM     14  C   UNL     1       4.392  -1.870  -0.280  1.00  0.00     0.014 A 
ATOM     15  C   UNL     1       6.121   1.646  -2.066  1.00  0.00     0.044 C 
ENDBRANCH   1   9
BRANCH   6  16
ATOM     16  N   UNL     1      -1.871  -0.314   1.097  1.00  0.00    -0.268 N 
ATOM     17  C   UNL     1      -2.587  -1.484   1.264  1.00  0.00     0.242 C 
ATOM     18  O   UNL     1      -2.088  -2.600   1.128  1.00  0.00    -0.273 OA
ATOM     19  H   UNL     1      -2.338   0.587   1.014  1.00  0.00     0.191 HD
BRANCH  17  20
ATOM     20  C   UNL     1      -4.023  -1.294   1.717  1.00  0.00     0.137 C 
BRANCH  20  21
ATOM     21  C   UNL     1      -4.782  -0.235   0.953  1.00  0.00    -0.039 A 
ATOM     22  C   UNL     1      -5.168   0.959   1.579  1.00  0.00     0.004 A 
ATOM     23  C   UNL     1      -5.096  -0.428  -0.400  1.00  0.00     0.004 A 
ATOM     24  C   UNL     1      -5.853   1.941   0.862  1.00  0.00     0.000 A 
ATOM     25  C   UNL     1      -5.781   0.556  -1.113  1.00  0.00     0.000 A 
ATOM     26  C   UNL     1      -6.159   1.739  -0.483  1.00  0.00     0.000 A 
ENDBRANCH  20  21
ENDBRANCH  17  20
ENDBRANCH   6  16
TORSDOF 4
