REMARK SMILES CC1(C)NC(=O)N(c2ccc([N+](=O)[O-])c(C(F)(F)F)c2)C1=O
REMARK SMILES IDX 8 1 9 2 10 3 11 4 15 5 20 6 7 7 2 8 4 9 21 10 5 11 22 12
REMARK SMILES IDX 6 13 1 14 3 15 16 17 17 18 18 19 19 20 12 21 13 22 14 23
REMARK H PARENT 4 16
ROOT
ATOM      1  C   UNL     1       0.601   0.015   0.139  1.00  0.00     0.055 A 
ATOM      2  C   UNL     1       1.131  -0.414   1.367  1.00  0.00     0.034 A 
ATOM      3  C   UNL     1       2.501  -0.337   1.648  1.00  0.00     0.088 A 
ATOM      4  C   UNL     1       3.374   0.182   0.690  1.00  0.00     0.281 A 
ATOM      5  C   UNL     1       2.902   0.648  -0.540  1.00  0.00     0.135 A 
ATOM      6  C   UNL     1       1.514   0.544  -0.797  1.00  0.00     0.047 A 
ENDROOT
BRANCH   1   7
ATOM      7  N   UNL     1      -0.798  -0.076  -0.148  1.00  0.00    -0.230 N 
ATOM      8  C   UNL     1      -3.149  -0.422   0.038  1.00  0.00     0.116 C 
ATOM      9  N   UNL     1      -2.740  -0.011  -1.272  1.00  0.00    -0.323 N 
ATOM     10  C   UNL     1      -1.791  -0.407   0.759  1.00  0.00     0.260 C 
ATOM     11  C   UNL     1      -1.377   0.142  -1.380  1.00  0.00     0.329 C 
ATOM     12  O   UNL     1      -1.686  -0.660   1.954  1.00  0.00    -0.271 OA
ATOM     13  O   UNL     1      -0.864   0.408  -2.455  1.00  0.00    -0.248 OA
ATOM     14  C   UNL     1      -3.720  -1.835   0.020  1.00  0.00     0.045 C 
ATOM     15  C   UNL     1      -4.106   0.584   0.662  1.00  0.00     0.045 C 
ATOM     16  H   UNL     1      -3.332   0.058  -2.091  1.00  0.00     0.166 HD
ENDBRANCH   1   7
BRANCH   5  17
ATOM     17  C   UNL     1       3.814   1.251  -1.578  1.00  0.00     0.423 C 
ATOM     18  F   UNL     1       4.467   0.315  -2.313  1.00  0.00    -0.166 F 
ATOM     19  F   UNL     1       3.145   2.026  -2.478  1.00  0.00    -0.166 F 
ATOM     20  F   UNL     1       4.760   2.067  -1.042  1.00  0.00    -0.166 F 
ENDBRANCH   5  17
BRANCH   4  21
ATOM     21  N   UNL     1       4.794   0.205   1.014  1.00  0.00     0.063 N 
ATOM     22  O   UNL     1       5.564  -0.315   0.199  1.00  0.00    -0.258 OA
ATOM     23  O   UNL     1       5.116   0.717   2.093  1.00  0.00    -0.258 OA
ENDBRANCH   4  21
TORSDOF 3
