REMARK SMILES CCOc1ccc(S(=O)(=O)NCCC(=O)N2CC=C(c3ccccc3)CC2)cc1
REMARK SMILES IDX 11 1 8 3 9 4 10 5 7 6 4 7 5 8 29 9 6 10 28 11 3 12 2 13 1 14
REMARK SMILES IDX 12 15 13 16 14 17 15 18 16 19 17 20 27 21 18 22 26 23 19 24
REMARK SMILES IDX 20 25 21 26 25 27 22 28 24 29 23 30
REMARK H PARENT 11 2
ROOT
ATOM      1  N   UNL     1      -1.459   2.538  -0.203  1.00  0.00    -0.211 NA
ATOM      2  H   UNL     1      -1.178   1.981  -1.016  1.00  0.00     0.141 HD
ENDROOT
BRANCH   1   3
ATOM      3  S   UNL     1      -2.826   3.468  -0.521  1.00  0.00     0.240 S 
ATOM      4  O   UNL     1      -2.982   4.412   0.563  1.00  0.00    -0.207 OA
ATOM      5  O   UNL     1      -2.734   3.895  -1.899  1.00  0.00    -0.207 OA
BRANCH   3   6
ATOM      6  C   UNL     1      -4.138   2.276  -0.416  1.00  0.00     0.082 A 
ATOM      7  C   UNL     1      -6.197   0.390  -0.281  1.00  0.00     0.119 A 
ATOM      8  C   UNL     1      -6.031   1.336   0.737  1.00  0.00     0.048 A 
ATOM      9  C   UNL     1      -5.324   0.397  -1.371  1.00  0.00     0.048 A 
ATOM     10  C   UNL     1      -5.008   2.285   0.674  1.00  0.00     0.025 A 
ATOM     11  C   UNL     1      -4.296   1.343  -1.444  1.00  0.00     0.025 A 
BRANCH   7  12
ATOM     12  O   UNL     1      -7.233  -0.477  -0.078  1.00  0.00    -0.494 OA
BRANCH  12  13
ATOM     13  C   UNL     1      -7.587  -1.386  -1.120  1.00  0.00     0.226 C 
ATOM     14  C   UNL     1      -6.814  -2.687  -0.986  1.00  0.00     0.049 C 
ENDBRANCH  12  13
ENDBRANCH   7  12
ENDBRANCH   3   6
ENDBRANCH   1   3
BRANCH   1  15
ATOM     15  C   UNL     1      -1.372   1.832   1.086  1.00  0.00     0.109 C 
BRANCH  15  16
ATOM     16  C   UNL     1       0.067   1.394   1.345  1.00  0.00     0.116 C 
BRANCH  16  17
ATOM     17  C   UNL     1       0.513   0.296   0.394  1.00  0.00     0.224 C 
ATOM     18  O   UNL     1      -0.246  -0.129  -0.481  1.00  0.00    -0.275 OA
BRANCH  17  19
ATOM     19  N   UNL     1       1.811  -0.182   0.537  1.00  0.00    -0.339 N 
ATOM     20  C   UNL     1       2.181  -1.322  -0.297  1.00  0.00     0.147 C 
ATOM     21  C   UNL     1       2.661   0.080   1.701  1.00  0.00     0.124 C 
ATOM     22  C   UNL     1       3.661  -1.557  -0.335  1.00  0.00    -0.002 C 
ATOM     23  C   UNL     1       4.131   0.229   1.308  1.00  0.00     0.057 C 
ATOM     24  C   UNL     1       4.572  -0.869   0.378  1.00  0.00    -0.041 C 
BRANCH  24  25
ATOM     25  C   UNL     1       6.019  -1.147   0.261  1.00  0.00    -0.023 A 
ATOM     26  C   UNL     1       6.943  -0.097   0.163  1.00  0.00     0.008 A 
ATOM     27  C   UNL     1       6.504  -2.464   0.274  1.00  0.00     0.008 A 
ATOM     28  C   UNL     1       8.313  -0.356   0.069  1.00  0.00     0.001 A 
ATOM     29  C   UNL     1       7.875  -2.723   0.181  1.00  0.00     0.001 A 
ATOM     30  C   UNL     1       8.779  -1.669   0.078  1.00  0.00     0.000 A 
ENDBRANCH  24  25
ENDBRANCH  17  19
ENDBRANCH  16  17
ENDBRANCH  15  16
ENDBRANCH   1  15
TORSDOF 9
