REMARK SMILES CCOC(=O)c1c(C)[nH]c(C)c1C(=O)CSc1nc(N)cc(O)n1
REMARK SMILES IDX 13 1 14 2 12 3 6 4 7 5 9 6 10 7 8 8 11 10 4 11 5 12 3 13
REMARK SMILES IDX 2 14 1 15 15 16 16 17 17 18 18 19 24 20 19 21 22 22 21 23
REMARK SMILES IDX 20 24 23 27
REMARK H PARENT 9 9 20 25 20 26 23 28
ROOT
ATOM      1  C   UNL     1       0.138   0.219   0.835  1.00  0.00     0.175 C 
ATOM      2  O   UNL     1      -0.009   1.282   1.444  1.00  0.00    -0.293 OA
ENDROOT
BRANCH   1   3
ATOM      3  C   UNL     1       0.816   0.199  -0.465  1.00  0.00     0.054 A 
ATOM      4  C   UNL     1       2.070  -0.412  -0.819  1.00  0.00     0.091 A 
ATOM      5  C   UNL     1       2.237  -0.200  -2.185  1.00  0.00     0.027 A 
ATOM      6  N   UNL     1       1.177   0.543  -2.637  1.00  0.00    -0.361 N 
ATOM      7  C   UNL     1       0.320   0.819  -1.604  1.00  0.00     0.024 A 
ATOM      8  C   UNL     1       3.331  -0.617  -3.104  1.00  0.00     0.065 C 
ATOM      9  H   UNL     1       1.052   0.853  -3.593  1.00  0.00     0.166 HD
ATOM     10  C   UNL     1      -0.911   1.624  -1.819  1.00  0.00     0.065 C 
BRANCH   4  11
ATOM     11  C   UNL     1       3.036  -1.103   0.037  1.00  0.00     0.340 C 
ATOM     12  O   UNL     1       3.990  -1.742  -0.392  1.00  0.00    -0.246 OA
BRANCH  11  13
ATOM     13  O   UNL     1       2.770  -0.932   1.365  1.00  0.00    -0.462 OA
BRANCH  13  14
ATOM     14  C   UNL     1       3.700  -1.537   2.275  1.00  0.00     0.230 C 
ATOM     15  C   UNL     1       4.863  -0.598   2.536  1.00  0.00     0.049 C 
ENDBRANCH  13  14
ENDBRANCH  11  13
ENDBRANCH   4  11
ENDBRANCH   1   3
BRANCH   1  16
ATOM     16  C   UNL     1      -0.364  -1.094   1.422  1.00  0.00     0.159 C 
BRANCH  16  17
ATOM     17  S   UNL     1      -1.550  -1.956   0.339  1.00  0.00    -0.078 SA
BRANCH  17  18
ATOM     18  C   UNL     1      -2.943  -0.861   0.441  1.00  0.00     0.193 A 
ATOM     19  N   UNL     1      -4.109  -1.307  -0.048  1.00  0.00    -0.205 NA
ATOM     20  N   UNL     1      -2.757   0.351   0.970  1.00  0.00    -0.187 NA
ATOM     21  C   UNL     1      -5.158  -0.475   0.004  1.00  0.00     0.131 A 
ATOM     22  C   UNL     1      -3.827   1.138   0.986  1.00  0.00     0.216 A 
ATOM     23  C   UNL     1      -5.065   0.794   0.525  1.00  0.00     0.114 A 
BRANCH  21  24
ATOM     24  N   UNL     1      -6.378  -0.941  -0.500  1.00  0.00    -0.383 N 
ATOM     25  H   UNL     1      -7.086  -0.927   0.229  1.00  0.00     0.158 HD
ATOM     26  H   UNL     1      -6.696  -0.343  -1.257  1.00  0.00     0.158 HD
ENDBRANCH  21  24
BRANCH  22  27
ATOM     27  O   UNL     1      -3.593   2.371   1.500  1.00  0.00    -0.493 OA
ATOM     28  H   UNL     1      -2.636   2.312   1.697  1.00  0.00     0.295 HD
ENDBRANCH  22  27
ENDBRANCH  17  18
ENDBRANCH  16  17
ENDBRANCH   1  16
TORSDOF 9
