REMARK SMILES COc1cc2nc(N3CCN(C(=O)C(C)C)CC3)nc(N)c2cc1OC
REMARK SMILES IDX 3 1 4 2 5 3 6 4 7 5 19 6 20 7 22 8 23 9 24 10 2 11 1 12
REMARK SMILES IDX 25 13 26 14 8 15 9 16 18 17 10 18 17 19 11 20 12 21 13 22
REMARK SMILES IDX 14 23 15 24 16 25 21 26
REMARK H PARENT 21 27 21 28
ROOT
ATOM      1  C   UNL     1       2.916  -2.007  -3.644  1.00  0.00     0.162 A 
ATOM      2  C   UNL     1       2.339  -1.015  -2.842  1.00  0.00     0.079 A 
ATOM      3  C   UNL     1       1.938  -1.265  -1.536  1.00  0.00     0.082 A 
ATOM      4  N   UNL     1       1.396  -0.268  -0.832  1.00  0.00    -0.213 NA
ATOM      5  C   UNL     1       1.012  -0.497   0.432  1.00  0.00     0.228 A 
ATOM      6  N   UNL     1       1.144  -1.694   1.014  1.00  0.00    -0.195 NA
ATOM      7  C   UNL     1       1.681  -2.695   0.308  1.00  0.00     0.137 A 
ATOM      8  C   UNL     1       2.117  -2.543  -1.012  1.00  0.00     0.047 A 
ATOM      9  C   UNL     1       2.701  -3.560  -1.811  1.00  0.00     0.064 A 
ATOM     10  C   UNL     1       3.101  -3.297  -3.122  1.00  0.00     0.161 A 
ENDROOT
BRANCH   1  11
ATOM     11  O   UNL     1       3.331  -1.815  -4.939  1.00  0.00    -0.493 OA
ATOM     12  C   UNL     1       3.146  -0.525  -5.508  1.00  0.00     0.278 C 
ENDBRANCH   1  11
BRANCH  10  13
ATOM     13  O   UNL     1       3.672  -4.217  -3.963  1.00  0.00    -0.493 OA
ATOM     14  C   UNL     1       3.909  -5.524  -3.463  1.00  0.00     0.278 C 
ENDBRANCH  10  13
BRANCH   5  15
ATOM     15  N   UNL     1       0.477   0.558   1.159  1.00  0.00    -0.337 N 
ATOM     16  C   UNL     1      -0.204   1.577   0.342  1.00  0.00     0.141 C 
ATOM     17  C   UNL     1      -0.107   0.260   2.471  1.00  0.00     0.141 C 
ATOM     18  C   UNL     1      -1.222   2.387   1.165  1.00  0.00     0.141 C 
ATOM     19  C   UNL     1      -1.644   0.265   2.407  1.00  0.00     0.141 C 
ATOM     20  N   UNL     1      -2.188   1.521   1.858  1.00  0.00    -0.339 N 
ATOM     21  C   UNL     1      -3.478   1.990   2.056  1.00  0.00     0.225 C 
ATOM     22  O   UNL     1      -3.801   3.131   1.719  1.00  0.00    -0.275 OA
BRANCH  21  23
ATOM     23  C   UNL     1      -4.514   1.030   2.652  1.00  0.00     0.072 C 
ATOM     24  C   UNL     1      -4.982   0.038   1.589  1.00  0.00     0.018 C 
ATOM     25  C   UNL     1      -5.716   1.803   3.200  1.00  0.00     0.018 C 
ENDBRANCH  21  23
ENDBRANCH   5  15
BRANCH   7  26
ATOM     26  N   UNL     1       1.787  -3.926   0.980  1.00  0.00    -0.383 N 
ATOM     27  H   UNL     1       2.763  -4.201   1.034  1.00  0.00     0.158 HD
ATOM     28  H   UNL     1       1.274  -4.640   0.473  1.00  0.00     0.158 HD
ENDBRANCH   7  26
TORSDOF 5
