REMARK SMILES NC(=O)N1c2ccccc2C[C@H](O)c2ccccc21
REMARK SMILES IDX 14 1 15 2 16 3 17 4 18 5 19 6 4 7 2 8 1 9 3 10 5 13 6 14
REMARK SMILES IDX 10 15 7 16 9 17 8 18 11 19 12 21 13 23
REMARK H PARENT 1 11 1 12 13 24
REMARK Flexibility Score:   28.900
ROOT
ATOM      1  C   UNL     1      -1.379  -0.811   0.485  1.00  0.00     0.005 A 
ATOM      2  C   UNL     1      -2.552  -1.498   0.126  1.00  0.00     0.008 A 
ATOM      3  C   UNL     1      -3.432  -0.961  -0.813  1.00  0.00     0.001 A 
ATOM      4  C   UNL     1      -3.149   0.262  -1.412  1.00  0.00     0.002 A 
ATOM      5  C   UNL     1      -1.980   0.945  -1.075  1.00  0.00     0.027 A 
ATOM      6  C   UNL     1      -1.084   0.413  -0.133  1.00  0.00     0.056 A 
ENDROOT
BRANCH   6   7
ATOM      7  N   UNL     1       0.103   1.137   0.208  1.00  0.00    -0.263 N 
BRANCH   7   8
ATOM      8  C   UNL     1       0.055   2.489   0.589  1.00  0.00     0.323 C 
ATOM      9  N   UNL     1      -1.180   2.976   0.919  1.00  0.00    -0.351 N 
ATOM     10  O   UNL     1       1.004   3.258   0.724  1.00  0.00    -0.248 OA
ATOM     11  H   UNL     1      -1.140   3.893   1.345  1.00  0.00     0.161 HD
ATOM     12  H   UNL     1      -1.832   2.334   1.348  1.00  0.00     0.161 HD
ENDBRANCH   7   8
BRANCH   7  13
ATOM     13  C   UNL     1       1.345   0.515  -0.205  1.00  0.00     0.054 A 
ATOM     14  C   UNL     1       2.300   1.309  -0.880  1.00  0.00     0.027 A 
ATOM     15  C   UNL     1       1.656  -0.853  -0.013  1.00  0.00    -0.021 A 
ATOM     16  C   UNL     1       3.504   0.787  -1.361  1.00  0.00     0.002 A 
ATOM     17  C   UNL     1       2.877  -1.364  -0.520  1.00  0.00     0.006 A 
ATOM     18  C   UNL     1       3.791  -0.555  -1.185  1.00  0.00     0.000 A 
BRANCH  15  19
ATOM     19  C   UNL     1       0.828  -1.868   0.750  1.00  0.00     0.074 CG0
ATOM     20  G   UNL     1      -0.400  -1.356   1.491  1.00  0.00     0.000 G0
ENDBRANCH  15  19
ENDBRANCH   7  13
ENDBRANCH   6   7
BRANCH   1  21
ATOM     21  C   UNL     1      -0.400  -1.356   1.491  1.00  0.00     0.151 CG0
ATOM     22  G   UNL     1       0.828  -1.868   0.750  1.00  0.00     0.000 G0
BRANCH  21  23
ATOM     23  O   UNL     1      -0.966  -2.423   2.255  1.00  0.00    -0.388 OA
ATOM     24  H   UNL     1      -1.714  -2.043   2.747  1.00  0.00     0.211 HD
ENDBRANCH  21  23
ENDBRANCH   1  21
TORSDOF 2
