REMARK SMILES Cc1c(CN(C)c2cccc3c2CCCC3)cnc2nc(N)nc(N)c12
REMARK SMILES IDX 1 1 2 2 3 3 17 4 18 5 19 6 20 7 21 8 23 9 24 10 26 11 4 12
REMARK SMILES IDX 5 13 6 14 7 15 8 16 12 17 9 18 11 19 13 20 10 21 16 22 14 23
REMARK SMILES IDX 15 24 25 25 22 28
REMARK H PARENT 25 26 25 27 22 29 22 30
ROOT
ATOM      1  C   UNL     1       1.508  -2.537  -0.332  1.00  0.00     0.046 C 
ATOM      2  C   UNL     1       1.868  -1.077  -0.447  1.00  0.00    -0.030 A 
ATOM      3  C   UNL     1       1.274  -0.289  -1.452  1.00  0.00    -0.007 A 
ATOM      4  C   UNL     1       1.623   1.050  -1.481  1.00  0.00     0.119 A 
ATOM      5  N   UNL     1       2.505   1.629  -0.646  1.00  0.00    -0.236 NA
ATOM      6  C   UNL     1       3.078   0.906   0.309  1.00  0.00     0.167 A 
ATOM      7  N   UNL     1       3.915   1.585   1.074  1.00  0.00    -0.193 NA
ATOM      8  C   UNL     1       4.516   0.946   2.061  1.00  0.00     0.224 A 
ATOM      9  N   UNL     1       4.375  -0.343   2.318  1.00  0.00    -0.196 NA
ATOM     10  C   UNL     1       3.532  -1.034   1.542  1.00  0.00     0.138 A 
ATOM     11  C   UNL     1       2.808  -0.460   0.471  1.00  0.00     0.065 A 
ENDROOT
BRANCH   3  12
ATOM     12  C   UNL     1       0.277  -0.788  -2.474  1.00  0.00     0.153 C 
BRANCH  12  13
ATOM     13  N   UNL     1      -1.053  -1.003  -1.877  1.00  0.00    -0.370 N 
ATOM     14  C   UNL     1      -1.912  -1.915  -2.640  1.00  0.00     0.144 C 
BRANCH  13  15
ATOM     15  C   UNL     1      -1.752   0.196  -1.577  1.00  0.00     0.040 A 
ATOM     16  C   UNL     1      -2.065   1.136  -2.575  1.00  0.00     0.026 A 
ATOM     17  C   UNL     1      -2.163   0.449  -0.247  1.00  0.00    -0.021 A 
ATOM     18  C   UNL     1      -2.751   2.309  -2.270  1.00  0.00     0.002 A 
ATOM     19  C   UNL     1      -2.878   1.630   0.054  1.00  0.00    -0.043 A 
ATOM     20  C   UNL     1      -1.894  -0.576   0.836  1.00  0.00     0.038 C 
ATOM     21  C   UNL     1      -3.149   2.557  -0.962  1.00  0.00     0.004 A 
ATOM     22  C   UNL     1      -3.312   1.963   1.462  1.00  0.00     0.036 C 
ATOM     23  C   UNL     1      -2.040  -0.032   2.255  1.00  0.00     0.005 C 
ATOM     24  C   UNL     1      -3.334   0.754   2.391  1.00  0.00     0.005 C 
ENDBRANCH  13  15
ENDBRANCH  12  13
ENDBRANCH   3  12
BRANCH  10  25
ATOM     25  N   UNL     1       3.435  -2.384   1.901  1.00  0.00    -0.383 N 
ATOM     26  H   UNL     1       3.709  -2.983   1.131  1.00  0.00     0.158 HD
ATOM     27  H   UNL     1       2.490  -2.604   2.194  1.00  0.00     0.158 HD
ENDBRANCH  10  25
BRANCH   8  28
ATOM     28  N   UNL     1       5.392   1.662   2.851  1.00  0.00    -0.368 N 
ATOM     29  H   UNL     1       6.072   1.036   3.259  1.00  0.00     0.159 HD
ATOM     30  H   UNL     1       5.736   2.464   2.341  1.00  0.00     0.159 HD
ENDBRANCH   8  28
TORSDOF 5
