REMARK SMILES CC1(C)Oc2c(c(=O)[nH]c3ccccc23)[C@H]2[C@@H](Cl)[C@](C)(O)CC[C@@H]21
REMARK SMILES IDX 1 1 2 2 3 3 4 4 5 5 6 6 7 7 8 8 9 9 10 10 11 11 12 12 13 13
REMARK SMILES IDX 14 14 15 15 16 16 17 17 18 18 19 19 20 20 22 21 23 22 24 23
REMARK SMILES IDX 21 25
REMARK H PARENT 9 24 21 26
ROOT
ATOM      1  C   UNL     1      -0.149   2.641  -0.849  1.00  0.00     0.056 C 
ATOM      2  C   UNL     1      -0.104   1.909   0.502  1.00  0.00     0.107 C 
ATOM      3  C   UNL     1      -0.314   2.951   1.615  1.00  0.00     0.056 C 
ATOM      4  O   UNL     1       1.234   1.413   0.720  1.00  0.00    -0.486 OA
ATOM      5  C   UNL     1       1.579   0.222   0.118  1.00  0.00     0.138 C 
ATOM      6  C   UNL     1       0.697  -0.625  -0.450  1.00  0.00     0.065 C 
ATOM      7  C   UNL     1       1.215  -1.802  -1.214  1.00  0.00     0.255 C 
ATOM      8  O   UNL     1       0.480  -2.521  -1.884  1.00  0.00    -0.269 OA
ATOM      9  N   UNL     1       2.557  -2.050  -1.166  1.00  0.00    -0.321 N 
ATOM     10  C   UNL     1       3.478  -1.221  -0.525  1.00  0.00     0.052 A 
ATOM     11  C   UNL     1       4.835  -1.549  -0.552  1.00  0.00     0.027 A 
ATOM     12  C   UNL     1       5.758  -0.714   0.075  1.00  0.00     0.002 A 
ATOM     13  C   UNL     1       5.324   0.442   0.722  1.00  0.00     0.001 A 
ATOM     14  C   UNL     1       3.964   0.764   0.744  1.00  0.00     0.014 A 
ATOM     15  C   UNL     1       3.024  -0.066   0.119  1.00  0.00     0.041 A 
ATOM     16  C   UNL     1      -0.800  -0.382  -0.394  1.00  0.00     0.056 C 
ATOM     17  C   UNL     1      -1.704  -1.620  -0.106  1.00  0.00     0.120 C 
ATOM     18  Cl  UNL     1      -1.236  -2.419   1.442  1.00  0.00    -0.119 Cl
ATOM     19  C   UNL     1      -3.211  -1.224  -0.129  1.00  0.00     0.079 C 
ATOM     20  C   UNL     1      -4.136  -2.411   0.174  1.00  0.00     0.043 C 
ATOM     21  C   UNL     1      -3.509  -0.053   0.819  1.00  0.00     0.037 C 
ATOM     22  C   UNL     1      -2.592   1.146   0.562  1.00  0.00     0.011 C 
ATOM     23  C   UNL     1      -1.112   0.742   0.637  1.00  0.00     0.042 C 
ATOM     24  H   UNL     1       2.870  -2.863  -1.678  1.00  0.00     0.170 HD
ENDROOT
BRANCH  19  25
ATOM     25  O   UNL     1      -3.527  -0.784  -1.464  1.00  0.00    -0.389 OA
ATOM     26  H   UNL     1      -4.486  -0.626  -1.515  1.00  0.00     0.211 HD
ENDBRANCH  19  25
TORSDOF 1
