REMARK SMILES C[n+]1c(-c2cccc(C(=O)NCCCCCC(=O)NCCC(=O)NC(CCCNC(=N)N)C(=O)O)c2)c2cc(N)ccc2c2ccc(N)cc21
REMARK SMILES IDX 17 1 18 2 19 3 16 5 15 6 14 7 13 8 12 9 11 10 9 11 10 12
REMARK SMILES IDX 8 14 4 15 5 16 36 17 6 18 7 19 3 20 2 21 50 22 37 23 49 24
REMARK SMILES IDX 44 25 38 26 43 27 47 28 45 29 39 30 42 31 46 32 41 33 1 34
REMARK SMILES IDX 48 35 40 38 20 41 21 42 22 43 23 44 24 45 25 47 26 48 27 49
REMARK SMILES IDX 28 50 29 51 30 52 31 53 32 54 33 59 34 60 35 61
REMARK H PARENT 19 4 11 13 48 36 48 37 40 39 40 40 24 46 29 55 31 56 32 57
REMARK H PARENT 32 58 35 62
ROOT
ATOM      1  C   UNL     1      -0.119   0.132  -1.896  1.00  0.00     0.220 C 
ATOM      2  O   UNL     1       0.843  -0.125  -1.176  1.00  0.00    -0.275 OA
ATOM      3  N   UNL     1      -1.373   0.435  -1.413  1.00  0.00    -0.356 N 
ATOM      4  H   UNL     1      -2.045   0.832  -2.072  1.00  0.00     0.163 HD
ENDROOT
BRANCH   1   5
ATOM      5  C   UNL     1      -0.085   0.115  -3.418  1.00  0.00     0.100 C 
BRANCH   5   6
ATOM      6  C   UNL     1       1.286  -0.202  -4.013  1.00  0.00     0.010 C 
BRANCH   6   7
ATOM      7  C   UNL     1       2.260   0.975  -3.904  1.00  0.00     0.002 C 
BRANCH   7   8
ATOM      8  C   UNL     1       3.610   0.725  -4.591  1.00  0.00     0.021 C 
BRANCH   8   9
ATOM      9  C   UNL     1       4.352  -0.527  -4.124  1.00  0.00     0.116 C 
BRANCH   9  10
ATOM     10  N   UNL     1       4.493  -0.575  -2.682  1.00  0.00    -0.352 N 
ATOM     11  C   UNL     1       5.530   0.070  -2.042  1.00  0.00     0.251 C 
ATOM     12  O   UNL     1       6.458   0.620  -2.617  1.00  0.00    -0.269 OA
ATOM     13  H   UNL     1       3.650  -0.782  -2.164  1.00  0.00     0.163 HD
BRANCH  11  14
ATOM     14  C   UNL     1       5.447   0.110  -0.556  1.00  0.00     0.040 A 
ATOM     15  C   UNL     1       4.687  -0.807   1.572  1.00  0.00     0.048 A 
ATOM     16  C   UNL     1       5.284   0.282   2.232  1.00  0.00     0.015 A 
ATOM     17  C   UNL     1       4.793  -0.893   0.172  1.00  0.00     0.028 A 
ATOM     18  C   UNL     1       5.962   1.265   1.509  1.00  0.00     0.002 A 
ATOM     19  C   UNL     1       6.043   1.179   0.120  1.00  0.00     0.014 A 
BRANCH  15  20
ATOM     20  C   UNL     1       3.968  -1.845   2.327  1.00  0.00     0.220 A 
ATOM     21  N   UNL     1       2.611  -1.712   2.422  1.00  0.00    -0.193 N 
ATOM     22  C   UNL     1       1.853  -2.654   3.074  1.00  0.00     0.215 A 
ATOM     23  C   UNL     1       4.642  -2.947   2.905  1.00  0.00     0.057 A 
ATOM     24  C   UNL     1       0.442  -2.544   3.152  1.00  0.00     0.105 A 
ATOM     25  C   UNL     1       2.480  -3.772   3.681  1.00  0.00     0.054 A 
ATOM     26  C   UNL     1       6.053  -3.108   2.806  1.00  0.00     0.041 A 
ATOM     27  C   UNL     1       3.896  -3.916   3.601  1.00  0.00     0.002 A 
ATOM     28  C   UNL     1      -0.350  -3.458   3.845  1.00  0.00     0.038 A 
ATOM     29  C   UNL     1       1.643  -4.714   4.333  1.00  0.00     0.018 A 
ATOM     30  C   UNL     1       6.731  -4.201   3.343  1.00  0.00     0.032 A 
ATOM     31  C   UNL     1       4.615  -4.986   4.194  1.00  0.00     0.012 A 
ATOM     32  C   UNL     1       0.256  -4.569   4.400  1.00  0.00     0.026 A 
ATOM     33  C   UNL     1       6.002  -5.112   4.086  1.00  0.00     0.026 A 
ATOM     34  C   UNL     1       1.909  -0.538   1.824  1.00  0.00     0.441 C 
BRANCH  28  35
ATOM     35  N   UNL     1      -1.744  -3.346   3.780  1.00  0.00    -0.399 N 
ATOM     36  H   UNL     1      -2.115  -3.731   2.911  1.00  0.00     0.156 HD
ATOM     37  H   UNL     1      -2.211  -3.826   4.551  1.00  0.00     0.156 HD
ENDBRANCH  28  35
BRANCH  30  38
ATOM     38  N   UNL     1       8.123  -4.245   3.331  1.00  0.00    -0.399 N 
ATOM     39  H   UNL     1       8.524  -5.168   3.481  1.00  0.00     0.156 HD
ATOM     40  H   UNL     1       8.572  -3.763   2.558  1.00  0.00     0.156 HD
ENDBRANCH  30  38
ENDBRANCH  15  20
ENDBRANCH  11  14
ENDBRANCH   9  10
ENDBRANCH   8   9
ENDBRANCH   7   8
ENDBRANCH   6   7
ENDBRANCH   5   6
ENDBRANCH   1   5
BRANCH   3  41
ATOM     41  C   UNL     1      -1.654   0.716  -0.018  1.00  0.00     0.125 C 
BRANCH  41  42
ATOM     42  C   UNL     1      -3.031   0.224   0.413  1.00  0.00     0.121 C 
BRANCH  42  43
ATOM     43  C   UNL     1      -4.151   0.910  -0.342  1.00  0.00     0.222 C 
ATOM     44  O   UNL     1      -3.964   1.574  -1.356  1.00  0.00    -0.275 OA
ATOM     45  N   UNL     1      -5.392   0.690   0.201  1.00  0.00    -0.343 N 
ATOM     46  H   UNL     1      -5.497   0.001   0.941  1.00  0.00     0.164 HD
BRANCH  45  47
ATOM     47  C   UNL     1      -6.633   1.126  -0.451  1.00  0.00     0.192 C 
BRANCH  47  48
ATOM     48  C   UNL     1      -7.153   2.441   0.144  1.00  0.00     0.039 C 
BRANCH  48  49
ATOM     49  C   UNL     1      -6.298   3.678  -0.166  1.00  0.00     0.024 C 
BRANCH  49  50
ATOM     50  C   UNL     1      -6.204   4.055  -1.647  1.00  0.00     0.116 C 
BRANCH  50  51
ATOM     51  N   UNL     1      -7.488   4.535  -2.140  1.00  0.00    -0.357 N 
ATOM     52  C   UNL     1      -7.580   5.088  -3.372  1.00  0.00     0.185 C 
ATOM     53  N   UNL     1      -6.589   5.352  -4.141  1.00  0.00    -0.270 NA
ATOM     54  N   UNL     1      -8.863   5.338  -3.698  1.00  0.00    -0.370 N 
ATOM     55  H   UNL     1      -8.256   3.900  -1.964  1.00  0.00     0.163 HD
ATOM     56  H   UNL     1      -6.928   5.745  -5.019  1.00  0.00     0.191 HD
ATOM     57  H   UNL     1      -9.403   5.670  -2.907  1.00  0.00     0.159 HD
ATOM     58  H   UNL     1      -8.976   5.966  -4.484  1.00  0.00     0.159 HD
ENDBRANCH  50  51
ENDBRANCH  49  50
ENDBRANCH  48  49
ENDBRANCH  47  48
BRANCH  47  59
ATOM     59  C   UNL     1      -7.660   0.013  -0.228  1.00  0.00     0.326 C 
ATOM     60  O   UNL     1      -7.522  -0.943   0.523  1.00  0.00    -0.250 OA
BRANCH  59  61
ATOM     61  O   UNL     1      -8.783   0.166  -0.955  1.00  0.00    -0.480 OA
ATOM     62  H   UNL     1      -9.341  -0.610  -0.733  1.00  0.00     0.296 HD
ENDBRANCH  59  61
ENDBRANCH  47  59
ENDBRANCH  45  47
ENDBRANCH  42  43
ENDBRANCH  41  42
ENDBRANCH   3  41
TORSDOF 20
