REMARK SMILES COc1cccc2c1C(=O)c1c(O)c3c(c(O)c1C2=O)C[C@@](O)(C(C)=O)C[C@@H]3O[C@H]1C[C@H](N)[C@H](O)[C@H](C)O1
REMARK SMILES IDX 29 1 28 2 3 3 4 4 8 5 5 6 7 7 9 8 6 9 19 10 10 11 11 12
REMARK SMILES IDX 18 13 20 14 12 15 16 16 14 17 15 18 21 19 27 20 22 21 2 22
REMARK SMILES IDX 1 23 13 24 17 26 23 28 24 30 26 31 25 32 30 33 31 34 38 35
REMARK SMILES IDX 32 36 36 37 34 38 37 39 33 40 35 43
REMARK H PARENT 13 25 17 27 23 29 33 41 33 42 35 44
ROOT
ATOM      1  O   UNL     1      -1.658  -0.971  -1.279  1.00  0.00    -0.344 OA
ENDROOT
BRANCH   1   2
ATOM      2  C   UNL     1      -0.372  -1.525  -1.584  1.00  0.00     0.159 C 
ATOM      3  C   UNL     1       2.198   3.321   3.558  1.00  0.00     0.130 A 
ATOM      4  C   UNL     1       2.986   4.442   3.853  1.00  0.00     0.047 A 
ATOM      5  C   UNL     1       2.402   2.637   2.340  1.00  0.00     0.076 A 
ATOM      6  C   UNL     1       3.959   4.886   2.957  1.00  0.00     0.005 A 
ATOM      7  C   UNL     1       3.364   3.099   1.441  1.00  0.00     0.038 A 
ATOM      8  C   UNL     1       1.641   1.415   1.980  1.00  0.00     0.202 C 
ATOM      9  C   UNL     1       4.147   4.218   1.752  1.00  0.00     0.013 A 
ATOM     10  C   UNL     1       3.587   2.412   0.153  1.00  0.00     0.198 C 
ATOM     11  O   UNL     1       0.980   0.784   2.800  1.00  0.00    -0.288 OA
ATOM     12  C   UNL     1       1.664   0.917   0.586  1.00  0.00     0.080 A 
ATOM     13  C   UNL     1       2.589   1.422  -0.321  1.00  0.00     0.080 A 
ATOM     14  O   UNL     1       4.608   2.668  -0.471  1.00  0.00    -0.288 OA
ATOM     15  C   UNL     1       0.747  -0.068   0.171  1.00  0.00     0.133 A 
ATOM     16  C   UNL     1       2.588   0.938  -1.642  1.00  0.00     0.131 A 
ATOM     17  C   UNL     1       0.702  -0.527  -1.162  1.00  0.00     0.031 A 
ATOM     18  C   UNL     1       1.686  -0.065  -2.063  1.00  0.00     0.008 A 
ATOM     19  C   UNL     1       1.756  -0.610  -3.474  1.00  0.00     0.083 C 
ATOM     20  C   UNL     1      -0.397  -1.823  -3.084  1.00  0.00     0.081 C 
ATOM     21  C   UNL     1       0.980  -1.904  -3.713  1.00  0.00     0.129 C 
BRANCH   3  22
ATOM     22  O   UNL     1       1.202   2.869   4.381  1.00  0.00    -0.496 OA
ATOM     23  C   UNL     1       1.076   3.444   5.675  1.00  0.00     0.278 C 
ENDBRANCH   3  22
BRANCH  15  24
ATOM     24  O   UNL     1      -0.126  -0.646   1.062  1.00  0.00    -0.507 OA
ATOM     25  H   UNL     1       0.041  -0.272   1.958  1.00  0.00     0.293 HD
ENDBRANCH  15  24
BRANCH  16  26
ATOM     26  O   UNL     1       3.438   1.513  -2.546  1.00  0.00    -0.507 OA
ATOM     27  H   UNL     1       3.734   0.878  -3.216  1.00  0.00     0.293 HD
ENDBRANCH  16  26
BRANCH  21  28
ATOM     28  O   UNL     1       0.783  -1.997  -5.145  1.00  0.00    -0.382 OA
ATOM     29  H   UNL     1       0.579  -2.938  -5.330  1.00  0.00     0.212 HD
ENDBRANCH  21  28
BRANCH  21  30
ATOM     30  C   UNL     1       1.725  -3.205  -3.339  1.00  0.00     0.161 C 
ATOM     31  O   UNL     1       1.588  -4.210  -4.051  1.00  0.00    -0.297 OA
ATOM     32  C   UNL     1       2.588  -3.263  -2.107  1.00  0.00     0.091 C 
ENDBRANCH  21  30
ENDBRANCH   1   2
BRANCH   1  33
ATOM     33  C   UNL     1      -2.513  -1.894  -0.604  1.00  0.00     0.252 C 
ATOM     34  C   UNL     1      -3.817  -1.158  -0.286  1.00  0.00     0.083 C 
ATOM     35  O   UNL     1      -2.793  -3.022  -1.426  1.00  0.00    -0.347 OA
ATOM     36  C   UNL     1      -5.002  -2.124  -0.134  1.00  0.00     0.087 C 
ATOM     37  C   UNL     1      -3.511  -4.058  -0.734  1.00  0.00     0.148 C 
ATOM     38  C   UNL     1      -4.521  -3.517   0.309  1.00  0.00     0.160 C 
ATOM     39  C   UNL     1      -2.516  -5.064  -0.165  1.00  0.00     0.041 C 
BRANCH  36  40
ATOM     40  N   UNL     1      -6.005  -1.571   0.798  1.00  0.00    -0.325 NA
ATOM     41  H   UNL     1      -6.437  -0.758   0.356  1.00  0.00     0.119 HD
ATOM     42  H   UNL     1      -5.530  -1.191   1.619  1.00  0.00     0.119 HD
ENDBRANCH  36  40
BRANCH  38  43
ATOM     43  O   UNL     1      -3.939  -3.409   1.614  1.00  0.00    -0.389 OA
ATOM     44  H   UNL     1      -4.669  -3.113   2.188  1.00  0.00     0.211 HD
ENDBRANCH  38  43
ENDBRANCH   1  33
TORSDOF 9
