REMARK SMILES CN(C)CCCN1c2ccccc2CCc2ccccc21
REMARK SMILES IDX 5 1 4 2 2 3 1 4 3 5 6 6 7 7 8 8 9 9 13 10 10 11 12 12 11 13
REMARK SMILES IDX 14 14 21 16 20 17 16 18 19 19 17 20 18 21 15 22
REMARK H PARENT
REMARK Flexibility Score:   60.900
ROOT
ATOM      1  C   UNL     1       1.551   0.319   0.926  1.00  0.00     0.037 C 
ENDROOT
BRANCH   1   2
ATOM      2  C   UNL     1       2.996  -0.129   1.177  1.00  0.00     0.085 C 
BRANCH   2   3
ATOM      3  N   UNL     1       3.813  -0.257  -0.042  1.00  0.00    -0.309 NA
ATOM      4  C   UNL     1       4.061   1.043  -0.672  1.00  0.00     0.104 C 
ATOM      5  C   UNL     1       5.091  -0.899   0.278  1.00  0.00     0.104 C 
ENDBRANCH   2   3
ENDBRANCH   1   2
BRANCH   1   6
ATOM      6  C   UNL     1       0.806  -0.625  -0.032  1.00  0.00     0.124 C 
BRANCH   6   7
ATOM      7  N   UNL     1      -0.640  -0.306  -0.106  1.00  0.00    -0.341 N 
BRANCH   7   8
ATOM      8  C   UNL     1      -0.969   1.017  -0.487  1.00  0.00     0.044 A 
ATOM      9  C   UNL     1      -0.334   1.666  -1.558  1.00  0.00     0.026 A 
ATOM     10  C   UNL     1      -1.957   1.717   0.226  1.00  0.00    -0.024 A 
ATOM     11  C   UNL     1      -0.664   2.979  -1.904  1.00  0.00     0.002 A 
ATOM     12  C   UNL     1      -2.284   3.036  -0.123  1.00  0.00     0.006 A 
ATOM     13  C   UNL     1      -1.636   3.665  -1.184  1.00  0.00     0.000 A 
BRANCH  10  14
ATOM     14  C   UNL     1      -2.652   1.027   1.366  1.00  0.00     0.042 CG0
ATOM     15  G   UNL     1      -3.547  -0.097   0.854  1.00  0.00     0.000 G0
ENDBRANCH  10  14
ENDBRANCH   7   8
BRANCH   7  16
ATOM     16  C   UNL     1      -1.551  -1.389  -0.223  1.00  0.00     0.044 A 
ATOM     17  C   UNL     1      -1.140  -2.602  -0.824  1.00  0.00     0.026 A 
ATOM     18  C   UNL     1      -2.898  -1.305   0.205  1.00  0.00    -0.024 A 
ATOM     19  C   UNL     1      -2.000  -3.691  -0.985  1.00  0.00     0.002 A 
ATOM     20  C   UNL     1      -3.757  -2.416   0.023  1.00  0.00     0.006 A 
ATOM     21  C   UNL     1      -3.313  -3.598  -0.559  1.00  0.00     0.000 A 
BRANCH  18  22
ATOM     22  C   UNL     1      -3.547  -0.097   0.854  1.00  0.00     0.042 CG0
ATOM     23  G   UNL     1      -2.652   1.027   1.366  1.00  0.00     0.000 G0
ENDBRANCH  18  22
ENDBRANCH   7  16
ENDBRANCH   6   7
ENDBRANCH   1   6
TORSDOF 4
