REMARK SMILES O=c1cc(CS(=O)(=O)c2cc(Cl)cc(Cl)c2)[nH][nH]1
REMARK SMILES IDX 6 1 7 2 8 3 5 4 4 5 1 6 2 7 3 8 18 9 17 10 9 13 10 14 16 15
REMARK SMILES IDX 11 16 14 17 13 18 12 19 15 20
REMARK H PARENT 18 11 17 12
ROOT
ATOM      1  S   UNL     1       0.358  -1.876  -0.845  1.00  0.00     0.184 S 
ATOM      2  O   UNL     1       0.685  -2.557   0.398  1.00  0.00    -0.223 OA
ATOM      3  O   UNL     1       0.053  -2.639  -2.040  1.00  0.00    -0.223 OA
ENDROOT
BRANCH   1   4
ATOM      4  C   UNL     1       1.673  -0.731  -1.232  1.00  0.00     0.197 C 
BRANCH   4   5
ATOM      5  C   UNL     1       1.964   0.132  -0.046  1.00  0.00     0.052 C 
ATOM      6  O   UNL     1       2.221   2.952   1.847  1.00  0.00    -0.268 OA
ATOM      7  C   UNL     1       2.161   1.817   1.414  1.00  0.00     0.264 C 
ATOM      8  C   UNL     1       1.734   1.451   0.048  1.00  0.00     0.097 C 
ATOM      9  N   UNL     1       2.489   0.636   2.059  1.00  0.00    -0.267 N 
ATOM     10  N   UNL     1       2.545  -0.384   1.108  1.00  0.00    -0.301 N 
ATOM     11  H   UNL     1       3.156   0.661   2.824  1.00  0.00     0.191 HD
ATOM     12  H   UNL     1       2.141  -1.284   1.409  1.00  0.00     0.187 HD
ENDBRANCH   4   5
ENDBRANCH   1   4
BRANCH   1  13
ATOM     13  C   UNL     1      -1.055  -0.842  -0.530  1.00  0.00     0.070 A 
ATOM     14  C   UNL     1      -1.804  -0.366  -1.609  1.00  0.00     0.041 A 
ATOM     15  C   UNL     1      -1.425  -0.553   0.786  1.00  0.00     0.041 A 
ATOM     16  C   UNL     1      -2.918   0.433  -1.358  1.00  0.00     0.043 A 
ATOM     17  C   UNL     1      -2.541   0.249   1.013  1.00  0.00     0.043 A 
ATOM     18  C   UNL     1      -3.289   0.748  -0.052  1.00  0.00     0.041 A 
ATOM     19  Cl  UNL     1      -3.840   1.041  -2.677  1.00  0.00    -0.084 Cl
ATOM     20  Cl  UNL     1      -3.000   0.627   2.627  1.00  0.00    -0.084 Cl
ENDBRANCH   1  13
TORSDOF 3
