REMARK SMILES O=c1cc(COc2cc(C(F)(F)F)cc(C(F)(F)F)c2)[nH][nH]1
REMARK SMILES IDX 6 1 5 2 4 3 1 4 2 5 3 6 22 7 21 8 7 11 8 12 20 13 9 14 15 15
REMARK SMILES IDX 14 16 10 17 11 18 12 19 13 20 16 21 17 22 18 23 19 24
REMARK H PARENT 22 9 21 10
ROOT
ATOM      1  O   UNL     1       0.902   0.230   0.103  1.00  0.00    -0.487 OA
ENDROOT
BRANCH   1   2
ATOM      2  C   UNL     1       1.580  -0.882  -0.488  1.00  0.00     0.285 C 
BRANCH   2   3
ATOM      3  C   UNL     1       3.054  -0.626  -0.391  1.00  0.00     0.074 C 
ATOM      4  O   UNL     1       6.295  -0.260  -1.358  1.00  0.00    -0.268 OA
ATOM      5  C   UNL     1       5.219  -0.246  -0.791  1.00  0.00     0.264 C 
ATOM      6  C   UNL     1       3.929  -0.613  -1.407  1.00  0.00     0.099 C 
ATOM      7  N   UNL     1       4.958   0.074   0.532  1.00  0.00    -0.266 N 
ATOM      8  N   UNL     1       3.650  -0.320   0.830  1.00  0.00    -0.299 N 
ATOM      9  H   UNL     1       5.696  -0.042   1.218  1.00  0.00     0.191 HD
ATOM     10  H   UNL     1       3.100   0.380   1.341  1.00  0.00     0.188 HD
ENDBRANCH   2   3
ENDBRANCH   1   2
BRANCH   1  11
ATOM     11  C   UNL     1      -0.464   0.196   0.122  1.00  0.00     0.121 A 
ATOM     12  C   UNL     1      -1.268  -0.842  -0.349  1.00  0.00     0.059 A 
ATOM     13  C   UNL     1      -1.063   1.329   0.678  1.00  0.00     0.059 A 
ATOM     14  C   UNL     1      -2.669  -0.760  -0.260  1.00  0.00     0.060 A 
ATOM     15  C   UNL     1      -2.458   1.447   0.763  1.00  0.00     0.060 A 
ATOM     16  C   UNL     1      -3.254   0.391   0.293  1.00  0.00     0.026 A 
BRANCH  14  17
ATOM     17  C   UNL     1      -3.533  -1.881  -0.788  1.00  0.00     0.416 C 
ATOM     18  F   UNL     1      -2.939  -3.102  -0.682  1.00  0.00    -0.166 F 
ATOM     19  F   UNL     1      -3.832  -1.722  -2.106  1.00  0.00    -0.166 F 
ATOM     20  F   UNL     1      -4.725  -1.988  -0.140  1.00  0.00    -0.166 F 
ENDBRANCH  14  17
BRANCH  15  21
ATOM     21  C   UNL     1      -3.084   2.673   1.384  1.00  0.00     0.416 C 
ATOM     22  F   UNL     1      -2.358   3.806   1.178  1.00  0.00    -0.166 F 
ATOM     23  F   UNL     1      -4.330   2.936   0.901  1.00  0.00    -0.166 F 
ATOM     24  F   UNL     1      -3.222   2.553   2.732  1.00  0.00    -0.166 F 
ENDBRANCH  15  21
ENDBRANCH   1  11
TORSDOF 5
