REMARK SMILES O=c1c2ccccc2ncn1Cc1ccc(Cl)cc1
REMARK SMILES IDX 13 1 14 2 15 3 16 4 17 5 18 6 19 7 12 8 11 9 1 10 2 11 3 12
REMARK SMILES IDX 4 13 8 14 10 15 5 16 7 17 9 18 6 19
REMARK H PARENT
ROOT
ATOM      1  C   UNL     1      -2.220  -0.769  -0.398  1.00  0.00    -0.028 A 
ATOM      2  C   UNL     1      -3.104  -0.089  -1.250  1.00  0.00     0.007 A 
ATOM      3  C   UNL     1      -4.171   0.644  -0.724  1.00  0.00     0.021 A 
ATOM      4  C   UNL     1      -4.359   0.703   0.655  1.00  0.00     0.041 A 
ATOM      5  Cl  UNL     1      -5.674   1.606   1.300  1.00  0.00    -0.084 Cl
ATOM      6  C   UNL     1      -3.489   0.037   1.514  1.00  0.00     0.021 A 
ATOM      7  C   UNL     1      -2.422  -0.695   0.989  1.00  0.00     0.007 A 
ENDROOT
BRANCH   1   8
ATOM      8  C   UNL     1      -1.049  -1.548  -0.958  1.00  0.00     0.162 C 
BRANCH   8   9
ATOM      9  N   UNL     1       0.193  -0.796  -0.880  1.00  0.00    -0.294 N 
ATOM     10  O   UNL     1       0.829  -1.809   1.100  1.00  0.00    -0.269 OA
ATOM     11  C   UNL     1       1.044  -1.007   0.195  1.00  0.00     0.261 C 
ATOM     12  C   UNL     1       2.278  -0.197   0.208  1.00  0.00     0.066 A 
ATOM     13  C   UNL     1       3.211  -0.319   1.244  1.00  0.00     0.016 A 
ATOM     14  C   UNL     1       2.483   0.694  -0.848  1.00  0.00     0.077 A 
ATOM     15  C   UNL     1       0.499   0.114  -1.862  1.00  0.00     0.203 C 
ATOM     16  C   UNL     1       4.367   0.461   1.224  1.00  0.00     0.001 A 
ATOM     17  C   UNL     1       3.645   1.469  -0.855  1.00  0.00     0.029 A 
ATOM     18  N   UNL     1       1.566   0.839  -1.898  1.00  0.00    -0.238 NA
ATOM     19  C   UNL     1       4.584   1.354   0.175  1.00  0.00     0.002 A 
ENDBRANCH   8   9
ENDBRANCH   1   8
TORSDOF 2
