REMARK SMILES O=C1CCc2ccc(NC(=O)C3CC3)cc2N1
REMARK SMILES IDX 1 1 2 2 3 3 4 4 5 5 6 6 7 7 8 8 15 9 16 10 17 11 9 13 10 14
REMARK SMILES IDX 11 15 12 17 13 18 14 19
REMARK H PARENT 17 12 9 16
ROOT
ATOM      1  O   UNL     1      -4.660  -2.223   1.315  1.00  0.00    -0.275 OA
ATOM      2  C   UNL     1      -3.988  -1.326   0.811  1.00  0.00     0.224 C 
ATOM      3  C   UNL     1      -4.616  -0.163   0.078  1.00  0.00     0.105 C 
ATOM      4  C   UNL     1      -3.804   1.112   0.229  1.00  0.00     0.047 C 
ATOM      5  C   UNL     1      -2.346   0.863  -0.036  1.00  0.00    -0.024 A 
ATOM      6  C   UNL     1      -1.510   1.875  -0.510  1.00  0.00     0.008 A 
ATOM      7  C   UNL     1      -0.140   1.639  -0.657  1.00  0.00     0.026 A 
ATOM      8  C   UNL     1       0.416   0.398  -0.316  1.00  0.00     0.043 A 
ATOM      9  C   UNL     1      -0.421  -0.608   0.170  1.00  0.00     0.052 A 
ATOM     10  C   UNL     1      -1.793  -0.376   0.299  1.00  0.00     0.046 A 
ATOM     11  N   UNL     1      -2.620  -1.390   0.794  1.00  0.00    -0.326 N 
ATOM     12  H   UNL     1      -2.211  -2.238   1.166  1.00  0.00     0.169 HD
ENDROOT
BRANCH   8  13
ATOM     13  N   UNL     1       1.808   0.249  -0.486  1.00  0.00    -0.326 N 
ATOM     14  C   UNL     1       2.570  -0.866  -0.221  1.00  0.00     0.227 C 
ATOM     15  O   UNL     1       2.198  -1.953   0.193  1.00  0.00    -0.274 OA
ATOM     16  H   UNL     1       2.307   1.053  -0.844  1.00  0.00     0.169 HD
BRANCH  14  17
ATOM     17  C   UNL     1       4.015  -0.663  -0.526  1.00  0.00     0.079 C 
ATOM     18  C   UNL     1       5.048  -0.941   0.542  1.00  0.00     0.014 C 
ATOM     19  C   UNL     1       4.800   0.469   0.097  1.00  0.00     0.014 C 
ENDBRANCH  14  17
ENDBRANCH   8  13
TORSDOF 2
