REMARK SMILES O=c1c2ccccc2nc(/C=C/c2ccccc2)n1-c1ccccc1O
REMARK SMILES IDX 1 1 2 2 3 3 4 4 5 5 6 6 7 7 8 8 9 9 10 10 19 11 20 12 21 13
REMARK SMILES IDX 25 14 22 15 24 16 23 17 26 18 11 20 12 21 13 22 14 23 18 24
REMARK SMILES IDX 15 25 17 26 16 27
REMARK H PARENT 26 19
ROOT
ATOM      1  O   UNL     1      -3.981  -0.105  -0.285  1.00  0.00    -0.268 OA
ATOM      2  C   UNL     1      -2.928   0.518  -0.147  1.00  0.00     0.266 C 
ATOM      3  C   UNL     1      -3.013   1.959   0.150  1.00  0.00     0.066 A 
ATOM      4  C   UNL     1      -4.252   2.593   0.314  1.00  0.00     0.016 A 
ATOM      5  C   UNL     1      -4.300   3.953   0.616  1.00  0.00     0.001 A 
ATOM      6  C   UNL     1      -3.114   4.673   0.752  1.00  0.00     0.002 A 
ATOM      7  C   UNL     1      -1.884   4.032   0.586  1.00  0.00     0.029 A 
ATOM      8  C   UNL     1      -1.825   2.668   0.285  1.00  0.00     0.078 A 
ATOM      9  N   UNL     1      -0.575   2.075   0.100  1.00  0.00    -0.230 NA
ATOM     10  C   UNL     1      -0.517   0.798  -0.138  1.00  0.00     0.140 C 
ATOM     11  N   UNL     1      -1.639  -0.025  -0.224  1.00  0.00    -0.257 N 
ENDROOT
BRANCH  11  12
ATOM     12  C   UNL     1      -1.534  -1.453  -0.327  1.00  0.00     0.092 A 
ATOM     13  C   UNL     1      -2.194  -2.130  -1.363  1.00  0.00     0.031 A 
ATOM     14  C   UNL     1      -0.801  -2.207   0.606  1.00  0.00     0.139 A 
ATOM     15  C   UNL     1      -2.085  -3.517  -1.490  1.00  0.00     0.002 A 
ATOM     16  C   UNL     1      -0.687  -3.593   0.479  1.00  0.00     0.048 A 
ATOM     17  C   UNL     1      -1.326  -4.245  -0.575  1.00  0.00     0.004 A 
BRANCH  14  18
ATOM     18  O   UNL     1      -0.237  -1.583   1.686  1.00  0.00    -0.506 OA
ATOM     19  H   UNL     1       0.191  -2.244   2.254  1.00  0.00     0.293 HD
ENDBRANCH  14  18
ENDBRANCH  11  12
BRANCH  10  20
ATOM     20  C   UNL     1       0.814   0.197  -0.455  1.00  0.00     0.048 C 
ATOM     21  C   UNL     1       1.906   0.590   0.216  1.00  0.00     0.012 C 
BRANCH  21  22
ATOM     22  C   UNL     1       3.254   0.060  -0.027  1.00  0.00    -0.026 A 
ATOM     23  C   UNL     1       4.355   0.908   0.150  1.00  0.00     0.008 A 
ATOM     24  C   UNL     1       3.484  -1.278  -0.377  1.00  0.00     0.008 A 
ATOM     25  C   UNL     1       5.656   0.437  -0.043  1.00  0.00     0.001 A 
ATOM     26  C   UNL     1       4.786  -1.749  -0.570  1.00  0.00     0.001 A 
ATOM     27  C   UNL     1       5.871  -0.890  -0.406  1.00  0.00     0.000 A 
ENDBRANCH  21  22
ENDBRANCH  10  20
TORSDOF 4
