REMARK SMILES c1ccc2cc3c(Nc4cc[nH]n4)nnc(Nc4cc[nH]n4)c3cc2c1
REMARK SMILES IDX 1 1 2 2 3 3 4 4 5 5 6 6 7 7 14 8 15 9 16 10 23 11 24 12
REMARK SMILES IDX 25 13 26 14 17 15 18 17 19 18 22 19 20 20 21 21 8 23 9 25
REMARK SMILES IDX 10 26 13 27 11 28 12 29
REMARK H PARENT 17 16 21 22 8 24 12 30
ROOT
ATOM      1  C   UNL     1      -0.672   5.455   0.227  1.00  0.00     0.001 A 
ATOM      2  C   UNL     1       0.719   5.448   0.248  1.00  0.00     0.001 A 
ATOM      3  C   UNL     1       1.410   4.238   0.175  1.00  0.00     0.009 A 
ATOM      4  C   UNL     1       0.717   3.019   0.077  1.00  0.00    -0.018 A 
ATOM      5  C   UNL     1       1.393   1.790   0.008  1.00  0.00     0.021 A 
ATOM      6  C   UNL     1       0.713   0.548  -0.094  1.00  0.00     0.031 A 
ATOM      7  C   UNL     1       1.384  -0.694  -0.159  1.00  0.00     0.162 A 
ATOM      8  N   UNL     1       0.681  -1.843  -0.185  1.00  0.00    -0.130 NA
ATOM      9  N   UNL     1      -0.690  -1.837  -0.206  1.00  0.00    -0.130 NA
ATOM     10  C   UNL     1      -1.382  -0.681  -0.201  1.00  0.00     0.162 A 
ATOM     11  C   UNL     1      -0.702   0.554  -0.116  1.00  0.00     0.031 A 
ATOM     12  C   UNL     1      -1.373   1.803  -0.034  1.00  0.00     0.021 A 
ATOM     13  C   UNL     1      -0.688   3.026   0.056  1.00  0.00    -0.018 A 
ATOM     14  C   UNL     1      -1.372   4.251   0.133  1.00  0.00     0.009 A 
ENDROOT
BRANCH  10  15
ATOM     15  N   UNL     1      -2.796  -0.706  -0.253  1.00  0.00    -0.321 N 
ATOM     16  H   UNL     1      -3.143  -0.034  -0.925  1.00  0.00     0.170 HD
BRANCH  15  17
ATOM     17  C   UNL     1      -3.632  -1.753  -0.092  1.00  0.00     0.153 A 
ATOM     18  C   UNL     1      -3.381  -2.928   0.652  1.00  0.00     0.068 A 
ATOM     19  N   UNL     1      -4.865  -1.761  -0.608  1.00  0.00    -0.158 NA
ATOM     20  C   UNL     1      -4.527  -3.679   0.543  1.00  0.00     0.107 A 
ATOM     21  N   UNL     1      -5.376  -2.941  -0.224  1.00  0.00    -0.284 N 
ATOM     22  H   UNL     1      -6.318  -3.176  -0.518  1.00  0.00     0.189 HD
ENDBRANCH  15  17
ENDBRANCH  10  15
BRANCH   7  23
ATOM     23  N   UNL     1       2.798  -0.733  -0.168  1.00  0.00    -0.321 N 
ATOM     24  H   UNL     1       3.172  -0.063  -0.829  1.00  0.00     0.170 HD
BRANCH  23  25
ATOM     25  C   UNL     1       3.620  -1.787   0.018  1.00  0.00     0.153 A 
ATOM     26  C   UNL     1       3.335  -2.960   0.755  1.00  0.00     0.068 A 
ATOM     27  N   UNL     1       4.867  -1.807  -0.460  1.00  0.00    -0.158 NA
ATOM     28  C   UNL     1       4.477  -3.721   0.680  1.00  0.00     0.107 A 
ATOM     29  N   UNL     1       5.355  -2.991  -0.060  1.00  0.00    -0.284 N 
ATOM     30  H   UNL     1       6.303  -3.235  -0.326  1.00  0.00     0.189 HD
ENDBRANCH  23  25
ENDBRANCH   7  23
TORSDOF 4
