REMARK SMILES Fc1cccc(/C=N/Nc2cc(N3CCOCC3)ncn2)c1
REMARK SMILES IDX 7 1 8 2 6 3 2 4 3 5 22 6 4 7 5 8 1 9 9 10 10 12 11 13 21 14
REMARK SMILES IDX 12 15 20 16 19 17 13 18 14 19 18 20 15 21 17 22 16 23
REMARK H PARENT 9 11
ROOT
ATOM      1  C   UNL     1       2.999  -0.463   0.723  1.00  0.00     0.141 C 
ATOM      2  N   UNL     1       2.353   0.507   1.293  1.00  0.00    -0.182 NA
ENDROOT
BRANCH   1   3
ATOM      3  C   UNL     1       4.417  -0.337   0.337  1.00  0.00    -0.003 A 
ATOM      4  C   UNL     1       6.385  -1.316  -0.626  1.00  0.00     0.123 A 
ATOM      5  C   UNL     1       7.098  -0.141  -0.407  1.00  0.00     0.039 A 
ATOM      6  C   UNL     1       5.048  -1.428  -0.260  1.00  0.00     0.049 A 
ATOM      7  C   UNL     1       6.464   0.949   0.189  1.00  0.00     0.004 A 
ATOM      8  C   UNL     1       5.122   0.852   0.562  1.00  0.00     0.010 A 
ATOM      9  F   UNL     1       6.998  -2.359  -1.199  1.00  0.00    -0.207 F 
ENDBRANCH   1   3
BRANCH   2  10
ATOM     10  N   UNL     1       1.036   0.223   1.564  1.00  0.00    -0.261 N 
ATOM     11  H   UNL     1       0.653   0.872   2.251  1.00  0.00     0.192 HD
BRANCH  10  12
ATOM     12  C   UNL     1       0.115   0.196   0.463  1.00  0.00     0.151 A 
ATOM     13  C   UNL     1      -1.228   0.021   0.762  1.00  0.00     0.095 A 
ATOM     14  N   UNL     1       0.547   0.262  -0.806  1.00  0.00    -0.218 NA
ATOM     15  C   UNL     1      -2.135  -0.044  -0.283  1.00  0.00     0.134 A 
ATOM     16  C   UNL     1      -0.392   0.176  -1.752  1.00  0.00     0.226 A 
ATOM     17  N   UNL     1      -1.707   0.024  -1.554  1.00  0.00    -0.219 NA
BRANCH  15  18
ATOM     18  N   UNL     1      -3.493  -0.233  -0.041  1.00  0.00    -0.352 N 
ATOM     19  C   UNL     1      -4.137   0.503   1.062  1.00  0.00     0.146 C 
ATOM     20  C   UNL     1      -4.341  -0.447  -1.226  1.00  0.00     0.146 C 
ATOM     21  C   UNL     1      -5.393   1.243   0.570  1.00  0.00     0.181 C 
ATOM     22  C   UNL     1      -5.788  -0.702  -0.776  1.00  0.00     0.181 C 
ATOM     23  O   UNL     1      -6.368   0.382  -0.032  1.00  0.00    -0.378 OA
ENDBRANCH  15  18
ENDBRANCH  10  12
ENDBRANCH   2  10
TORSDOF 4
