REMARK SMILES Cn1cc(Cl)c(/C=C(\C#N)S(=O)(=O)c2ccccc2)n1
REMARK SMILES IDX 7 1 8 2 9 3 10 4 6 5 2 6 3 7 20 8 4 9 1 10 5 11 11 12 12 13
REMARK SMILES IDX 13 14 14 15 15 16 19 17 16 18 18 19 17 20
REMARK H PARENT
ROOT
ATOM      1  C   UNL     1       1.026   0.283  -1.098  1.00  0.00     0.064 C 
ATOM      2  C   UNL     1      -0.059  -0.471  -0.851  1.00  0.00     0.151 C 
ATOM      3  C   UNL     1      -0.116  -1.487   0.132  1.00  0.00     0.112 C 
ATOM      4  N   UNL     1      -0.166  -2.306   0.953  1.00  0.00    -0.192 NA
ENDROOT
BRANCH   1   5
ATOM      5  C   UNL     1       2.268   0.215  -0.395  1.00  0.00     0.106 A 
ATOM      6  N   UNL     1       4.327  -0.110  -0.022  1.00  0.00    -0.274 N 
ATOM      7  C   UNL     1       3.838   0.333   1.170  1.00  0.00     0.129 A 
ATOM      8  N   UNL     1       3.400  -0.169  -0.997  1.00  0.00    -0.172 NA
ATOM      9  C   UNL     1       2.500   0.562   0.962  1.00  0.00     0.086 A 
ATOM     10  C   UNL     1       5.689  -0.490  -0.315  1.00  0.00     0.173 C 
ATOM     11  Cl  UNL     1       1.378   1.154   2.087  1.00  0.00    -0.080 Cl
ENDBRANCH   1   5
BRANCH   2  12
ATOM     12  S   UNL     1      -1.470  -0.241  -1.825  1.00  0.00     0.216 S 
ATOM     13  O   UNL     1      -1.366   0.991  -2.589  1.00  0.00    -0.218 OA
ATOM     14  O   UNL     1      -1.795  -1.481  -2.506  1.00  0.00    -0.218 OA
BRANCH  12  15
ATOM     15  C   UNL     1      -2.746   0.046  -0.611  1.00  0.00     0.072 A 
ATOM     16  C   UNL     1      -2.891   1.326  -0.063  1.00  0.00     0.021 A 
ATOM     17  C   UNL     1      -3.602  -0.994  -0.239  1.00  0.00     0.021 A 
ATOM     18  C   UNL     1      -3.887   1.554   0.886  1.00  0.00     0.001 A 
ATOM     19  C   UNL     1      -4.594  -0.756   0.711  1.00  0.00     0.001 A 
ATOM     20  C   UNL     1      -4.734   0.514   1.274  1.00  0.00     0.000 A 
ENDBRANCH  12  15
ENDBRANCH   2  12
TORSDOF 3
