REMARK SMILES O=C(O)c1ccc2c3c(ncnc13)-c1ccccc1C2=O
REMARK SMILES IDX 1 1 2 2 3 3 4 5 5 6 13 7 6 8 12 9 8 10 7 11 11 12 9 13 20 14
REMARK SMILES IDX 10 15 14 16 19 17 21 18 15 19 18 20 16 21 17 22
REMARK H PARENT 3 4
ROOT
ATOM      1  O   UNL     1      -5.210   0.854  -0.209  1.00  0.00    -0.246 OA
ATOM      2  C   UNL     1      -4.293   0.238  -0.717  1.00  0.00     0.337 C 
ENDROOT
BRANCH   2   3
ATOM      3  O   UNL     1      -4.430  -0.441  -1.868  1.00  0.00    -0.478 OA
ATOM      4  H   UNL     1      -5.336  -0.230  -2.173  1.00  0.00     0.297 HD
ENDBRANCH   2   3
BRANCH   2   5
ATOM      5  C   UNL     1      -2.973   0.020  -0.109  1.00  0.00     0.086 A 
ATOM      6  C   UNL     1      -2.959  -0.493   1.199  1.00  0.00     0.019 A 
ATOM      7  C   UNL     1      -1.801   0.343  -0.806  1.00  0.00     0.089 A 
ATOM      8  C   UNL     1      -1.745  -0.731   1.830  1.00  0.00     0.014 A 
ATOM      9  N   UNL     1      -1.811   0.888  -2.039  1.00  0.00    -0.235 NA
ATOM     10  C   UNL     1      -0.589   0.094  -0.150  1.00  0.00     0.039 A 
ATOM     11  C   UNL     1      -0.562  -0.443   1.151  1.00  0.00     0.034 A 
ATOM     12  C   UNL     1      -0.635   1.153  -2.620  1.00  0.00     0.223 A 
ATOM     13  C   UNL     1       0.579   0.409  -0.842  1.00  0.00     0.083 A 
ATOM     14  C   UNL     1       0.744  -0.692   1.807  1.00  0.00     0.194 C 
ATOM     15  N   UNL     1       0.568   0.938  -2.083  1.00  0.00    -0.236 NA
ATOM     16  C   UNL     1       1.898   0.175  -0.229  1.00  0.00     0.012 A 
ATOM     17  C   UNL     1       1.987  -0.363   1.067  1.00  0.00     0.032 A 
ATOM     18  O   UNL     1       0.787  -1.162   2.938  1.00  0.00    -0.289 OA
ATOM     19  C   UNL     1       3.102   0.473  -0.894  1.00  0.00     0.011 A 
ATOM     20  C   UNL     1       3.228  -0.597   1.677  1.00  0.00     0.013 A 
ATOM     21  C   UNL     1       4.341   0.241  -0.288  1.00  0.00     0.001 A 
ATOM     22  C   UNL     1       4.404  -0.293   0.996  1.00  0.00     0.001 A 
ENDBRANCH   2   5
TORSDOF 2
