REMARK SMILES COc1ccc(-c2cc3ccccc3c(=O)n2OC)cc1
REMARK SMILES IDX 7 1 8 2 9 3 10 4 11 5 12 6 13 7 14 8 15 9 16 10 17 11 6 12
REMARK SMILES IDX 3 13 4 14 21 15 5 16 20 17 2 18 1 19 18 20 19 21
REMARK H PARENT
ROOT
ATOM      1  C   UNL     1      -0.473  -0.193  -0.177  1.00  0.00     0.092 C 
ATOM      2  C   UNL     1      -1.146  -0.442   0.959  1.00  0.00     0.039 C 
ATOM      3  C   UNL     1      -2.606  -0.326   0.977  1.00  0.00    -0.011 A 
ATOM      4  C   UNL     1      -3.327  -0.549   2.156  1.00  0.00     0.009 A 
ATOM      5  C   UNL     1      -4.721  -0.448   2.156  1.00  0.00     0.001 A 
ATOM      6  C   UNL     1      -5.404  -0.129   0.981  1.00  0.00     0.001 A 
ATOM      7  C   UNL     1      -4.695   0.092  -0.199  1.00  0.00     0.014 A 
ATOM      8  C   UNL     1      -3.298  -0.005  -0.200  1.00  0.00     0.050 A 
ATOM      9  C   UNL     1      -2.532   0.232  -1.454  1.00  0.00     0.291 C 
ATOM     10  O   UNL     1      -3.136   0.458  -2.500  1.00  0.00    -0.265 OA
ATOM     11  N   UNL     1      -1.151   0.189  -1.317  1.00  0.00    -0.144 N 
ENDROOT
BRANCH   1  12
ATOM     12  C   UNL     1       0.994  -0.336  -0.178  1.00  0.00     0.002 A 
ATOM     13  C   UNL     1       3.796  -0.624  -0.146  1.00  0.00     0.118 A 
ATOM     14  C   UNL     1       2.995  -1.541  -0.831  1.00  0.00     0.047 A 
ATOM     15  C   UNL     1       3.192   0.440   0.525  1.00  0.00     0.047 A 
ATOM     16  C   UNL     1       1.604  -1.401  -0.848  1.00  0.00     0.014 A 
ATOM     17  C   UNL     1       1.799   0.582   0.510  1.00  0.00     0.014 A 
BRANCH  13  18
ATOM     18  O   UNL     1       5.138  -0.878  -0.210  1.00  0.00    -0.497 OA
ATOM     19  C   UNL     1       5.999   0.040   0.450  1.00  0.00     0.278 C 
ENDBRANCH  13  18
ENDBRANCH   1  12
BRANCH  11  20
ATOM     20  O   UNL     1      -0.400   0.260  -2.516  1.00  0.00    -0.413 OA
ATOM     21  C   UNL     1      -0.178   1.627  -2.851  1.00  0.00     0.313 C 
ENDBRANCH  11  20
TORSDOF 3
