REMARK SMILES N=C(N)N1CCc2ccccc2C1
REMARK SMILES IDX 1 1 2 2 3 3 4 7 5 8 13 9 6 10 12 11 7 12 11 13 8 14 10 15
REMARK SMILES IDX 9 16
REMARK H PARENT 1 4 3 5 3 6
ROOT
ATOM      1  N   UNL     1       2.887   1.303  -1.801  1.00  0.00    -0.269 NA
ATOM      2  C   UNL     1       2.665   0.651  -0.712  1.00  0.00     0.188 C 
ATOM      3  N   UNL     1       3.674   0.364   0.140  1.00  0.00    -0.370 N 
ATOM      4  H   UNL     1       3.886   1.487  -1.894  1.00  0.00     0.191 HD
ATOM      5  H   UNL     1       3.399   0.456   1.110  1.00  0.00     0.159 HD
ATOM      6  H   UNL     1       4.529   0.875  -0.033  1.00  0.00     0.159 HD
ENDROOT
BRANCH   2   7
ATOM      7  N   UNL     1       1.422   0.232  -0.332  1.00  0.00    -0.339 N 
ATOM      8  C   UNL     1       1.191  -0.819   0.666  1.00  0.00     0.124 C 
ATOM      9  C   UNL     1       0.265   0.749  -1.083  1.00  0.00     0.155 C 
ATOM     10  C   UNL     1      -0.017  -1.699   0.345  1.00  0.00     0.057 C 
ATOM     11  C   UNL     1      -1.079   0.383  -0.489  1.00  0.00    -0.025 A 
ATOM     12  C   UNL     1      -1.235  -0.838   0.184  1.00  0.00    -0.041 A 
ATOM     13  C   UNL     1      -2.196   1.208  -0.677  1.00  0.00     0.006 A 
ATOM     14  C   UNL     1      -2.492  -1.229   0.656  1.00  0.00     0.004 A 
ATOM     15  C   UNL     1      -3.446   0.823  -0.189  1.00  0.00     0.000 A 
ATOM     16  C   UNL     1      -3.594  -0.394   0.474  1.00  0.00     0.000 A 
ENDBRANCH   2   7
TORSDOF 1
