REMARK SMILES CC(C)Oc1ccccc1Cn1c(=O)oc2ccccc21
REMARK SMILES IDX 5 1 6 2 7 3 8 4 9 5 10 6 4 7 2 8 1 9 3 10 11 11 12 12 13 13
REMARK SMILES IDX 21 14 14 15 15 16 20 17 16 18 19 19 17 20 18 21
REMARK H PARENT
ROOT
ATOM      1  C   UNL     1      -1.457   0.494   0.305  1.00  0.00     0.124 A 
ATOM      2  C   UNL     1      -2.286   0.851   1.371  1.00  0.00     0.047 A 
ATOM      3  C   UNL     1      -2.072   2.045   2.057  1.00  0.00     0.004 A 
ATOM      4  C   UNL     1      -1.016   2.875   1.689  1.00  0.00     0.001 A 
ATOM      5  C   UNL     1      -0.163   2.499   0.650  1.00  0.00     0.009 A 
ATOM      6  C   UNL     1      -0.356   1.290  -0.043  1.00  0.00     0.014 A 
ENDROOT
BRANCH   1   7
ATOM      7  O   UNL     1      -1.698  -0.697  -0.331  1.00  0.00    -0.491 OA
BRANCH   7   8
ATOM      8  C   UNL     1      -2.616  -0.546  -1.432  1.00  0.00     0.167 C 
ATOM      9  C   UNL     1      -2.173  -1.518  -2.525  1.00  0.00     0.052 C 
ATOM     10  C   UNL     1      -4.035  -0.891  -0.987  1.00  0.00     0.052 C 
ENDBRANCH   7   8
ENDBRANCH   1   7
BRANCH   6  11
ATOM     11  C   UNL     1       0.620   0.891  -1.125  1.00  0.00     0.169 C 
BRANCH  11  12
ATOM     12  N   UNL     1       1.962   0.701  -0.635  1.00  0.00    -0.269 N 
ATOM     13  C   UNL     1       2.998   1.602  -0.748  1.00  0.00     0.420 C 
ATOM     14  C   UNL     1       2.429  -0.394   0.054  1.00  0.00     0.090 A 
ATOM     15  O   UNL     1       2.946   2.697  -1.292  1.00  0.00    -0.223 OA
ATOM     16  O   UNL     1       4.165   1.107  -0.146  1.00  0.00    -0.408 OA
ATOM     17  C   UNL     1       1.819  -1.567   0.445  1.00  0.00     0.030 A 
ATOM     18  C   UNL     1       3.754  -0.126   0.334  1.00  0.00     0.156 A 
ATOM     19  C   UNL     1       2.602  -2.490   1.145  1.00  0.00     0.002 A 
ATOM     20  C   UNL     1       4.546  -1.020   1.022  1.00  0.00     0.049 A 
ATOM     21  C   UNL     1       3.956  -2.220   1.431  1.00  0.00     0.004 A 
ENDBRANCH  11  12
ENDBRANCH   6  11
TORSDOF 4
