REMARK SMILES NC[C@H]1CC[C@H](C(=O)O)CC1
REMARK SMILES IDX 3 1 11 2 10 3 6 4 5 5 4 6 2 7 1 8 7 11 8 12 9 13
REMARK H PARENT 1 9 1 10 9 14
ROOT
ATOM      1  C   UNL     1      -1.166   0.579  -0.217  1.00  0.00     0.003 C 
ATOM      2  C   UNL     1      -0.386   0.751   1.098  1.00  0.00     0.006 C 
ATOM      3  C   UNL     1       1.123   0.733   0.857  1.00  0.00     0.015 C 
ATOM      4  C   UNL     1       1.557  -0.537   0.120  1.00  0.00     0.099 C 
ATOM      5  C   UNL     1       0.776  -0.730  -1.183  1.00  0.00     0.015 C 
ATOM      6  C   UNL     1      -0.733  -0.708  -0.937  1.00  0.00     0.006 C 
ENDROOT
BRANCH   1   7
ATOM      7  C   UNL     1      -2.692   0.660  -0.014  1.00  0.00     0.081 C 
BRANCH   7   8
ATOM      8  N   UNL     1      -3.263  -0.382   0.830  1.00  0.00    -0.330 NA
ATOM      9  H   UNL     1      -2.837  -0.360   1.755  1.00  0.00     0.118 HD
ATOM     10  H   UNL     1      -3.061  -1.301   0.442  1.00  0.00     0.118 HD
ENDBRANCH   7   8
ENDBRANCH   1   7
BRANCH   4  11
ATOM     11  C   UNL     1       3.045  -0.532  -0.138  1.00  0.00     0.306 C 
ATOM     12  O   UNL     1       3.848  -1.338   0.303  1.00  0.00    -0.252 OA
BRANCH  11  13
ATOM     13  O   UNL     1       3.456   0.475  -0.930  1.00  0.00    -0.481 OA
ATOM     14  H   UNL     1       4.425   0.342  -1.000  1.00  0.00     0.296 HD
ENDBRANCH  11  13
ENDBRANCH   4  11
TORSDOF 4
