REMARK SMILES CCC(=O)Nc1sc2c(c1C#N)CC(C)(CC)OC2
REMARK SMILES IDX 6 1 7 2 8 3 9 4 10 5 11 6 12 7 13 8 14 9 15 10 18 11 19 12
REMARK SMILES IDX 5 13 3 14 4 15 2 17 1 18 16 19 17 20
REMARK H PARENT 5 16
ROOT
ATOM      1  C   UNL     1       1.743  -0.121  -0.158  1.00  0.00     0.114 A 
ATOM      2  S   UNL     1       1.049  -0.819  -1.549  1.00  0.00    -0.119 S 
ATOM      3  C   UNL     1      -0.506  -0.276  -1.142  1.00  0.00     0.037 A 
ATOM      4  C   UNL     1      -0.523   0.421   0.047  1.00  0.00    -0.009 A 
ATOM      5  C   UNL     1       0.787   0.520   0.613  1.00  0.00     0.090 A 
ATOM      6  C   UNL     1       1.094   1.198   1.837  1.00  0.00     0.103 C 
ATOM      7  N   UNL     1       1.378   1.734   2.826  1.00  0.00    -0.192 NA
ATOM      8  C   UNL     1      -1.810   0.987   0.568  1.00  0.00     0.073 C 
ATOM      9  C   UNL     1      -3.038   0.337  -0.133  1.00  0.00     0.070 C 
ATOM     10  C   UNL     1      -3.357  -1.053   0.447  1.00  0.00     0.043 C 
ATOM     11  O   UNL     1      -2.800   0.252  -1.561  1.00  0.00    -0.369 OA
ATOM     12  C   UNL     1      -1.700  -0.577  -1.982  1.00  0.00     0.208 C 
ENDROOT
BRANCH   1  13
ATOM     13  N   UNL     1       3.105  -0.215   0.104  1.00  0.00    -0.317 N 
ATOM     14  C   UNL     1       4.060  -0.873  -0.660  1.00  0.00     0.224 C 
ATOM     15  O   UNL     1       3.882  -1.499  -1.697  1.00  0.00    -0.275 OA
ATOM     16  H   UNL     1       3.434   0.241   0.948  1.00  0.00     0.170 HD
BRANCH  14  17
ATOM     17  C   UNL     1       5.441  -0.731  -0.035  1.00  0.00     0.097 C 
ATOM     18  C   UNL     1       6.523  -1.432  -0.838  1.00  0.00     0.014 C 
ENDBRANCH  14  17
ENDBRANCH   1  13
BRANCH   9  19
ATOM     19  C   UNL     1      -4.277   1.260  -0.006  1.00  0.00     0.032 C 
ATOM     20  C   UNL     1      -4.730   1.580   1.412  1.00  0.00     0.007 C 
ENDBRANCH   9  19
TORSDOF 3
