REMARK SMILES OC(O)C(Cl)(Cl)Cl
REMARK SMILES IDX 2 1 1 2 3 4 4 6 5 7 6 8 7 9
REMARK H PARENT 1 3 3 5
ROOT
ATOM      1  C   UNL     1      -0.390   0.048  -0.063  1.00  0.00     0.296 C 
ENDROOT
BRANCH   1   2
ATOM      2  O   UNL     1      -0.765   1.273   0.559  1.00  0.00    -0.365 OA
ATOM      3  H   UNL     1      -1.627   1.533   0.197  1.00  0.00     0.214 HD
ENDBRANCH   1   2
BRANCH   1   4
ATOM      4  O   UNL     1      -1.059  -0.995   0.639  1.00  0.00    -0.365 OA
ATOM      5  H   UNL     1      -1.962  -1.051   0.288  1.00  0.00     0.214 HD
ENDBRANCH   1   4
BRANCH   1   6
ATOM      6  C   UNL     1       1.170  -0.155  -0.099  1.00  0.00     0.240 C 
ATOM      7  Cl  UNL     1       1.887  -0.190   1.543  1.00  0.00    -0.078 Cl
ATOM      8  Cl  UNL     1       1.942   1.177  -1.035  1.00  0.00    -0.078 Cl
ATOM      9  Cl  UNL     1       1.570  -1.701  -0.934  1.00  0.00    -0.078 Cl
ENDBRANCH   1   6
TORSDOF 3
