MODEL 1
REMARK VINA RESULT:     0.000      0.000      0.000
REMARK INTER + INTRA:          -0.410
REMARK INTER:                   0.000
REMARK INTRA:                  -0.410
REMARK UNBOUND:                -0.410
REMARK  Name = 
REMARK  4 active torsions:
REMARK  status: ('A' for Active; 'I' for Inactive)
REMARK    1  A    between atoms: C_3  and  O_20
REMARK    2  A    between atoms: C_6  and  C_7
REMARK    3  A    between atoms: C_12  and  O_19
REMARK    4  A    between atoms: C_14  and  O_18
REMARK                            x       y       z     vdW  Elec       q    Type
REMARK                         _______ _______ _______ _____ _____    ______ ____
ROOT
ATOM      1  C   UNL     1       2.994  16.357  -4.165  0.00  0.00    +0.000 A 
ATOM      2  C   UNL     1       2.833  17.786  -4.226  0.00  0.00    +0.000 A 
ATOM      3  C   UNL     1       3.378  18.618  -3.185  0.00  0.00    +0.000 A 
ATOM      4  O   UNL     1       3.235  19.880  -3.239  0.00  0.00    +0.000 OA
ATOM      5  C   UNL     1       4.085  18.021  -2.082  0.00  0.00    +0.000 A 
ATOM      6  C   UNL     1       4.630  18.852  -1.040  0.00  0.00    +0.000 A 
ATOM      7  C   UNL     1       4.468  20.282  -1.102  0.00  0.00    +0.000 A 
ATOM      8  C   UNL     1       5.013  21.114  -0.061  0.00  0.00    +0.000 A 
ATOM      9  C   UNL     1       4.851  22.544  -0.121  0.00  0.00    +0.000 A 
ATOM     10  C   UNL     1       4.247  16.591  -2.020  0.00  0.00    +0.000 A 
ATOM     11  O   UNL     1       2.485  15.579  -5.138  0.00  0.00    +0.000 OA
ENDROOT
BRANCH   1  17
ATOM     12  C   UNL     1       5.120  15.338  -3.156  0.00  0.00    +0.000 A 
ATOM     13  C   UNL     1       5.828  14.739  -2.053  0.00  0.00    +0.000 A 
ATOM     14  C   UNL     1       7.206  14.353  -2.208  0.00  0.00    +0.000 A 
ATOM     15  C   UNL     1       7.913  13.754  -1.105  0.00  0.00    +0.000 A 
ATOM     16  C   UNL     1       9.292  13.366  -1.260  0.00  0.00    +0.000 A 
ATOM     17  C   UNL     1       3.742  15.726  -3.001  0.00  0.00    +0.000 A 
BRANCH  14  18
ATOM     18  O   UNL     1       7.868  14.560  -3.447  0.00  0.00    +0.000 OA
ATOM     19  H   UNL     1       8.796  14.931  -3.462  0.00  0.00    +0.000 HD
ENDBRANCH  14  18
ENDBRANCH   1  17
BRANCH   8  20
ATOM     20  O   UNL     1       5.711  20.524   1.027  0.00  0.00    +0.000 OA
ATOM     21  H   UNL     1       6.698  20.372   0.964  0.00  0.00    +0.000 HD
ENDBRANCH   8  20
BRANCH   6  22
ATOM     22  O   UNL     1       5.328  18.263   0.047  0.00  0.00    +0.000 OA
ATOM     23  H   UNL     1       4.999  17.408   0.448  0.00  0.00    +0.000 HD
ENDBRANCH   6  22
TORSDOF 4
ENDMDL
MODEL 2
REMARK VINA RESULT:     0.000      9.835     12.602
REMARK INTER + INTRA:          -0.410
REMARK INTER:                   0.000
REMARK INTRA:                  -0.410
REMARK UNBOUND:                -0.410
REMARK  Name = 
REMARK  4 active torsions:
REMARK  status: ('A' for Active; 'I' for Inactive)
REMARK    1  A    between atoms: C_3  and  O_20
REMARK    2  A    between atoms: C_6  and  C_7
REMARK    3  A    between atoms: C_12  and  O_19
REMARK    4  A    between atoms: C_14  and  O_18
REMARK                            x       y       z     vdW  Elec       q    Type
REMARK                         _______ _______ _______ _____ _____    ______ ____
ROOT
ATOM      1  C   UNL     1       0.693  10.237  -2.494  0.00  0.00    +0.000 A 
ATOM      2  C   UNL     1      -0.068   9.941  -3.679  0.00  0.00    +0.000 A 
ATOM      3  C   UNL     1      -0.896   8.763  -3.728  0.00  0.00    +0.000 A 
ATOM      4  O   UNL     1      -1.568   8.503  -4.775  0.00  0.00    +0.000 OA
ATOM      5  C   UNL     1      -0.962   7.882  -2.591  0.00  0.00    +0.000 A 
ATOM      6  C   UNL     1      -1.790   6.705  -2.640  0.00  0.00    +0.000 A 
ATOM      7  C   UNL     1      -2.552   6.409  -3.825  0.00  0.00    +0.000 A 
ATOM      8  C   UNL     1      -3.380   5.232  -3.874  0.00  0.00    +0.000 A 
ATOM      9  C   UNL     1      -4.142   4.935  -5.061  0.00  0.00    +0.000 A 
ATOM     10  C   UNL     1      -0.201   8.179  -1.405  0.00  0.00    +0.000 A 
ATOM     11  O   UNL     1       1.467  11.337  -2.448  0.00  0.00    +0.000 OA
ENDROOT
BRANCH   1  17
ATOM     12  C   UNL     1      -0.230   9.634  -0.179  0.00  0.00    +0.000 A 
ATOM     13  C   UNL     1      -0.296   8.752   0.959  0.00  0.00    +0.000 A 
ATOM     14  C   UNL     1      -1.150   9.079   2.072  0.00  0.00    +0.000 A 
ATOM     15  C   UNL     1      -1.215   8.198   3.210  0.00  0.00    +0.000 A 
ATOM     16  C   UNL     1      -2.069   8.524   4.324  0.00  0.00    +0.000 A 
ATOM     17  C   UNL     1       0.623   9.307  -1.293  0.00  0.00    +0.000 A 
BRANCH  14  18
ATOM     18  O   UNL     1      -1.925  10.268   2.049  0.00  0.00    +0.000 OA
ATOM     19  H   UNL     1      -2.642  10.385   1.361  0.00  0.00    +0.000 HD
ENDBRANCH  14  18
ENDBRANCH   1  17
BRANCH   8  20
ATOM     20  O   UNL     1      -3.446   4.364  -2.753  0.00  0.00    +0.000 OA
ATOM     21  H   UNL     1      -3.118   3.422  -2.829  0.00  0.00    +0.000 HD
ENDBRANCH   8  20
BRANCH   6  22
ATOM     22  O   UNL     1      -1.857   5.837  -1.519  0.00  0.00    +0.000 OA
ATOM     23  H   UNL     1      -1.214   5.075  -1.438  0.00  0.00    +0.000 HD
ENDBRANCH   6  22
TORSDOF 4
ENDMDL
MODEL 3
REMARK VINA RESULT:     0.000      6.497     10.505
REMARK INTER + INTRA:          -0.410
REMARK INTER:                   0.000
REMARK INTRA:                  -0.410
REMARK UNBOUND:                -0.410
REMARK  Name = 
REMARK  4 active torsions:
REMARK  status: ('A' for Active; 'I' for Inactive)
REMARK    1  A    between atoms: C_3  and  O_20
REMARK    2  A    between atoms: C_6  and  C_7
REMARK    3  A    between atoms: C_12  and  O_19
REMARK    4  A    between atoms: C_14  and  O_18
REMARK                            x       y       z     vdW  Elec       q    Type
REMARK                         _______ _______ _______ _____ _____    ______ ____
ROOT
ATOM      1  C   UNL     1       0.418  14.991  -4.258  0.00  0.00    +0.000 A 
ATOM      2  C   UNL     1       0.114  14.176  -5.404  0.00  0.00    +0.000 A 
ATOM      3  C   UNL     1      -1.238  13.737  -5.637  0.00  0.00    +0.000 A 
ATOM      4  O   UNL     1      -1.507  13.017  -6.649  0.00  0.00    +0.000 OA
ATOM      5  C   UNL     1      -2.285  14.114  -4.723  0.00  0.00    +0.000 A 
ATOM      6  C   UNL     1      -3.637  13.675  -4.956  0.00  0.00    +0.000 A 
ATOM      7  C   UNL     1      -3.941  12.859  -6.103  0.00  0.00    +0.000 A 
ATOM      8  C   UNL     1      -5.293  12.421  -6.335  0.00  0.00    +0.000 A 
ATOM      9  C   UNL     1      -5.599  11.604  -7.482  0.00  0.00    +0.000 A 
ATOM     10  C   UNL     1      -1.980  14.930  -3.576  0.00  0.00    +0.000 A 
ATOM     11  O   UNL     1       1.682  15.401  -4.040  0.00  0.00    +0.000 OA
ENDROOT
BRANCH   1  17
ATOM     12  C   UNL     1      -1.291  16.694  -3.390  0.00  0.00    +0.000 A 
ATOM     13  C   UNL     1      -2.338  17.072  -2.476  0.00  0.00    +0.000 A 
ATOM     14  C   UNL     1      -2.943  18.375  -2.574  0.00  0.00    +0.000 A 
ATOM     15  C   UNL     1      -3.989  18.753  -1.659  0.00  0.00    +0.000 A 
ATOM     16  C   UNL     1      -4.594  20.057  -1.757  0.00  0.00    +0.000 A 
ATOM     17  C   UNL     1      -0.687  15.390  -3.293  0.00  0.00    +0.000 A 
BRANCH  14  18
ATOM     18  O   UNL     1      -2.507  19.288  -3.571  0.00  0.00    +0.000 OA
ATOM     19  H   UNL     1      -1.624  19.153  -4.020  0.00  0.00    +0.000 HD
ENDBRANCH  14  18
ENDBRANCH   1  17
BRANCH   8  20
ATOM     20  O   UNL     1      -6.325  12.793  -5.435  0.00  0.00    +0.000 OA
ATOM     21  H   UNL     1      -7.109  13.321  -5.763  0.00  0.00    +0.000 HD
ENDBRANCH   8  20
BRANCH   6  22
ATOM     22  O   UNL     1      -4.669  14.048  -4.055  0.00  0.00    +0.000 OA
ATOM     23  H   UNL     1      -5.488  13.480  -3.970  0.00  0.00    +0.000 HD
ENDBRANCH   6  22
TORSDOF 4
ENDMDL
MODEL 4
REMARK VINA RESULT:     0.000      6.251     10.337
REMARK INTER + INTRA:          -0.410
REMARK INTER:                   0.000
REMARK INTRA:                  -0.410
REMARK UNBOUND:                -0.410
REMARK  Name = 
REMARK  4 active torsions:
REMARK  status: ('A' for Active; 'I' for Inactive)
REMARK    1  A    between atoms: C_3  and  O_20
REMARK    2  A    between atoms: C_6  and  C_7
REMARK    3  A    between atoms: C_12  and  O_19
REMARK    4  A    between atoms: C_14  and  O_18
REMARK                            x       y       z     vdW  Elec       q    Type
REMARK                         _______ _______ _______ _____ _____    ______ ____
ROOT
ATOM      1  C   UNL     1       1.034  15.513  -5.685  0.00  0.00    +0.000 A 
ATOM      2  C   UNL     1       0.825  14.847  -6.944  0.00  0.00    +0.000 A 
ATOM      3  C   UNL     1      -0.500  14.766  -7.504  0.00  0.00    +0.000 A 
ATOM      4  O   UNL     1      -0.684  14.178  -8.615  0.00  0.00    +0.000 OA
ATOM      5  C   UNL     1      -1.614  15.352  -6.805  0.00  0.00    +0.000 A 
ATOM      6  C   UNL     1      -2.938  15.271  -7.365  0.00  0.00    +0.000 A 
ATOM      7  C   UNL     1      -3.148  14.605  -8.624  0.00  0.00    +0.000 A 
ATOM      8  C   UNL     1      -4.472  14.524  -9.184  0.00  0.00    +0.000 A 
ATOM      9  C   UNL     1      -4.683  13.857 -10.443  0.00  0.00    +0.000 A 
ATOM     10  C   UNL     1      -1.404  16.019  -5.545  0.00  0.00    +0.000 A 
ATOM     11  O   UNL     1       2.272  15.589  -5.161  0.00  0.00    +0.000 OA
ENDROOT
BRANCH   1  17
ATOM     12  C   UNL     1      -0.388  17.548  -5.045  0.00  0.00    +0.000 A 
ATOM     13  C   UNL     1      -1.503  18.134  -4.345  0.00  0.00    +0.000 A 
ATOM     14  C   UNL     1      -1.750  19.550  -4.445  0.00  0.00    +0.000 A 
ATOM     15  C   UNL     1      -2.864  20.136  -3.745  0.00  0.00    +0.000 A 
ATOM     16  C   UNL     1      -3.111  21.552  -3.843  0.00  0.00    +0.000 A 
ATOM     17  C   UNL     1      -0.142  16.132  -4.947  0.00  0.00    +0.000 A 
BRANCH  14  18
ATOM     18  O   UNL     1      -0.895  20.367  -5.231  0.00  0.00    +0.000 OA
ATOM     19  H   UNL     1      -0.341  19.958  -5.956  0.00  0.00    +0.000 HD
ENDBRANCH  14  18
ENDBRANCH   1  17
BRANCH   8  20
ATOM     20  O   UNL     1      -5.571  15.102  -8.495  0.00  0.00    +0.000 OA
ATOM     21  H   UNL     1      -5.425  15.883  -7.888  0.00  0.00    +0.000 HD
ENDBRANCH   8  20
BRANCH   6  22
ATOM     22  O   UNL     1      -4.037  15.849  -6.676  0.00  0.00    +0.000 OA
ATOM     23  H   UNL     1      -4.152  16.842  -6.663  0.00  0.00    +0.000 HD
ENDBRANCH   6  22
TORSDOF 4
ENDMDL
MODEL 5
REMARK VINA RESULT:     0.000      6.467      8.531
REMARK INTER + INTRA:          -0.410
REMARK INTER:                   0.000
REMARK INTRA:                  -0.410
REMARK UNBOUND:                -0.410
REMARK  Name = 
REMARK  4 active torsions:
REMARK  status: ('A' for Active; 'I' for Inactive)
REMARK    1  A    between atoms: C_3  and  O_20
REMARK    2  A    between atoms: C_6  and  C_7
REMARK    3  A    between atoms: C_12  and  O_19
REMARK    4  A    between atoms: C_14  and  O_18
REMARK                            x       y       z     vdW  Elec       q    Type
REMARK                         _______ _______ _______ _____ _____    ______ ____
ROOT
ATOM      1  C   UNL     1       5.942  25.861  -5.465  0.00  0.00    +0.000 A 
ATOM      2  C   UNL     1       4.662  25.936  -6.120  0.00  0.00    +0.000 A 
ATOM      3  C   UNL     1       3.659  24.937  -5.855  0.00  0.00    +0.000 A 
ATOM      4  O   UNL     1       2.529  25.004  -6.433  0.00  0.00    +0.000 OA
ATOM      5  C   UNL     1       3.936  23.864  -4.936  0.00  0.00    +0.000 A 
ATOM      6  C   UNL     1       2.932  22.865  -4.672  0.00  0.00    +0.000 A 
ATOM      7  C   UNL     1       1.652  22.940  -5.326  0.00  0.00    +0.000 A 
ATOM      8  C   UNL     1       0.649  21.942  -5.062  0.00  0.00    +0.000 A 
ATOM      9  C   UNL     1      -0.633  22.016  -5.717  0.00  0.00    +0.000 A 
ATOM     10  C   UNL     1       5.216  23.789  -4.281  0.00  0.00    +0.000 A 
ATOM     11  O   UNL     1       6.880  26.794  -5.712  0.00  0.00    +0.000 OA
ENDROOT
BRANCH   1  17
ATOM     12  C   UNL     1       6.122  24.950  -3.076  0.00  0.00    +0.000 A 
ATOM     13  C   UNL     1       6.400  23.876  -2.156  0.00  0.00    +0.000 A 
ATOM     14  C   UNL     1       6.286  24.097  -0.737  0.00  0.00    +0.000 A 
ATOM     15  C   UNL     1       6.564  23.023   0.182  0.00  0.00    +0.000 A 
ATOM     16  C   UNL     1       6.451  23.244   1.601  0.00  0.00    +0.000 A 
ATOM     17  C   UNL     1       6.235  24.728  -4.494  0.00  0.00    +0.000 A 
BRANCH  14  18
ATOM     18  O   UNL     1       5.902  25.372  -0.245  0.00  0.00    +0.000 OA
ATOM     19  H   UNL     1       5.153  25.871  -0.682  0.00  0.00    +0.000 HD
ENDBRANCH  14  18
ENDBRANCH   1  17
BRANCH   8  20
ATOM     20  O   UNL     1       0.922  20.884  -4.155  0.00  0.00    +0.000 OA
ATOM     21  H   UNL     1       0.454  20.005  -4.257  0.00  0.00    +0.000 HD
ENDBRANCH   8  20
BRANCH   6  22
ATOM     22  O   UNL     1       3.205  21.807  -3.765  0.00  0.00    +0.000 OA
ATOM     23  H   UNL     1       3.963  21.887  -3.117  0.00  0.00    +0.000 HD
ENDBRANCH   6  22
TORSDOF 4
ENDMDL
