MODEL 1
REMARK VINA RESULT:    -0.000      0.000      0.000
REMARK INTER + INTRA:          -0.573
REMARK INTER:                   0.000
REMARK INTRA:                  -0.573
REMARK UNBOUND:                -0.573
REMARK  Name = 
REMARK  4 active torsions:
REMARK  status: ('A' for Active; 'I' for Inactive)
REMARK    1  A    between atoms: C_1  and  C_2
REMARK    2  A    between atoms: C_4  and  C_7
REMARK    3  A    between atoms: N_9  and  C_10
REMARK    4  A    between atoms: C_10  and  C_11
REMARK                            x       y       z     vdW  Elec       q    Type
REMARK                         _______ _______ _______ _____ _____    ______ ____
ROOT
ATOM      1  C   UNL     1       6.039   9.182   5.087  0.00  0.00    +0.000 C 
ATOM      2  O   UNL     1       6.126   9.220   6.354  0.00  0.00    +0.000 OA
ATOM      3  N   UNL     1       4.860   8.581   4.448  0.00  0.00    +0.000 N 
ATOM      4  H   UNL     1       4.111   8.193   5.023  0.00  0.00    +0.000 HD
ENDROOT
BRANCH   1   8
ATOM      5  C   UNL     1      10.436   8.613   2.679  0.00  0.00    +0.000 C 
ATOM      6  C   UNL     1       9.259   9.486   3.080  0.00  0.00    +0.000 A 
ATOM      7  N   UNL     1       8.235   8.958   3.864  0.00  0.00    +0.000 NA
ATOM      8  C   UNL     1       7.156   9.758   4.232  0.00  0.00    +0.000 A 
ATOM      9  N   UNL     1       7.102  11.087   3.817  0.00  0.00    +0.000 NA
ATOM     10  O   UNL     1       9.206  10.769   2.680  0.00  0.00    +0.000 OA
ENDBRANCH   1   8
BRANCH   3  11
ATOM     11  C   UNL     1       4.760   8.537   2.982  0.00  0.00    +0.000 C 
BRANCH  11  12
ATOM     12  C   UNL     1       4.167   7.204   2.555  0.00  0.00    +0.000 A 
ATOM     13  C   UNL     1       5.035   6.112   2.192  0.00  0.00    +0.000 A 
ATOM     14  C   UNL     1       6.464   6.285   2.235  0.00  0.00    +0.000 A 
ATOM     15  C   UNL     1       7.332   5.193   1.872  0.00  0.00    +0.000 A 
ATOM     16  C   UNL     1       8.760   5.365   1.915  0.00  0.00    +0.000 A 
ATOM     17  C   UNL     1       2.738   7.032   2.512  0.00  0.00    +0.000 A 
ATOM     18 CL   UNL     1       1.665   8.380   2.959  0.00  0.00    +0.000 Cl
ENDBRANCH  11  12
ENDBRANCH   3  11
TORSDOF 3
ENDMDL
MODEL 2
REMARK VINA RESULT:    -0.000     14.230     15.944
REMARK INTER + INTRA:          -0.573
REMARK INTER:                   0.000
REMARK INTRA:                  -0.573
REMARK UNBOUND:                -0.573
REMARK  Name = 
REMARK  4 active torsions:
REMARK  status: ('A' for Active; 'I' for Inactive)
REMARK    1  A    between atoms: C_1  and  C_2
REMARK    2  A    between atoms: C_4  and  C_7
REMARK    3  A    between atoms: N_9  and  C_10
REMARK    4  A    between atoms: C_10  and  C_11
REMARK                            x       y       z     vdW  Elec       q    Type
REMARK                         _______ _______ _______ _____ _____    ______ ____
ROOT
ATOM      1  C   UNL     1      13.308  19.107  -5.755  0.00  0.00    +0.000 C 
ATOM      2  O   UNL     1      14.109  18.200  -6.141  0.00  0.00    +0.000 OA
ATOM      3  N   UNL     1      12.959  19.223  -4.332  0.00  0.00    +0.000 N 
ATOM      4  H   UNL     1      13.359  18.574  -3.654  0.00  0.00    +0.000 HD
ENDROOT
BRANCH   1   8
ATOM      5  C   UNL     1       9.684  20.281  -9.063  0.00  0.00    +0.000 C 
ATOM      6  C   UNL     1      10.977  20.634  -8.348  0.00  0.00    +0.000 A 
ATOM      7  N   UNL     1      11.525  19.749  -7.421  0.00  0.00    +0.000 NA
ATOM      8  C   UNL     1      12.711  20.073  -6.766  0.00  0.00    +0.000 A 
ATOM      9  N   UNL     1      13.349  21.280  -7.037  0.00  0.00    +0.000 NA
ATOM     10  O   UNL     1      11.594  21.800  -8.610  0.00  0.00    +0.000 OA
ENDBRANCH   1   8
BRANCH   3  11
ATOM     11  C   UNL     1      12.032  20.274  -3.886  0.00  0.00    +0.000 C 
BRANCH  11  12
ATOM     12  C   UNL     1      11.104  19.711  -2.821  0.00  0.00    +0.000 A 
ATOM     13  C   UNL     1       9.811  19.197  -3.192  0.00  0.00    +0.000 A 
ATOM     14  C   UNL     1       9.396  19.216  -4.571  0.00  0.00    +0.000 A 
ATOM     15  C   UNL     1       8.103  18.701  -4.942  0.00  0.00    +0.000 A 
ATOM     16  C   UNL     1       7.689  18.719  -6.320  0.00  0.00    +0.000 A 
ATOM     17  C   UNL     1      11.518  19.693  -1.442  0.00  0.00    +0.000 A 
ATOM     18 CL   UNL     1      13.116  20.329  -0.983  0.00  0.00    +0.000 Cl
ENDBRANCH  11  12
ENDBRANCH   3  11
TORSDOF 3
ENDMDL
MODEL 3
REMARK VINA RESULT:     0.000     10.792     12.967
REMARK INTER + INTRA:          -0.573
REMARK INTER:                   0.000
REMARK INTRA:                  -0.573
REMARK UNBOUND:                -0.573
REMARK  Name = 
REMARK  4 active torsions:
REMARK  status: ('A' for Active; 'I' for Inactive)
REMARK    1  A    between atoms: C_1  and  C_2
REMARK    2  A    between atoms: C_4  and  C_7
REMARK    3  A    between atoms: N_9  and  C_10
REMARK    4  A    between atoms: C_10  and  C_11
REMARK                            x       y       z     vdW  Elec       q    Type
REMARK                         _______ _______ _______ _____ _____    ______ ____
ROOT
ATOM      1  C   UNL     1      -6.782  11.306  -0.982  0.00  0.00    +0.000 C 
ATOM      2  O   UNL     1      -7.660  11.632  -0.124  0.00  0.00    +0.000 OA
ATOM      3  N   UNL     1      -7.145  10.446  -2.117  0.00  0.00    +0.000 N 
ATOM      4  H   UNL     1      -8.104  10.110  -2.215  0.00  0.00    +0.000 HD
ENDROOT
BRANCH   1   8
ATOM      5  C   UNL     1      -2.122  10.737   0.869  0.00  0.00    +0.000 C 
ATOM      6  C   UNL     1      -3.125  11.534   0.051  0.00  0.00    +0.000 A 
ATOM      7  N   UNL     1      -4.434  11.075  -0.085  0.00  0.00    +0.000 NA
ATOM      8  C   UNL     1      -5.353  11.806  -0.834  0.00  0.00    +0.000 A 
ATOM      9  N   UNL     1      -4.964  12.995  -1.447  0.00  0.00    +0.000 NA
ATOM     10  O   UNL     1      -2.750  12.682  -0.541  0.00  0.00    +0.000 OA
ENDBRANCH   1   8
BRANCH   3  11
ATOM     11  C   UNL     1      -6.129  10.069  -3.110  0.00  0.00    +0.000 C 
BRANCH  11  12
ATOM     12  C   UNL     1      -6.324   8.615  -3.508  0.00  0.00    +0.000 A 
ATOM     13  C   UNL     1      -5.575   7.579  -2.844  0.00  0.00    +0.000 A 
ATOM     14  C   UNL     1      -4.640   7.922  -1.803  0.00  0.00    +0.000 A 
ATOM     15  C   UNL     1      -3.890   6.887  -1.139  0.00  0.00    +0.000 A 
ATOM     16  C   UNL     1      -2.956   7.229  -0.098  0.00  0.00    +0.000 A 
ATOM     17  C   UNL     1      -7.258   8.273  -4.548  0.00  0.00    +0.000 A 
ATOM     18 CL   UNL     1      -8.184   9.552  -5.370  0.00  0.00    +0.000 Cl
ENDBRANCH  11  12
ENDBRANCH   3  11
TORSDOF 3
ENDMDL
MODEL 4
REMARK VINA RESULT:     0.000      9.507     11.454
REMARK INTER + INTRA:          -0.573
REMARK INTER:                   0.000
REMARK INTRA:                  -0.573
REMARK UNBOUND:                -0.573
REMARK  Name = 
REMARK  4 active torsions:
REMARK  status: ('A' for Active; 'I' for Inactive)
REMARK    1  A    between atoms: C_1  and  C_2
REMARK    2  A    between atoms: C_4  and  C_7
REMARK    3  A    between atoms: N_9  and  C_10
REMARK    4  A    between atoms: C_10  and  C_11
REMARK                            x       y       z     vdW  Elec       q    Type
REMARK                         _______ _______ _______ _____ _____    ______ ____
ROOT
ATOM      1  C   UNL     1      -3.809   8.373  -1.821  0.00  0.00    +0.000 C 
ATOM      2  O   UNL     1      -3.960   7.249  -1.249  0.00  0.00    +0.000 OA
ATOM      3  N   UNL     1      -3.971   8.486  -3.277  0.00  0.00    +0.000 N 
ATOM      4  H   UNL     1      -4.205   7.660  -3.829  0.00  0.00    +0.000 HD
ENDROOT
BRANCH   1   8
ATOM      5  C   UNL     1      -0.348  11.376   0.293  0.00  0.00    +0.000 C 
ATOM      6  C   UNL     1      -1.803  11.038   0.013  0.00  0.00    +0.000 A 
ATOM      7  N   UNL     1      -2.124   9.912  -0.741  0.00  0.00    +0.000 NA
ATOM      8  C   UNL     1      -3.458   9.603  -0.998  0.00  0.00    +0.000 A 
ATOM      9  N   UNL     1      -4.470  10.419  -0.500  0.00  0.00    +0.000 NA
ATOM     10  O   UNL     1      -2.781  11.827   0.494  0.00  0.00    +0.000 OA
ENDBRANCH   1   8
BRANCH   3  11
ATOM     11  C   UNL     1      -3.796   9.787  -3.939  0.00  0.00    +0.000 C 
BRANCH  11  12
ATOM     12  C   UNL     1      -3.059   9.591  -5.254  0.00  0.00    +0.000 A 
ATOM     13  C   UNL     1      -1.629   9.749  -5.309  0.00  0.00    +0.000 A 
ATOM     14  C   UNL     1      -0.896  10.093  -4.117  0.00  0.00    +0.000 A 
ATOM     15  C   UNL     1       0.535  10.251  -4.172  0.00  0.00    +0.000 A 
ATOM     16  C   UNL     1       1.267  10.594  -2.981  0.00  0.00    +0.000 A 
ATOM     17  C   UNL     1      -3.791   9.248  -6.445  0.00  0.00    +0.000 A 
ATOM     18 CL   UNL     1      -5.560   9.053  -6.379  0.00  0.00    +0.000 Cl
ENDBRANCH  11  12
ENDBRANCH   3  11
TORSDOF 3
ENDMDL
MODEL 5
REMARK VINA RESULT:     0.000     16.131     16.692
REMARK INTER + INTRA:          -0.573
REMARK INTER:                   0.000
REMARK INTRA:                  -0.573
REMARK UNBOUND:                -0.573
REMARK  Name = 
REMARK  4 active torsions:
REMARK  status: ('A' for Active; 'I' for Inactive)
REMARK    1  A    between atoms: C_1  and  C_2
REMARK    2  A    between atoms: C_4  and  C_7
REMARK    3  A    between atoms: N_9  and  C_10
REMARK    4  A    between atoms: C_10  and  C_11
REMARK                            x       y       z     vdW  Elec       q    Type
REMARK                         _______ _______ _______ _____ _____    ______ ____
ROOT
ATOM      1  C   UNL     1       6.274  14.269 -10.019  0.00  0.00    +0.000 C 
ATOM      2  O   UNL     1       5.889  13.292  -9.304  0.00  0.00    +0.000 OA
ATOM      3  N   UNL     1       5.321  14.955 -10.903  0.00  0.00    +0.000 N 
ATOM      4  H   UNL     1       4.349  14.646 -10.943  0.00  0.00    +0.000 HD
ENDROOT
BRANCH   1   8
ATOM      5  C   UNL     1      11.032  13.942 -11.666  0.00  0.00    +0.000 C 
ATOM      6  C   UNL     1       9.998  14.572 -10.748  0.00  0.00    +0.000 A 
ATOM      7  N   UNL     1       8.671  14.151 -10.802  0.00  0.00    +0.000 NA
ATOM      8  C   UNL     1       7.722  14.729  -9.961  0.00  0.00    +0.000 A 
ATOM      9  N   UNL     1       8.101  15.726  -9.065  0.00  0.00    +0.000 NA
ATOM     10  O   UNL     1      10.363  15.535  -9.883  0.00  0.00    +0.000 OA
ENDBRANCH   1   8
BRANCH   3  11
ATOM     11  C   UNL     1       5.767  16.086 -11.730  0.00  0.00    +0.000 C 
BRANCH  11  12
ATOM     12  C   UNL     1       5.114  15.999 -13.100  0.00  0.00    +0.000 A 
ATOM     13  C   UNL     1       5.809  15.363 -14.190  0.00  0.00    +0.000 A 
ATOM     14  C   UNL     1       7.123  14.810 -13.981  0.00  0.00    +0.000 A 
ATOM     15  C   UNL     1       7.818  14.174 -15.071  0.00  0.00    +0.000 A 
ATOM     16  C   UNL     1       9.130  13.621 -14.862  0.00  0.00    +0.000 A 
ATOM     17  C   UNL     1       3.802  16.553 -13.309  0.00  0.00    +0.000 A 
ATOM     18 CL   UNL     1       2.943  17.339 -11.963  0.00  0.00    +0.000 Cl
ENDBRANCH  11  12
ENDBRANCH   3  11
TORSDOF 3
ENDMDL
