MODEL 1
REMARK VINA RESULT:     0.000      0.000      0.000
REMARK INTER + INTRA:           0.000
REMARK INTER:                   0.000
REMARK INTRA:                   0.000
REMARK UNBOUND:                 0.000
REMARK  Name = 
REMARK  8 active torsions:
REMARK  status: ('A' for Active; 'I' for Inactive)
REMARK    1  A    between atoms: C_1  and  C_2
REMARK    2  A    between atoms: C_6  and  O_21
REMARK    3  A    between atoms: C_10  and  O_20
REMARK    4  A    between atoms: C_11  and  O_19
REMARK    5  A    between atoms: C_15  and  O_18
REMARK    6  A    between atoms: C_22  and  O_27
REMARK    7  A    between atoms: C_24  and  C_25
REMARK    8  A    between atoms: C_24  and  C_26
REMARK                            x       y       z     vdW  Elec       q    Type
REMARK                         _______ _______ _______ _____ _____    ______ ____
ROOT
ATOM      1  C   UNL     1       5.269   4.307  -0.617  0.00  0.00    +0.000 C 
ATOM      2  C   UNL     1       5.121   5.783  -0.287  0.00  0.00    +0.000 C 
ATOM      3  C   UNL     1       0.336  11.578   0.173  0.00  0.00    +0.000 C 
ATOM      4  C   UNL     1       2.862   8.509  -1.238  0.00  0.00    +0.000 C 
ATOM      5  C   UNL     1       1.438   8.974  -0.978  0.00  0.00    +0.000 C 
ATOM      6  C   UNL     1      -3.784  12.926   0.927  0.00  0.00    +0.000 C 
ATOM      7  C   UNL     1      -4.910  12.477   0.010  0.00  0.00    +0.000 C 
ATOM      8  O   UNL     1      -5.437  13.531  -0.467  0.00  0.00    +0.000 OA
ATOM      9  C   UNL     1      -4.613  11.562  -1.167  0.00  0.00    +0.000 C 
ATOM     10  C   UNL     1       1.823  10.956  -2.420  0.00  0.00    +0.000 C 
ATOM     11  C   UNL     1       0.930   9.749  -2.182  0.00  0.00    +0.000 C 
ATOM     12  C   UNL     1      -0.493  10.215  -1.922  0.00  0.00    +0.000 C 
ATOM     13  O   UNL     1      -1.198   9.170  -1.761  0.00  0.00    +0.000 OA
ATOM     14  C   UNL     1      -0.790  11.130  -0.744  0.00  0.00    +0.000 C 
ATOM     15  C   UNL     1      -2.064  11.546  -0.511  0.00  0.00    +0.000 C 
ATOM     16  C   UNL     1      -3.191  11.097  -1.428  0.00  0.00    +0.000 C 
ATOM     17  O   UNL     1      -3.208   9.826  -1.393  0.00  0.00    +0.000 OA
ATOM     18  C   UNL     1       3.370   7.733  -0.034  0.00  0.00    +0.000 C 
ATOM     19  C   UNL     1       4.793   7.267  -0.295  0.00  0.00    +0.000 C 
ATOM     20  C   UNL     1       5.576   7.848   0.654  0.00  0.00    +0.000 C 
ATOM     21  C   UNL     1       6.853   8.290  -0.042  0.00  0.00    +0.000 C 
ATOM     22  C   UNL     1       5.644   6.877   1.822  0.00  0.00    +0.000 C 
ENDROOT
BRANCH  15  23
ATOM     23  O   UNL     1      -2.342  12.400   0.589  0.00  0.00    +0.000 OA
ATOM     24  H   UNL     1      -3.047  12.172   1.259  0.00  0.00    +0.000 HD
ENDBRANCH  15  23
BRANCH  11  25
ATOM     25  O   UNL     1       0.952   8.912  -3.329  0.00  0.00    +0.000 OA
ATOM     26  H   UNL     1       0.433   8.062  -3.422  0.00  0.00    +0.000 HD
ENDBRANCH  11  25
BRANCH  10  27
ATOM     27  O   UNL     1       3.092  11.526  -2.703  0.00  0.00    +0.000 OA
ATOM     28  H   UNL     1       3.916  11.286  -2.189  0.00  0.00    +0.000 HD
ENDBRANCH  10  27
BRANCH   6  29
ATOM     29  O   UNL     1      -2.784  13.193   1.899  0.00  0.00    +0.000 OA
ATOM     30  H   UNL     1      -3.191  12.449   1.368  0.00  0.00    +0.000 HD
ENDBRANCH   6  29
BRANCH  18  31
ATOM     31  O   UNL     1       4.019   7.233   1.126  0.00  0.00    +0.000 OA
ATOM     32  H   UNL     1       4.849   7.345   1.672  0.00  0.00    +0.000 HD
ENDBRANCH  18  31
TORSDOF 5
ENDMDL
MODEL 2
REMARK VINA RESULT:     0.000      2.221      2.349
REMARK INTER + INTRA:           0.000
REMARK INTER:                   0.000
REMARK INTRA:                   0.000
REMARK UNBOUND:                 0.000
REMARK  Name = 
REMARK  8 active torsions:
REMARK  status: ('A' for Active; 'I' for Inactive)
REMARK    1  A    between atoms: C_1  and  C_2
REMARK    2  A    between atoms: C_6  and  O_21
REMARK    3  A    between atoms: C_10  and  O_20
REMARK    4  A    between atoms: C_11  and  O_19
REMARK    5  A    between atoms: C_15  and  O_18
REMARK    6  A    between atoms: C_22  and  O_27
REMARK    7  A    between atoms: C_24  and  C_25
REMARK    8  A    between atoms: C_24  and  C_26
REMARK                            x       y       z     vdW  Elec       q    Type
REMARK                         _______ _______ _______ _____ _____    ______ ____
ROOT
ATOM      1  C   UNL     1       6.012   2.903  -1.592  0.00  0.00    +0.000 C 
ATOM      2  C   UNL     1       5.796   4.254  -0.931  0.00  0.00    +0.000 C 
ATOM      3  C   UNL     1       0.688   9.343   1.241  0.00  0.00    +0.000 C 
ATOM      4  C   UNL     1       3.254   6.894  -1.042  0.00  0.00    +0.000 C 
ATOM      5  C   UNL     1       1.839   7.157  -0.554  0.00  0.00    +0.000 C 
ATOM      6  C   UNL     1      -3.407  10.104   2.657  0.00  0.00    +0.000 C 
ATOM      7  C   UNL     1      -4.594   9.756   1.773  0.00  0.00    +0.000 C 
ATOM      8  O   UNL     1      -5.245  10.832   1.592  0.00  0.00    +0.000 OA
ATOM      9  C   UNL     1      -4.366   9.144   0.400  0.00  0.00    +0.000 C 
ATOM     10  C   UNL     1       1.916   9.428  -1.553  0.00  0.00    +0.000 C 
ATOM     11  C   UNL     1       1.145   8.119  -1.504  0.00  0.00    +0.000 C 
ATOM     12  C   UNL     1      -0.269   8.382  -1.016  0.00  0.00    +0.000 C 
ATOM     13  O   UNL     1      -0.875   7.265  -1.024  0.00  0.00    +0.000 OA
ATOM     14  C   UNL     1      -0.498   8.994   0.358  0.00  0.00    +0.000 C 
ATOM     15  C   UNL     1      -1.765   9.229   0.795  0.00  0.00    +0.000 C 
ATOM     16  C   UNL     1      -2.951   8.881  -0.089  0.00  0.00    +0.000 C 
ATOM     17  O   UNL     1      -2.873   7.636  -0.333  0.00  0.00    +0.000 OA
ATOM     18  C   UNL     1       3.948   5.933  -0.092  0.00  0.00    +0.000 C 
ATOM     19  C   UNL     1       5.363   5.669  -0.581  0.00  0.00    +0.000 C 
ATOM     20  C   UNL     1       6.204   6.107   0.395  0.00  0.00    +0.000 C 
ATOM     21  C   UNL     1       7.360   6.805  -0.303  0.00  0.00    +0.000 C 
ATOM     22  C   UNL     1       6.471   4.922   1.308  0.00  0.00    +0.000 C 
ENDROOT
BRANCH  15  23
ATOM     23  O   UNL     1      -1.978   9.801   2.077  0.00  0.00    +0.000 OA
ATOM     24  H   UNL     1      -2.586   9.370   2.743  0.00  0.00    +0.000 HD
ENDBRANCH  15  23
BRANCH  11  25
ATOM     25  O   UNL     1       1.099   7.549  -2.804  0.00  0.00    +0.000 OA
ATOM     26  H   UNL     1       0.634   6.694  -3.034  0.00  0.00    +0.000 HD
ENDBRANCH  11  25
BRANCH  10  27
ATOM     27  O   UNL     1       3.102  10.162  -1.820  0.00  0.00    +0.000 OA
ATOM     28  H   UNL     1       3.993   9.897  -1.451  0.00  0.00    +0.000 HD
ENDBRANCH  10  27
BRANCH   6  29
ATOM     29  O   UNL     1      -2.327  10.253   3.565  0.00  0.00    +0.000 OA
ATOM     30  H   UNL     1      -2.736   9.603   2.924  0.00  0.00    +0.000 HD
ENDBRANCH   6  29
BRANCH  18  31
ATOM     31  O   UNL     1       4.758   5.262   0.863  0.00  0.00    +0.000 OA
ATOM     32  H   UNL     1       5.633   5.334   1.340  0.00  0.00    +0.000 HD
ENDBRANCH  18  31
TORSDOF 5
ENDMDL
MODEL 3
REMARK VINA RESULT:     0.000      9.669     12.668
REMARK INTER + INTRA:           0.000
REMARK INTER:                   0.000
REMARK INTRA:                   0.000
REMARK UNBOUND:                 0.000
REMARK  Name = 
REMARK  8 active torsions:
REMARK  status: ('A' for Active; 'I' for Inactive)
REMARK    1  A    between atoms: C_1  and  C_2
REMARK    2  A    between atoms: C_6  and  O_21
REMARK    3  A    between atoms: C_10  and  O_20
REMARK    4  A    between atoms: C_11  and  O_19
REMARK    5  A    between atoms: C_15  and  O_18
REMARK    6  A    between atoms: C_22  and  O_27
REMARK    7  A    between atoms: C_24  and  C_25
REMARK    8  A    between atoms: C_24  and  C_26
REMARK                            x       y       z     vdW  Elec       q    Type
REMARK                         _______ _______ _______ _____ _____    ______ ____
ROOT
ATOM      1  C   UNL     1       4.982   9.004   7.004  0.00  0.00    +0.000 C 
ATOM      2  C   UNL     1       6.491   8.948   6.829  0.00  0.00    +0.000 C 
ATOM      3  C   UNL     1      12.129   7.959   1.938  0.00  0.00    +0.000 C 
ATOM      4  C   UNL     1       8.844   7.354   4.514  0.00  0.00    +0.000 C 
ATOM      5  C   UNL     1       9.336   7.501   3.083  0.00  0.00    +0.000 C 
ATOM      6  C   UNL     1      13.555   8.386  -2.202  0.00  0.00    +0.000 C 
ATOM      7  C   UNL     1      12.868   7.626  -3.325  0.00  0.00    +0.000 C 
ATOM      8  O   UNL     1      13.755   6.900  -3.875  0.00  0.00    +0.000 OA
ATOM      9  C   UNL     1      11.687   6.718  -3.017  0.00  0.00    +0.000 C 
ATOM     10  C   UNL     1      10.890   5.596   3.422  0.00  0.00    +0.000 C 
ATOM     11  C   UNL     1       9.769   6.144   2.554  0.00  0.00    +0.000 C 
ATOM     12  C   UNL     1      10.262   6.291   1.124  0.00  0.00    +0.000 C 
ATOM     13  O   UNL     1       9.280   6.721   0.440  0.00  0.00    +0.000 OA
ATOM     14  C   UNL     1      11.442   7.199   0.816  0.00  0.00    +0.000 C 
ATOM     15  C   UNL     1      11.882   7.330  -0.465  0.00  0.00    +0.000 C 
ATOM     16  C   UNL     1      11.195   6.570  -1.588  0.00  0.00    +0.000 C 
ATOM     17  O   UNL     1       9.976   6.930  -1.580  0.00  0.00    +0.000 OA
ATOM     18  C   UNL     1       8.411   8.711   5.043  0.00  0.00    +0.000 C 
ATOM     19  C   UNL     1       7.918   8.564   6.473  0.00  0.00    +0.000 C 
ATOM     20  C   UNL     1       8.735   9.325   7.251  0.00  0.00    +0.000 C 
ATOM     21  C   UNL     1       9.006   8.526   8.515  0.00  0.00    +0.000 C 
ATOM     22  C   UNL     1       8.097  10.701   7.343  0.00  0.00    +0.000 C 
ENDROOT
BRANCH  15  23
ATOM     23  O   UNL     1      12.984   8.178  -0.752  0.00  0.00    +0.000 OA
ATOM     24  H   UNL     1      13.092   9.063  -0.299  0.00  0.00    +0.000 HD
ENDBRANCH  15  23
BRANCH  11  25
ATOM     25  O   UNL     1       8.666   5.249   2.585  0.00  0.00    +0.000 OA
ATOM     26  H   UNL     1       7.995   5.200   3.325  0.00  0.00    +0.000 HD
ENDBRANCH  11  25
BRANCH  10  27
ATOM     27  O   UNL     1      11.390   5.165   4.679  0.00  0.00    +0.000 OA
ATOM     28  H   UNL     1      11.055   5.533   5.546  0.00  0.00    +0.000 HD
ENDBRANCH  10  27
BRANCH   6  29
ATOM     29  O   UNL     1      14.079   9.247  -1.202  0.00  0.00    +0.000 OA
ATOM     30  H   UNL     1      13.669   9.253  -2.115  0.00  0.00    +0.000 HD
ENDBRANCH   6  29
BRANCH  18  31
ATOM     31  O   UNL     1       8.235   9.954   5.708  0.00  0.00    +0.000 OA
ATOM     32  H   UNL     1       7.831  10.860   5.586  0.00  0.00    +0.000 HD
ENDBRANCH  18  31
TORSDOF 5
ENDMDL
MODEL 4
REMARK VINA RESULT:     0.000     13.027     15.527
REMARK INTER + INTRA:           0.000
REMARK INTER:                   0.000
REMARK INTRA:                   0.000
REMARK UNBOUND:                 0.000
REMARK  Name = 
REMARK  8 active torsions:
REMARK  status: ('A' for Active; 'I' for Inactive)
REMARK    1  A    between atoms: C_1  and  C_2
REMARK    2  A    between atoms: C_6  and  O_21
REMARK    3  A    between atoms: C_10  and  O_20
REMARK    4  A    between atoms: C_11  and  O_19
REMARK    5  A    between atoms: C_15  and  O_18
REMARK    6  A    between atoms: C_22  and  O_27
REMARK    7  A    between atoms: C_24  and  C_25
REMARK    8  A    between atoms: C_24  and  C_26
REMARK                            x       y       z     vdW  Elec       q    Type
REMARK                         _______ _______ _______ _____ _____    ______ ____
ROOT
ATOM      1  C   UNL     1      10.841  25.479   7.184  0.00  0.00    +0.000 C 
ATOM      2  C   UNL     1       9.775  25.352   6.109  0.00  0.00    +0.000 C 
ATOM      3  C   UNL     1       6.654  20.805   0.983  0.00  0.00    +0.000 C 
ATOM      4  C   UNL     1       9.282  23.359   3.072  0.00  0.00    +0.000 C 
ATOM      5  C   UNL     1       8.936  21.935   2.668  0.00  0.00    +0.000 C 
ATOM      6  C   UNL     1       5.650  16.684  -0.186  0.00  0.00    +0.000 C 
ATOM      7  C   UNL     1       6.758  15.670  -0.423  0.00  0.00    +0.000 C 
ATOM      8  O   UNL     1       6.628  15.256  -1.618  0.00  0.00    +0.000 OA
ATOM      9  C   UNL     1       8.212  16.079  -0.255  0.00  0.00    +0.000 C 
ATOM     10  C   UNL     1       9.026  22.592   0.277  0.00  0.00    +0.000 C 
ATOM     11  C   UNL     1       9.562  21.625   1.319  0.00  0.00    +0.000 C 
ATOM     12  C   UNL     1       9.216  20.201   0.914  0.00  0.00    +0.000 C 
ATOM     13  O   UNL     1       9.712  19.437   1.800  0.00  0.00    +0.000 OA
ATOM     14  C   UNL     1       7.761  19.791   0.747  0.00  0.00    +0.000 C 
ATOM     15  C   UNL     1       7.452  18.516   0.385  0.00  0.00    +0.000 C 
ATOM     16  C   UNL     1       8.559  17.503   0.149  0.00  0.00    +0.000 C 
ATOM     17  O   UNL     1       9.223  17.426   1.230  0.00  0.00    +0.000 OA
ATOM     18  C   UNL     1       8.655  23.670   4.421  0.00  0.00    +0.000 C 
ATOM     19  C   UNL     1       9.002  25.093   4.826  0.00  0.00    +0.000 C 
ATOM     20  C   UNL     1       7.826  25.769   4.932  0.00  0.00    +0.000 C 
ATOM     21  C   UNL     1       8.054  27.144   4.327  0.00  0.00    +0.000 C 
ATOM     22  C   UNL     1       7.374  25.640   6.377  0.00  0.00    +0.000 C 
ENDROOT
BRANCH  15  23
ATOM     23  O   UNL     1       6.093  18.134   0.229  0.00  0.00    +0.000 OA
ATOM     24  H   UNL     1       5.816  17.174   0.266  0.00  0.00    +0.000 HD
ENDBRANCH  15  23
BRANCH  11  25
ATOM     25  O   UNL     1      10.973  21.761   1.409  0.00  0.00    +0.000 OA
ATOM     26  H   UNL     1      11.624  21.384   0.750  0.00  0.00    +0.000 HD
ENDBRANCH  11  25
BRANCH  10  27
ATOM     27  O   UNL     1       8.841  23.911  -0.215  0.00  0.00    +0.000 OA
ATOM     28  H   UNL     1       9.040  24.723   0.334  0.00  0.00    +0.000 HD
ENDBRANCH  10  27
BRANCH   6  29
ATOM     29  O   UNL     1       4.607  17.557   0.218  0.00  0.00    +0.000 OA
ATOM     30  H   UNL     1       5.243  17.381  -0.534  0.00  0.00    +0.000 HD
ENDBRANCH   6  29
BRANCH  18  31
ATOM     31  O   UNL     1       7.903  24.138   5.531  0.00  0.00    +0.000 OA
ATOM     32  H   UNL     1       7.105  23.914   6.090  0.00  0.00    +0.000 HD
ENDBRANCH  18  31
TORSDOF 5
ENDMDL
MODEL 5
REMARK VINA RESULT:     0.000     13.175     15.498
REMARK INTER + INTRA:           0.000
REMARK INTER:                   0.000
REMARK INTRA:                   0.000
REMARK UNBOUND:                 0.000
REMARK  Name = 
REMARK  8 active torsions:
REMARK  status: ('A' for Active; 'I' for Inactive)
REMARK    1  A    between atoms: C_1  and  C_2
REMARK    2  A    between atoms: C_6  and  O_21
REMARK    3  A    between atoms: C_10  and  O_20
REMARK    4  A    between atoms: C_11  and  O_19
REMARK    5  A    between atoms: C_15  and  O_18
REMARK    6  A    between atoms: C_22  and  O_27
REMARK    7  A    between atoms: C_24  and  C_25
REMARK    8  A    between atoms: C_24  and  C_26
REMARK                            x       y       z     vdW  Elec       q    Type
REMARK                         _______ _______ _______ _____ _____    ______ ____
ROOT
ATOM      1  C   UNL     1      10.671  24.656   6.874  0.00  0.00    +0.000 C 
ATOM      2  C   UNL     1       9.636  24.969   5.806  0.00  0.00    +0.000 C 
ATOM      3  C   UNL     1       5.906  22.320  -0.174  0.00  0.00    +0.000 C 
ATOM      4  C   UNL     1       8.887  23.818   2.407  0.00  0.00    +0.000 C 
ATOM      5  C   UNL     1       8.299  22.608   1.701  0.00  0.00    +0.000 C 
ATOM      6  C   UNL     1       4.203  18.817  -2.219  0.00  0.00    +0.000 C 
ATOM      7  C   UNL     1       5.112  17.691  -2.684  0.00  0.00    +0.000 C 
ATOM      8  O   UNL     1       4.949  17.581  -3.940  0.00  0.00    +0.000 OA
ATOM      9  C   UNL     1       6.611  17.775  -2.441  0.00  0.00    +0.000 C 
ATOM     10  C   UNL     1       8.589  23.744  -0.487  0.00  0.00    +0.000 C 
ATOM     11  C   UNL     1       8.903  22.489   0.311  0.00  0.00    +0.000 C 
ATOM     12  C   UNL     1       8.314  21.279  -0.396  0.00  0.00    +0.000 C 
ATOM     13  O   UNL     1       8.632  20.260   0.294  0.00  0.00    +0.000 OA
ATOM     14  C   UNL     1       6.816  21.194  -0.638  0.00  0.00    +0.000 C 
ATOM     15  C   UNL     1       6.290  20.110  -1.271  0.00  0.00    +0.000 C 
ATOM     16  C   UNL     1       7.199  18.985  -1.735  0.00  0.00    +0.000 C 
ATOM     17  O   UNL     1       7.801  18.550  -0.703  0.00  0.00    +0.000 OA
ATOM     18  C   UNL     1       8.283  23.937   3.797  0.00  0.00    +0.000 C 
ATOM     19  C   UNL     1       8.872  25.146   4.504  0.00  0.00    +0.000 C 
ATOM     20  C   UNL     1       7.837  25.990   4.767  0.00  0.00    +0.000 C 
ATOM     21  C   UNL     1       8.334  27.397   4.479  0.00  0.00    +0.000 C 
ATOM     22  C   UNL     1       7.321  25.633   6.151  0.00  0.00    +0.000 C 
ENDROOT
BRANCH  15  23
ATOM     23  O   UNL     1       4.890  20.032  -1.497  0.00  0.00    +0.000 OA
ATOM     24  H   UNL     1       4.440  19.156  -1.671  0.00  0.00    +0.000 HD
ENDBRANCH  15  23
BRANCH  11  25
ATOM     25  O   UNL     1      10.311  22.336   0.418  0.00  0.00    +0.000 OA
ATOM     26  H   UNL     1      10.903  21.999  -0.314  0.00  0.00    +0.000 HD
ENDBRANCH  11  25
BRANCH  10  27
ATOM     27  O   UNL     1       8.665  25.149  -0.672  0.00  0.00    +0.000 OA
ATOM     28  H   UNL     1       8.992  25.769   0.042  0.00  0.00    +0.000 HD
ENDBRANCH  10  27
BRANCH   6  29
ATOM     29  O   UNL     1       3.324  19.759  -1.623  0.00  0.00    +0.000 OA
ATOM     30  H   UNL     1       3.738  18.861  -1.474  0.00  0.00    +0.000 HD
ENDBRANCH   6  29
BRANCH  18  31
ATOM     31  O   UNL     1       7.593  24.282   4.989  0.00  0.00    +0.000 OA
ATOM     32  H   UNL     1       6.942  24.946   5.356  0.00  0.00    +0.000 HD
ENDBRANCH  18  31
TORSDOF 5
ENDMDL
