MODEL 1
REMARK VINA RESULT:    -0.003      0.000      0.000
REMARK INTER + INTRA:          -2.439
REMARK INTER:                   0.000
REMARK INTRA:                  -2.439
REMARK UNBOUND:                -2.434
REMARK  Name = 
REMARK  13 active torsions:
REMARK  status: ('A' for Active; 'I' for Inactive)
REMARK    1  A    between atoms: C_1  and  C_2
REMARK    2  A    between atoms: C_2  and  C_3
REMARK    3  A    between atoms: C_3  and  C_4
REMARK    4  A    between atoms: C_4  and  C_5
REMARK    5  A    between atoms: C_5  and  C_6
REMARK    6  A    between atoms: C_6  and  C_7
REMARK    7  A    between atoms: C_7  and  C_8
REMARK    8  A    between atoms: C_11  and  C_14
REMARK    9  A    between atoms: C_14  and  C_15
REMARK   10  A    between atoms: C_15  and  CA_16
REMARK   11  A    between atoms: CA_16  and  C_17
REMARK   12  A    between atoms: CA_16  and  N_19
REMARK   13  A    between atoms: C_17  and  O_18
REMARK                            x       y       z     vdW  Elec       q    Type
REMARK                         _______ _______ _______ _____ _____    ______ ____
ROOT
ATOM      1  C   UNL     1       3.689  16.963  -1.929  0.00  0.00    +0.000 A 
ATOM      2  C   UNL     1       5.049  16.589  -1.634  0.00  0.00    +0.000 A 
ATOM      3  C   UNL     1       5.921  17.518  -0.962  0.00  0.00    +0.000 A 
ATOM      4  C   UNL     1       7.280  17.144  -0.667  0.00  0.00    +0.000 A 
ATOM      5  C   UNL     1       8.152  18.072   0.005  0.00  0.00    +0.000 A 
ATOM      6  C   UNL     1       2.817  16.035  -2.601  0.00  0.00    +0.000 A 
ENDROOT
BRANCH   1   7
ATOM      7  C   UNL     1       3.175  18.337  -1.530  0.00  0.00    +0.000 C 
BRANCH   7   8
ATOM      8  C   UNL     1       2.906  19.160  -2.780  0.00  0.00    +0.000 C 
BRANCH   8   9
ATOM      9  C   UNL     1       4.099  20.060  -3.060  0.00  0.00    +0.000 C 
BRANCH   9  10
ATOM     10  C   UNL     1       4.807  19.586  -4.319  0.00  0.00    +0.000 C 
BRANCH  10  11
ATOM     11  C   UNL     1       6.295  19.443  -4.039  0.00  0.00    +0.000 C 
BRANCH  11  13
ATOM     12  C   UNL     1       5.619  17.347  -5.184  0.00  0.00    +0.000 C 
ATOM     13  C   UNL     1       6.782  18.103  -4.565  0.00  0.00    +0.000 C 
ENDBRANCH  11  13
ENDBRANCH  10  11
ENDBRANCH   9  10
ENDBRANCH   8   9
ENDBRANCH   7   8
ENDBRANCH   1   7
BRANCH   4  14
ATOM     14  C   UNL     1       7.794  15.770  -1.065  0.00  0.00    +0.000 C 
BRANCH  14  15
ATOM     15  C   UNL     1       8.710  15.901  -2.272  0.00  0.00    +0.000 C 
BRANCH  15  16
ATOM     16  CA  UNL     1       8.629  14.635  -3.109  0.00  0.00    +0.000 C 
BRANCH  16  17
ATOM     17  N   UNL     1       8.690  14.986  -4.535  0.00  0.00    +0.000 NA
ATOM     18  H1  UNL     1       9.649  15.227  -4.786  0.00  0.00    +0.000 HD
ATOM     19  H2  UNL     1       8.382  14.190  -5.095  0.00  0.00    +0.000 HD
ENDBRANCH  16  17
BRANCH  16  20
ATOM     20  C   UNL     1       7.319  13.919  -2.819  0.00  0.00    +0.000 C 
BRANCH  20  21
ATOM     21  O   UNL     1       6.423  14.113  -3.902  0.00  0.00    +0.000 OA
ATOM     22  H   UNL     1       6.162  13.225  -4.282  0.00  0.00    +0.000 HD
ENDBRANCH  20  21
ENDBRANCH  16  20
ENDBRANCH  15  16
ENDBRANCH  14  15
ENDBRANCH   4  14
TORSDOF 12
ENDMDL
MODEL 2
REMARK VINA RESULT:    -0.002     11.329     13.788
REMARK INTER + INTRA:          -2.438
REMARK INTER:                   0.000
REMARK INTRA:                  -2.438
REMARK UNBOUND:                -2.434
REMARK  Name = 
REMARK  13 active torsions:
REMARK  status: ('A' for Active; 'I' for Inactive)
REMARK    1  A    between atoms: C_1  and  C_2
REMARK    2  A    between atoms: C_2  and  C_3
REMARK    3  A    between atoms: C_3  and  C_4
REMARK    4  A    between atoms: C_4  and  C_5
REMARK    5  A    between atoms: C_5  and  C_6
REMARK    6  A    between atoms: C_6  and  C_7
REMARK    7  A    between atoms: C_7  and  C_8
REMARK    8  A    between atoms: C_11  and  C_14
REMARK    9  A    between atoms: C_14  and  C_15
REMARK   10  A    between atoms: C_15  and  CA_16
REMARK   11  A    between atoms: CA_16  and  C_17
REMARK   12  A    between atoms: CA_16  and  N_19
REMARK   13  A    between atoms: C_17  and  O_18
REMARK                            x       y       z     vdW  Elec       q    Type
REMARK                         _______ _______ _______ _____ _____    ______ ____
ROOT
ATOM      1  C   UNL     1      -1.342   5.053  -4.864  0.00  0.00    +0.000 A 
ATOM      2  C   UNL     1      -0.429   5.234  -3.764  0.00  0.00    +0.000 A 
ATOM      3  C   UNL     1      -0.415   4.288  -2.678  0.00  0.00    +0.000 A 
ATOM      4  C   UNL     1       0.498   4.470  -1.578  0.00  0.00    +0.000 A 
ATOM      5  C   UNL     1       0.513   3.524  -0.492  0.00  0.00    +0.000 A 
ATOM      6  C   UNL     1      -1.356   5.998  -5.950  0.00  0.00    +0.000 A 
ENDROOT
BRANCH   1   7
ATOM      7  C   UNL     1      -2.289   3.864  -4.877  0.00  0.00    +0.000 C 
BRANCH   7   8
ATOM      8  C   UNL     1      -3.719   4.354  -4.717  0.00  0.00    +0.000 C 
BRANCH   8   9
ATOM      9  C   UNL     1      -4.136   4.232  -3.259  0.00  0.00    +0.000 C 
BRANCH   9  10
ATOM     10  C   UNL     1      -4.282   5.619  -2.656  0.00  0.00    +0.000 C 
BRANCH  10  11
ATOM     11  C   UNL     1      -3.508   5.687  -1.349  0.00  0.00    +0.000 C 
BRANCH  11  13
ATOM     12  C   UNL     1      -2.866   7.721  -2.618  0.00  0.00    +0.000 C 
ATOM     13  C   UNL     1      -2.671   6.955  -1.321  0.00  0.00    +0.000 C 
ENDBRANCH  11  13
ENDBRANCH  10  11
ENDBRANCH   9  10
ENDBRANCH   8   9
ENDBRANCH   7   8
ENDBRANCH   1   7
BRANCH   4  14
ATOM     14  C   UNL     1       1.446   5.657  -1.565  0.00  0.00    +0.000 C 
BRANCH  14  15
ATOM     15  C   UNL     1       0.957   6.685  -0.557  0.00  0.00    +0.000 C 
BRANCH  15  16
ATOM     16  CA  UNL     1       1.358   8.078  -1.018  0.00  0.00    +0.000 C 
BRANCH  16  17
ATOM     17  N   UNL     1       0.277   9.026  -0.710  0.00  0.00    +0.000 NA
ATOM     18  H1  UNL     1       0.423   9.889  -1.233  0.00  0.00    +0.000 HD
ATOM     19  H2  UNL     1      -0.619   8.616  -0.974  0.00  0.00    +0.000 HD
ENDBRANCH  16  17
BRANCH  16  20
ATOM     20  C   UNL     1       1.607   8.062  -2.517  0.00  0.00    +0.000 C 
BRANCH  20  21
ATOM     21  O   UNL     1       0.524   8.693  -3.184  0.00  0.00    +0.000 OA
ATOM     22  H   UNL     1       0.870   9.201  -3.974  0.00  0.00    +0.000 HD
ENDBRANCH  20  21
ENDBRANCH  16  20
ENDBRANCH  15  16
ENDBRANCH  14  15
ENDBRANCH   4  14
TORSDOF 12
ENDMDL
MODEL 3
REMARK VINA RESULT:    -0.002      4.432      6.599
REMARK INTER + INTRA:          -2.438
REMARK INTER:                   0.000
REMARK INTRA:                  -2.438
REMARK UNBOUND:                -2.434
REMARK  Name = 
REMARK  13 active torsions:
REMARK  status: ('A' for Active; 'I' for Inactive)
REMARK    1  A    between atoms: C_1  and  C_2
REMARK    2  A    between atoms: C_2  and  C_3
REMARK    3  A    between atoms: C_3  and  C_4
REMARK    4  A    between atoms: C_4  and  C_5
REMARK    5  A    between atoms: C_5  and  C_6
REMARK    6  A    between atoms: C_6  and  C_7
REMARK    7  A    between atoms: C_7  and  C_8
REMARK    8  A    between atoms: C_11  and  C_14
REMARK    9  A    between atoms: C_14  and  C_15
REMARK   10  A    between atoms: C_15  and  CA_16
REMARK   11  A    between atoms: CA_16  and  C_17
REMARK   12  A    between atoms: CA_16  and  N_19
REMARK   13  A    between atoms: C_17  and  O_18
REMARK                            x       y       z     vdW  Elec       q    Type
REMARK                         _______ _______ _______ _____ _____    ______ ____
ROOT
ATOM      1  C   UNL     1       3.120  18.576  -1.250  0.00  0.00    +0.000 A 
ATOM      2  C   UNL     1       2.220  17.810  -0.427  0.00  0.00    +0.000 A 
ATOM      3  C   UNL     1       1.053  18.437   0.140  0.00  0.00    +0.000 A 
ATOM      4  C   UNL     1       0.153  17.670   0.963  0.00  0.00    +0.000 A 
ATOM      5  C   UNL     1      -1.013  18.297   1.530  0.00  0.00    +0.000 A 
ATOM      6  C   UNL     1       4.287  17.949  -1.816  0.00  0.00    +0.000 A 
ENDROOT
BRANCH   1   7
ATOM      7  C   UNL     1       2.839  20.045  -1.519  0.00  0.00    +0.000 C 
BRANCH   7   8
ATOM      8  C   UNL     1       3.899  20.897  -0.838  0.00  0.00    +0.000 C 
BRANCH   8   9
ATOM      9  C   UNL     1       3.369  21.390   0.499  0.00  0.00    +0.000 C 
BRANCH   9  10
ATOM     10  C   UNL     1       4.121  20.702   1.627  0.00  0.00    +0.000 C 
BRANCH  10  11
ATOM     11  C   UNL     1       3.126  20.128   2.623  0.00  0.00    +0.000 C 
BRANCH  11  13
ATOM     12  C   UNL     1       4.754  18.310   2.173  0.00  0.00    +0.000 C 
ATOM     13  C   UNL     1       3.514  18.698   2.960  0.00  0.00    +0.000 C 
ENDBRANCH  11  13
ENDBRANCH  10  11
ENDBRANCH   9  10
ENDBRANCH   8   9
ENDBRANCH   7   8
ENDBRANCH   1   7
BRANCH   4  14
ATOM     14  C   UNL     1       0.433  16.201   1.232  0.00  0.00    +0.000 C 
BRANCH  14  15
ATOM     15  C   UNL     1       0.936  16.033   2.657  0.00  0.00    +0.000 C 
BRANCH  15  16
ATOM     16  CA  UNL     1       1.881  14.844   2.724  0.00  0.00    +0.000 C 
BRANCH  16  17
ATOM     17  N   UNL     1       2.987  15.148   3.642  0.00  0.00    +0.000 NA
ATOM     18  H1  UNL     1       3.860  15.204   3.117  0.00  0.00    +0.000 HD
ATOM     19  H2  UNL     1       2.811  16.042   4.103  0.00  0.00    +0.000 HD
ENDBRANCH  16  17
BRANCH  16  20
ATOM     20  C   UNL     1       2.435  14.559   1.338  0.00  0.00    +0.000 C 
BRANCH  20  21
ATOM     21  O   UNL     1       3.785  14.995   1.269  0.00  0.00    +0.000 OA
ATOM     22  H   UNL     1       3.943  15.453   0.393  0.00  0.00    +0.000 HD
ENDBRANCH  20  21
ENDBRANCH  16  20
ENDBRANCH  15  16
ENDBRANCH  14  15
ENDBRANCH   4  14
TORSDOF 12
ENDMDL
MODEL 4
REMARK VINA RESULT:    -0.002      3.613      5.098
REMARK INTER + INTRA:          -2.437
REMARK INTER:                   0.000
REMARK INTRA:                  -2.437
REMARK UNBOUND:                -2.434
REMARK  Name = 
REMARK  13 active torsions:
REMARK  status: ('A' for Active; 'I' for Inactive)
REMARK    1  A    between atoms: C_1  and  C_2
REMARK    2  A    between atoms: C_2  and  C_3
REMARK    3  A    between atoms: C_3  and  C_4
REMARK    4  A    between atoms: C_4  and  C_5
REMARK    5  A    between atoms: C_5  and  C_6
REMARK    6  A    between atoms: C_6  and  C_7
REMARK    7  A    between atoms: C_7  and  C_8
REMARK    8  A    between atoms: C_11  and  C_14
REMARK    9  A    between atoms: C_14  and  C_15
REMARK   10  A    between atoms: C_15  and  CA_16
REMARK   11  A    between atoms: CA_16  and  C_17
REMARK   12  A    between atoms: CA_16  and  N_19
REMARK   13  A    between atoms: C_17  and  O_18
REMARK                            x       y       z     vdW  Elec       q    Type
REMARK                         _______ _______ _______ _____ _____    ______ ____
ROOT
ATOM      1  C   UNL     1       2.434  16.675  -3.905  0.00  0.00    +0.000 A 
ATOM      2  C   UNL     1       2.829  15.783  -2.845  0.00  0.00    +0.000 A 
ATOM      3  C   UNL     1       4.215  15.686  -2.466  0.00  0.00    +0.000 A 
ATOM      4  C   UNL     1       4.610  14.794  -1.406  0.00  0.00    +0.000 A 
ATOM      5  C   UNL     1       5.996  14.696  -1.026  0.00  0.00    +0.000 A 
ATOM      6  C   UNL     1       1.048  16.773  -4.284  0.00  0.00    +0.000 A 
ENDROOT
BRANCH   1   7
ATOM      7  C   UNL     1       3.480  17.514  -4.622  0.00  0.00    +0.000 C 
BRANCH   7   8
ATOM      8  C   UNL     1       3.615  17.035  -6.058  0.00  0.00    +0.000 C 
BRANCH   8   9
ATOM      9  C   UNL     1       4.795  16.082  -6.165  0.00  0.00    +0.000 C 
BRANCH   9  10
ATOM     10  C   UNL     1       4.286  14.675  -6.435  0.00  0.00    +0.000 C 
BRANCH  10  11
ATOM     11  C   UNL     1       4.926  13.709  -5.450  0.00  0.00    +0.000 C 
BRANCH  11  13
ATOM     12  C   UNL     1       2.499  13.189  -5.426  0.00  0.00    +0.000 C 
ATOM     13  C   UNL     1       3.854  12.814  -4.850  0.00  0.00    +0.000 C 
ENDBRANCH  11  13
ENDBRANCH  10  11
ENDBRANCH   9  10
ENDBRANCH   8   9
ENDBRANCH   7   8
ENDBRANCH   1   7
BRANCH   4  14
ATOM     14  C   UNL     1       3.565  13.955  -0.688  0.00  0.00    +0.000 C 
BRANCH  14  15
ATOM     15  C   UNL     1       3.669  12.511  -1.150  0.00  0.00    +0.000 C 
BRANCH  15  16
ATOM     16  CA  UNL     1       2.298  11.856  -1.079  0.00  0.00    +0.000 C 
BRANCH  16  17
ATOM     17  N   UNL     1       2.129  10.948  -2.223  0.00  0.00    +0.000 NA
ATOM     18  H1  UNL     1       1.156  10.964  -2.529  0.00  0.00    +0.000 HD
ATOM     19  H2  UNL     1       2.731  11.251  -2.989  0.00  0.00    +0.000 HD
ENDBRANCH  16  17
BRANCH  16  20
ATOM     20  C   UNL     1       1.222  12.929  -1.121  0.00  0.00    +0.000 C 
BRANCH  20  21
ATOM     21  O   UNL     1       0.614  12.942  -2.403  0.00  0.00    +0.000 OA
ATOM     22  H   UNL     1       0.689  13.857  -2.799  0.00  0.00    +0.000 HD
ENDBRANCH  20  21
ENDBRANCH  16  20
ENDBRANCH  15  16
ENDBRANCH  14  15
ENDBRANCH   4  14
TORSDOF 12
ENDMDL
MODEL 5
REMARK VINA RESULT:     0.000      5.614      7.667
REMARK INTER + INTRA:          -2.434
REMARK INTER:                   0.000
REMARK INTRA:                  -2.434
REMARK UNBOUND:                -2.434
REMARK  Name = 
REMARK  13 active torsions:
REMARK  status: ('A' for Active; 'I' for Inactive)
REMARK    1  A    between atoms: C_1  and  C_2
REMARK    2  A    between atoms: C_2  and  C_3
REMARK    3  A    between atoms: C_3  and  C_4
REMARK    4  A    between atoms: C_4  and  C_5
REMARK    5  A    between atoms: C_5  and  C_6
REMARK    6  A    between atoms: C_6  and  C_7
REMARK    7  A    between atoms: C_7  and  C_8
REMARK    8  A    between atoms: C_11  and  C_14
REMARK    9  A    between atoms: C_14  and  C_15
REMARK   10  A    between atoms: C_15  and  CA_16
REMARK   11  A    between atoms: CA_16  and  C_17
REMARK   12  A    between atoms: CA_16  and  N_19
REMARK   13  A    between atoms: C_17  and  O_18
REMARK                            x       y       z     vdW  Elec       q    Type
REMARK                         _______ _______ _______ _____ _____    ______ ____
ROOT
ATOM      1  C   UNL     1       0.658  12.995  -7.307  0.00  0.00    +0.000 A 
ATOM      2  C   UNL     1       1.313  12.563  -6.099  0.00  0.00    +0.000 A 
ATOM      3  C   UNL     1       2.344  13.378  -5.509  0.00  0.00    +0.000 A 
ATOM      4  C   UNL     1       2.999  12.946  -4.301  0.00  0.00    +0.000 A 
ATOM      5  C   UNL     1       4.030  13.762  -3.711  0.00  0.00    +0.000 A 
ATOM      6  C   UNL     1      -0.373  12.180  -7.897  0.00  0.00    +0.000 A 
ENDROOT
BRANCH   1   7
ATOM      7  C   UNL     1       1.054  14.310  -7.958  0.00  0.00    +0.000 C 
BRANCH   7   8
ATOM      8  C   UNL     1      -0.081  15.310  -7.811  0.00  0.00    +0.000 C 
BRANCH   8   9
ATOM      9  C   UNL     1       0.165  16.177  -6.586  0.00  0.00    +0.000 C 
BRANCH   9  10
ATOM     10  C   UNL     1      -0.835  15.816  -5.500  0.00  0.00    +0.000 C 
BRANCH  10  11
ATOM     11  C   UNL     1      -0.116  15.714  -4.164  0.00  0.00    +0.000 C 
BRANCH  11  13
ATOM     12  C   UNL     1      -1.609  13.735  -4.278  0.00  0.00    +0.000 C 
ATOM     13  C   UNL     1      -0.553  14.446  -3.449  0.00  0.00    +0.000 C 
ENDBRANCH  11  13
ENDBRANCH  10  11
ENDBRANCH   9  10
ENDBRANCH   8   9
ENDBRANCH   7   8
ENDBRANCH   1   7
BRANCH   4  14
ATOM     14  C   UNL     1       2.604  11.632  -3.649  0.00  0.00    +0.000 C 
BRANCH  14  15
ATOM     15  C   UNL     1       1.988  11.907  -2.287  0.00  0.00    +0.000 C 
BRANCH  15  16
ATOM     16  CA  UNL     1       0.848  10.931  -2.039  0.00  0.00    +0.000 C 
BRANCH  16  17
ATOM     17  N   UNL     1       0.166  10.641  -3.309  0.00  0.00    +0.000 NA
ATOM     18  H1  UNL     1       0.152  11.482  -3.887  0.00  0.00    +0.000 HD
ATOM     19  H2  UNL     1       0.665   9.900  -3.801  0.00  0.00    +0.000 HD
ENDBRANCH  16  17
BRANCH  16  20
ATOM     20  C   UNL     1      -0.141  11.545  -1.062  0.00  0.00    +0.000 C 
BRANCH  20  21
ATOM     21  O   UNL     1      -1.460  11.394  -1.564  0.00  0.00    +0.000 OA
ATOM     22  H   UNL     1      -1.944  12.266  -1.497  0.00  0.00    +0.000 HD
ENDBRANCH  20  21
ENDBRANCH  16  20
ENDBRANCH  15  16
ENDBRANCH  14  15
ENDBRANCH   4  14
TORSDOF 12
ENDMDL
