MODEL 1
REMARK VINA RESULT:    -0.001      0.000      0.000
REMARK INTER + INTRA:          -1.048
REMARK INTER:                   0.000
REMARK INTRA:                  -1.048
REMARK UNBOUND:                -1.046
REMARK  Name = 
REMARK  9 active torsions:
REMARK  status: ('A' for Active; 'I' for Inactive)
REMARK    1  A    between atoms: C_1  and  C_2
REMARK    2  A    between atoms: C_5  and  C_11
REMARK    3  A    between atoms: C_6  and  C_10
REMARK    4  A    between atoms: C_7  and  O_8
REMARK    5  A    between atoms: O_8  and  C_9
REMARK    6  A    between atoms: C_11  and  S_12
REMARK    7  A    between atoms: S_12  and  C_14
REMARK    8  A    between atoms: C_20  and  O_23
REMARK    9  A    between atoms: O_23  and  C_24
REMARK                            x       y       z     vdW  Elec       q    Type
REMARK                         _______ _______ _______ _____ _____    ______ ____
ROOT
ATOM      1  S   UNL     1      -1.672  19.356 -11.669  0.00  0.00    +0.000 S 
ATOM      2  O   UNL     1      -1.238  18.492 -10.483  0.00  0.00    +0.000 OA
ENDROOT
BRANCH   1   3
ATOM      3  C   UNL     1      -2.004  21.041 -11.098  0.00  0.00    +0.000 A 
ATOM      4  N   UNL     1      -2.829  21.879 -11.844  0.00  0.00    +0.000 NA
ATOM      5  C   UNL     1      -3.083  23.176 -11.405  0.00  0.00    +0.000 A 
ATOM      6  C   UNL     1      -3.936  24.043 -12.176  0.00  0.00    +0.000 A 
ATOM      7  N   UNL     1      -1.434  21.499  -9.912  0.00  0.00    +0.000 N 
ATOM      8  C   UNL     1      -4.200  25.384 -11.722  0.00  0.00    +0.000 A 
ATOM      9  C   UNL     1      -3.611  25.858 -10.497  0.00  0.00    +0.000 A 
ATOM     10  C   UNL     1      -3.875  27.199 -10.042  0.00  0.00    +0.000 A 
ATOM     11  C   UNL     1      -2.494  23.650 -10.180  0.00  0.00    +0.000 A 
ATOM     12  H   UNL     1      -0.829  20.885  -9.366  0.00  0.00    +0.000 HD
BRANCH   9  13
ATOM     13  O   UNL     1      -2.770  25.004  -9.736  0.00  0.00    +0.000 OA
ATOM     14  C   UNL     1      -3.241  24.442  -8.520  0.00  0.00    +0.000 C 
ENDBRANCH   9  13
ENDBRANCH   1   3
BRANCH   1  15
ATOM     15  C   UNL     1      -0.352  19.387 -12.907  0.00  0.00    +0.000 C 
BRANCH  15  20
ATOM     16  C   UNL     1       1.420  22.731 -13.418  0.00  0.00    +0.000 C 
ATOM     17  C   UNL     1       2.274  22.747 -12.160  0.00  0.00    +0.000 A 
ATOM     18  C   UNL     1       2.206  21.650 -11.229  0.00  0.00    +0.000 A 
ATOM     19  N   UNL     1       1.357  20.575 -11.481  0.00  0.00    +0.000 NA
ATOM     20  C   UNL     1       0.574  20.560 -12.633  0.00  0.00    +0.000 A 
ATOM     21  C   UNL     1       0.643  21.657 -13.564  0.00  0.00    +0.000 A 
ATOM     22  C   UNL     1       3.151  23.859 -11.900  0.00  0.00    +0.000 A 
ATOM     23  C   UNL     1       1.568  22.830 -13.290  0.00  0.00    +0.000 C 
BRANCH  22  24
ATOM     24  O   UNL     1       3.219  24.941 -12.818  0.00  0.00    +0.000 OA
ATOM     25  C   UNL     1       2.887  26.254 -12.394  0.00  0.00    +0.000 C 
ENDBRANCH  22  24
ENDBRANCH  15  20
ENDBRANCH   1  15
TORSDOF 5
ENDMDL
MODEL 2
REMARK VINA RESULT:    -0.001     11.252     13.864
REMARK INTER + INTRA:          -1.048
REMARK INTER:                   0.000
REMARK INTRA:                  -1.048
REMARK UNBOUND:                -1.046
REMARK  Name = 
REMARK  9 active torsions:
REMARK  status: ('A' for Active; 'I' for Inactive)
REMARK    1  A    between atoms: C_1  and  C_2
REMARK    2  A    between atoms: C_5  and  C_11
REMARK    3  A    between atoms: C_6  and  C_10
REMARK    4  A    between atoms: C_7  and  O_8
REMARK    5  A    between atoms: O_8  and  C_9
REMARK    6  A    between atoms: C_11  and  S_12
REMARK    7  A    between atoms: S_12  and  C_14
REMARK    8  A    between atoms: C_20  and  O_23
REMARK    9  A    between atoms: O_23  and  C_24
REMARK                            x       y       z     vdW  Elec       q    Type
REMARK                         _______ _______ _______ _____ _____    ______ ____
ROOT
ATOM      1  S   UNL     1       7.790  17.889  -2.260  0.00  0.00    +0.000 S 
ATOM      2  O   UNL     1       8.892  17.677  -1.221  0.00  0.00    +0.000 OA
ENDROOT
BRANCH   1   3
ATOM      3  C   UNL     1       8.516  17.891  -3.918  0.00  0.00    +0.000 A 
ATOM      4  N   UNL     1       7.844  18.506  -4.971  0.00  0.00    +0.000 NA
ATOM      5  C   UNL     1       8.403  18.507  -6.247  0.00  0.00    +0.000 A 
ATOM      6  C   UNL     1       7.707  19.142  -7.337  0.00  0.00    +0.000 A 
ATOM      7  N   UNL     1       9.747  17.279  -4.139  0.00  0.00    +0.000 N 
ATOM      8  C   UNL     1       8.285  19.143  -8.656  0.00  0.00    +0.000 A 
ATOM      9  C   UNL     1       9.558  18.510  -8.885  0.00  0.00    +0.000 A 
ATOM     10  C   UNL     1      10.136  18.512 -10.204  0.00  0.00    +0.000 A 
ATOM     11  C   UNL     1       9.675  17.873  -6.477  0.00  0.00    +0.000 A 
ATOM     12  H   UNL     1      10.239  16.828  -3.367  0.00  0.00    +0.000 HD
BRANCH   9  13
ATOM     13  O   UNL     1      10.244  17.884  -7.812  0.00  0.00    +0.000 OA
ATOM     14  C   UNL     1      11.394  18.497  -7.249  0.00  0.00    +0.000 C 
ENDBRANCH   9  13
ENDBRANCH   1   3
BRANCH   1  15
ATOM     15  C   UNL     1       6.577  16.551  -2.134  0.00  0.00    +0.000 C 
BRANCH  15  20
ATOM     16  C   UNL     1       6.413  14.124  -5.079  0.00  0.00    +0.000 C 
ATOM     17  C   UNL     1       7.677  13.325  -4.804  0.00  0.00    +0.000 A 
ATOM     18  C   UNL     1       8.497  13.644  -3.664  0.00  0.00    +0.000 A 
ATOM     19  N   UNL     1       8.132  14.683  -2.812  0.00  0.00    +0.000 NA
ATOM     20  C   UNL     1       6.975  15.416  -3.064  0.00  0.00    +0.000 A 
ATOM     21  C   UNL     1       6.155  15.098  -4.204  0.00  0.00    +0.000 A 
ATOM     22  C   UNL     1       8.054  12.250  -5.685  0.00  0.00    +0.000 A 
ATOM     23  C   UNL     1       6.551  13.963  -5.133  0.00  0.00    +0.000 C 
BRANCH  22  24
ATOM     24  O   UNL     1       7.245  11.936  -6.810  0.00  0.00    +0.000 OA
ATOM     25  C   UNL     1       7.789  12.010  -8.119  0.00  0.00    +0.000 C 
ENDBRANCH  22  24
ENDBRANCH  15  20
ENDBRANCH   1  15
TORSDOF 5
ENDMDL
MODEL 3
REMARK VINA RESULT:    -0.001     11.279     14.137
REMARK INTER + INTRA:          -1.048
REMARK INTER:                   0.000
REMARK INTRA:                  -1.048
REMARK UNBOUND:                -1.046
REMARK  Name = 
REMARK  9 active torsions:
REMARK  status: ('A' for Active; 'I' for Inactive)
REMARK    1  A    between atoms: C_1  and  C_2
REMARK    2  A    between atoms: C_5  and  C_11
REMARK    3  A    between atoms: C_6  and  C_10
REMARK    4  A    between atoms: C_7  and  O_8
REMARK    5  A    between atoms: O_8  and  C_9
REMARK    6  A    between atoms: C_11  and  S_12
REMARK    7  A    between atoms: S_12  and  C_14
REMARK    8  A    between atoms: C_20  and  O_23
REMARK    9  A    between atoms: O_23  and  C_24
REMARK                            x       y       z     vdW  Elec       q    Type
REMARK                         _______ _______ _______ _____ _____    ______ ____
ROOT
ATOM      1  S   UNL     1       7.355  13.012  -7.255  0.00  0.00    +0.000 S 
ATOM      2  O   UNL     1       7.533  14.023  -8.389  0.00  0.00    +0.000 OA
ENDROOT
BRANCH   1   3
ATOM      3  C   UNL     1       7.388  13.877  -5.665  0.00  0.00    +0.000 A 
ATOM      4  N   UNL     1       7.706  13.182  -4.501  0.00  0.00    +0.000 NA
ATOM      5  C   UNL     1       7.732  13.847  -3.278  0.00  0.00    +0.000 A 
ATOM      6  C   UNL     1       8.060  13.128  -2.074  0.00  0.00    +0.000 A 
ATOM      7  N   UNL     1       7.097  15.238  -5.607  0.00  0.00    +0.000 N 
ATOM      8  C   UNL     1       8.086  13.816  -0.809  0.00  0.00    +0.000 A 
ATOM      9  C   UNL     1       7.785  15.223  -0.748  0.00  0.00    +0.000 A 
ATOM     10  C   UNL     1       7.812  15.911   0.516  0.00  0.00    +0.000 A 
ATOM     11  C   UNL     1       7.430  15.254  -3.217  0.00  0.00    +0.000 A 
ATOM     12  H   UNL     1       6.864  15.747  -6.460  0.00  0.00    +0.000 HD
BRANCH   9  13
ATOM     13  O   UNL     1       7.461  15.932  -1.935  0.00  0.00    +0.000 OA
ATOM     14  C   UNL     1       8.400  16.833  -2.503  0.00  0.00    +0.000 C 
ENDBRANCH   9  13
ENDBRANCH   1   3
BRANCH   1  15
ATOM     15  C   UNL     1       5.766  12.164  -7.447  0.00  0.00    +0.000 C 
BRANCH  15  20
ATOM     16  C   UNL     1       3.114  12.905  -4.802  0.00  0.00    +0.000 C 
ATOM     17  C   UNL     1       2.698  14.295  -5.258  0.00  0.00    +0.000 A 
ATOM     18  C   UNL     1       3.324  14.891  -6.410  0.00  0.00    +0.000 A 
ATOM     19  N   UNL     1       4.309  14.196  -7.106  0.00  0.00    +0.000 NA
ATOM     20  C   UNL     1       4.691  12.923  -6.688  0.00  0.00    +0.000 A 
ATOM     21  C   UNL     1       4.065  12.327  -5.536  0.00  0.00    +0.000 A 
ATOM     22  C   UNL     1       1.679  15.013  -4.538  0.00  0.00    +0.000 A 
ATOM     23  C   UNL     1       2.990  13.084  -4.776  0.00  0.00    +0.000 C 
BRANCH  22  24
ATOM     24  O   UNL     1       1.062  14.425  -3.402  0.00  0.00    +0.000 OA
ATOM     25  C   UNL     1       1.153  15.060  -2.136  0.00  0.00    +0.000 C 
ENDBRANCH  22  24
ENDBRANCH  15  20
ENDBRANCH   1  15
TORSDOF 5
ENDMDL
MODEL 4
REMARK VINA RESULT:     0.000     12.482     15.081
REMARK INTER + INTRA:          -1.046
REMARK INTER:                   0.000
REMARK INTRA:                  -1.046
REMARK UNBOUND:                -1.046
REMARK  Name = 
REMARK  9 active torsions:
REMARK  status: ('A' for Active; 'I' for Inactive)
REMARK    1  A    between atoms: C_1  and  C_2
REMARK    2  A    between atoms: C_5  and  C_11
REMARK    3  A    between atoms: C_6  and  C_10
REMARK    4  A    between atoms: C_7  and  O_8
REMARK    5  A    between atoms: O_8  and  C_9
REMARK    6  A    between atoms: C_11  and  S_12
REMARK    7  A    between atoms: S_12  and  C_14
REMARK    8  A    between atoms: C_20  and  O_23
REMARK    9  A    between atoms: O_23  and  C_24
REMARK                            x       y       z     vdW  Elec       q    Type
REMARK                         _______ _______ _______ _____ _____    ______ ____
ROOT
ATOM      1  S   UNL     1       2.627  13.033   1.053  0.00  0.00    +0.000 S 
ATOM      2  O   UNL     1       1.186  13.046   1.567  0.00  0.00    +0.000 OA
ENDROOT
BRANCH   1   3
ATOM      3  C   UNL     1       2.714  12.066  -0.474  0.00  0.00    +0.000 A 
ATOM      4  N   UNL     1       3.927  11.519  -0.884  0.00  0.00    +0.000 NA
ATOM      5  C   UNL     1       3.995  10.776  -2.060  0.00  0.00    +0.000 A 
ATOM      6  C   UNL     1       5.250  10.211  -2.483  0.00  0.00    +0.000 A 
ATOM      7  N   UNL     1       1.567  11.869  -1.240  0.00  0.00    +0.000 N 
ATOM      8  C   UNL     1       5.319   9.442  -3.699  0.00  0.00    +0.000 A 
ATOM      9  C   UNL     1       4.134   9.238  -4.491  0.00  0.00    +0.000 A 
ATOM     10  C   UNL     1       4.203   8.469  -5.706  0.00  0.00    +0.000 A 
ATOM     11  C   UNL     1       2.810  10.573  -2.852  0.00  0.00    +0.000 A 
ATOM     12  H   UNL     1       0.678  12.270  -0.940  0.00  0.00    +0.000 HD
BRANCH   9  13
ATOM     13  O   UNL     1       2.897   9.795  -4.073  0.00  0.00    +0.000 OA
ATOM     14  C   UNL     1       1.884   8.956  -3.537  0.00  0.00    +0.000 C 
ENDBRANCH   9  13
ENDBRANCH   1   3
BRANCH   1  15
ATOM     15  C   UNL     1       3.165  14.730   0.726  0.00  0.00    +0.000 C 
BRANCH  15  20
ATOM     16  C   UNL     1       3.762  15.645  -2.934  0.00  0.00    +0.000 C 
ATOM     17  C   UNL     1       2.317  15.763  -3.393  0.00  0.00    +0.000 A 
ATOM     18  C   UNL     1       1.244  15.530  -2.460  0.00  0.00    +0.000 A 
ATOM     19  N   UNL     1       1.530  15.199  -1.138  0.00  0.00    +0.000 NA
ATOM     20  C   UNL     1       2.853  15.091  -0.717  0.00  0.00    +0.000 A 
ATOM     21  C   UNL     1       3.926  15.323  -1.650  0.00  0.00    +0.000 A 
ATOM     22  C   UNL     1       2.022  16.105  -4.759  0.00  0.00    +0.000 A 
ATOM     23  C   UNL     1       3.615  15.685  -3.092  0.00  0.00    +0.000 C 
BRANCH  22  24
ATOM     24  O   UNL     1       3.080  16.334  -5.679  0.00  0.00    +0.000 OA
ATOM     25  C   UNL     1       3.197  15.527  -6.842  0.00  0.00    +0.000 C 
ENDBRANCH  22  24
ENDBRANCH  15  20
ENDBRANCH   1  15
TORSDOF 5
ENDMDL
MODEL 5
REMARK VINA RESULT:     0.000      5.998      9.361
REMARK INTER + INTRA:          -1.046
REMARK INTER:                   0.000
REMARK INTRA:                  -1.046
REMARK UNBOUND:                -1.046
REMARK  Name = 
REMARK  9 active torsions:
REMARK  status: ('A' for Active; 'I' for Inactive)
REMARK    1  A    between atoms: C_1  and  C_2
REMARK    2  A    between atoms: C_5  and  C_11
REMARK    3  A    between atoms: C_6  and  C_10
REMARK    4  A    between atoms: C_7  and  O_8
REMARK    5  A    between atoms: O_8  and  C_9
REMARK    6  A    between atoms: C_11  and  S_12
REMARK    7  A    between atoms: S_12  and  C_14
REMARK    8  A    between atoms: C_20  and  O_23
REMARK    9  A    between atoms: O_23  and  C_24
REMARK                            x       y       z     vdW  Elec       q    Type
REMARK                         _______ _______ _______ _____ _____    ______ ____
ROOT
ATOM      1  S   UNL     1       3.394  22.211  -8.178  0.00  0.00    +0.000 S 
ATOM      2  O   UNL     1       3.427  23.515  -7.377  0.00  0.00    +0.000 OA
ENDROOT
BRANCH   1   3
ATOM      3  C   UNL     1       3.511  20.805  -7.045  0.00  0.00    +0.000 A 
ATOM      4  N   UNL     1       3.959  19.571  -7.510  0.00  0.00    +0.000 NA
ATOM      5  C   UNL     1       4.048  18.489  -6.638  0.00  0.00    +0.000 A 
ATOM      6  C   UNL     1       4.510  17.212  -7.120  0.00  0.00    +0.000 A 
ATOM      7  N   UNL     1       3.154  20.957  -5.707  0.00  0.00    +0.000 N 
ATOM      8  C   UNL     1       4.603  16.093  -6.218  0.00  0.00    +0.000 A 
ATOM      9  C   UNL     1       4.233  16.250  -4.835  0.00  0.00    +0.000 A 
ATOM     10  C   UNL     1       4.326  15.131  -3.934  0.00  0.00    +0.000 A 
ATOM     11  C   UNL     1       3.678  18.645  -5.255  0.00  0.00    +0.000 A 
ATOM     12  H   UNL     1       2.826  21.861  -5.366  0.00  0.00    +0.000 HD
BRANCH   9  13
ATOM     13  O   UNL     1       3.777  17.508  -4.360  0.00  0.00    +0.000 OA
ATOM     14  C   UNL     1       4.619  18.306  -3.541  0.00  0.00    +0.000 C 
ENDBRANCH   9  13
ENDBRANCH   1   3
BRANCH   1  15
ATOM     15  C   UNL     1       1.843  22.112  -9.105  0.00  0.00    +0.000 C 
BRANCH  15  20
ATOM     16  C   UNL     1      -0.622  19.409  -8.008  0.00  0.00    +0.000 C 
ATOM     17  C   UNL     1      -1.146  20.061  -6.738  0.00  0.00    +0.000 A 
ATOM     18  C   UNL     1      -0.648  21.350  -6.332  0.00  0.00    +0.000 A 
ATOM     19  N   UNL     1       0.313  22.000  -7.102  0.00  0.00    +0.000 NA
ATOM     20  C   UNL     1       0.794  21.403  -8.265  0.00  0.00    +0.000 A 
ATOM     21  C   UNL     1       0.296  20.114  -8.671  0.00  0.00    +0.000 A 
ATOM     22  C   UNL     1      -2.140  19.388  -5.942  0.00  0.00    +0.000 A 
ATOM     23  C   UNL     1      -0.753  19.404  -7.832  0.00  0.00    +0.000 C 
BRANCH  22  24
ATOM     24  O   UNL     1      -2.631  18.117  -6.343  0.00  0.00    +0.000 OA
ATOM     25  C   UNL     1      -2.474  16.994  -5.489  0.00  0.00    +0.000 C 
ENDBRANCH  22  24
ENDBRANCH  15  20
ENDBRANCH   1  15
TORSDOF 5
ENDMDL
