MODEL 1
REMARK VINA RESULT:     0.000      0.000      0.000
REMARK INTER + INTRA:          -0.175
REMARK INTER:                   0.000
REMARK INTRA:                  -0.175
REMARK UNBOUND:                -0.175
REMARK  Name = 
REMARK  3 active torsions:
REMARK  status: ('A' for Active; 'I' for Inactive)
REMARK    1  A    between atoms: C_1  and  C_2
REMARK    2  A    between atoms: N_4  and  C_5
REMARK    3  A    between atoms: C_8  and  O_11
REMARK                            x       y       z     vdW  Elec       q    Type
REMARK                         _______ _______ _______ _____ _____    ______ ____
ROOT
ATOM      1  C   UNL     1       1.662  20.942  -8.595  0.00  0.00    +0.000 A 
ATOM      2  C   UNL     1       1.455  21.165 -10.002  0.00  0.00    +0.000 A 
ATOM      3  C   UNL     1       1.426  20.049 -10.912  0.00  0.00    +0.000 A 
ATOM      4  C   UNL     1       1.220  20.271 -12.320  0.00  0.00    +0.000 A 
ATOM      5  C   UNL     1       1.191  19.155 -13.228  0.00  0.00    +0.000 A 
ATOM      6  C   UNL     1       1.691  22.058  -7.686  0.00  0.00    +0.000 A 
ENDROOT
BRANCH   1  10
ATOM      7  C   UNL     1       4.408  19.874  -8.263  0.00  0.00    +0.000 C 
ATOM      8  C   UNL     1       3.195  19.027  -7.915  0.00  0.00    +0.000 C 
ATOM      9  O   UNL     1       3.352  17.845  -7.475  0.00  0.00    +0.000 OA
ATOM     10  N   UNL     1       1.842  19.575  -8.086  0.00  0.00    +0.000 N 
ATOM     11  H   UNL     1       1.029  19.006  -7.852  0.00  0.00    +0.000 HD
ENDBRANCH   1  10
BRANCH   4  12
ATOM     12  O   UNL     1       1.045  21.593 -12.811  0.00  0.00    +0.000 OA
ATOM     13  H   UNL     1       1.573  21.907 -13.600  0.00  0.00    +0.000 HD
ENDBRANCH   4  12
TORSDOF 2
ENDMDL
MODEL 2
REMARK VINA RESULT:     0.000      6.177      7.126
REMARK INTER + INTRA:          -0.175
REMARK INTER:                   0.000
REMARK INTRA:                  -0.175
REMARK UNBOUND:                -0.175
REMARK  Name = 
REMARK  3 active torsions:
REMARK  status: ('A' for Active; 'I' for Inactive)
REMARK    1  A    between atoms: C_1  and  C_2
REMARK    2  A    between atoms: N_4  and  C_5
REMARK    3  A    between atoms: C_8  and  O_11
REMARK                            x       y       z     vdW  Elec       q    Type
REMARK                         _______ _______ _______ _____ _____    ______ ____
ROOT
ATOM      1  C   UNL     1       4.666  23.822 -11.419  0.00  0.00    +0.000 A 
ATOM      2  C   UNL     1       5.924  24.508 -11.274  0.00  0.00    +0.000 A 
ATOM      3  C   UNL     1       6.624  24.984 -12.439  0.00  0.00    +0.000 A 
ATOM      4  C   UNL     1       7.881  25.670 -12.294  0.00  0.00    +0.000 A 
ATOM      5  C   UNL     1       8.580  26.146 -13.460  0.00  0.00    +0.000 A 
ATOM      6  C   UNL     1       3.967  23.346 -10.254  0.00  0.00    +0.000 A 
ENDROOT
BRANCH   1  10
ATOM      7  C   UNL     1       5.208  21.272 -12.832  0.00  0.00    +0.000 C 
ATOM      8  C   UNL     1       4.352  22.352 -13.473  0.00  0.00    +0.000 C 
ATOM      9  O   UNL     1       3.859  22.167 -14.630  0.00  0.00    +0.000 OA
ATOM     10  N   UNL     1       4.095  23.609 -12.757  0.00  0.00    +0.000 N 
ATOM     11  H   UNL     1       3.521  24.333 -13.187  0.00  0.00    +0.000 HD
ENDBRANCH   1  10
BRANCH   4  12
ATOM     12  O   UNL     1       8.433  25.876 -11.001  0.00  0.00    +0.000 OA
ATOM     13  H   UNL     1       7.829  25.987 -10.213  0.00  0.00    +0.000 HD
ENDBRANCH   4  12
TORSDOF 2
ENDMDL
MODEL 3
REMARK VINA RESULT:     0.000     13.231     14.519
REMARK INTER + INTRA:          -0.175
REMARK INTER:                   0.000
REMARK INTRA:                  -0.175
REMARK UNBOUND:                -0.175
REMARK  Name = 
REMARK  3 active torsions:
REMARK  status: ('A' for Active; 'I' for Inactive)
REMARK    1  A    between atoms: C_1  and  C_2
REMARK    2  A    between atoms: N_4  and  C_5
REMARK    3  A    between atoms: C_8  and  O_11
REMARK                            x       y       z     vdW  Elec       q    Type
REMARK                         _______ _______ _______ _____ _____    ______ ____
ROOT
ATOM      1  C   UNL     1       0.680  22.480   5.196  0.00  0.00    +0.000 A 
ATOM      2  C   UNL     1       1.733  23.010   4.369  0.00  0.00    +0.000 A 
ATOM      3  C   UNL     1       1.449  24.060   3.425  0.00  0.00    +0.000 A 
ATOM      4  C   UNL     1       2.502  24.590   2.598  0.00  0.00    +0.000 A 
ATOM      5  C   UNL     1       2.218  25.640   1.655  0.00  0.00    +0.000 A 
ATOM      6  C   UNL     1       0.965  21.430   6.138  0.00  0.00    +0.000 A 
ENDROOT
BRANCH   1  10
ATOM      7  C   UNL     1      -1.252  21.121   3.404  0.00  0.00    +0.000 C 
ATOM      8  C   UNL     1      -1.657  22.353   4.195  0.00  0.00    +0.000 C 
ATOM      9  O   UNL     1      -2.838  22.813   4.093  0.00  0.00    +0.000 OA
ATOM     10  N   UNL     1      -0.685  23.013   5.078  0.00  0.00    +0.000 N 
ATOM     11  H   UNL     1      -0.957  23.839   5.609  0.00  0.00    +0.000 HD
ENDBRANCH   1  10
BRANCH   4  12
ATOM     12  O   UNL     1       3.822  24.076   2.712  0.00  0.00    +0.000 OA
ATOM     13  H   UNL     1       4.552  24.442   2.137  0.00  0.00    +0.000 HD
ENDBRANCH   4  12
TORSDOF 2
ENDMDL
MODEL 4
REMARK VINA RESULT:     0.000     10.839     11.630
REMARK INTER + INTRA:          -0.175
REMARK INTER:                   0.000
REMARK INTRA:                  -0.175
REMARK UNBOUND:                -0.175
REMARK  Name = 
REMARK  3 active torsions:
REMARK  status: ('A' for Active; 'I' for Inactive)
REMARK    1  A    between atoms: C_1  and  C_2
REMARK    2  A    between atoms: N_4  and  C_5
REMARK    3  A    between atoms: C_8  and  O_11
REMARK                            x       y       z     vdW  Elec       q    Type
REMARK                         _______ _______ _______ _____ _____    ______ ____
ROOT
ATOM      1  C   UNL     1      -2.120  10.142  -9.880  0.00  0.00    +0.000 A 
ATOM      2  C   UNL     1      -3.249  10.290  -8.998  0.00  0.00    +0.000 A 
ATOM      3  C   UNL     1      -3.058  10.791  -7.661  0.00  0.00    +0.000 A 
ATOM      4  C   UNL     1      -4.187  10.939  -6.779  0.00  0.00    +0.000 A 
ATOM      5  C   UNL     1      -3.995  11.440  -5.443  0.00  0.00    +0.000 A 
ATOM      6  C   UNL     1      -2.312   9.641 -11.216  0.00  0.00    +0.000 A 
ENDROOT
BRANCH   1  10
ATOM      7  C   UNL     1      -0.374   8.038  -8.734  0.00  0.00    +0.000 C 
ATOM      8  C   UNL     1       0.108   9.475  -8.845  0.00  0.00    +0.000 C 
ATOM      9  O   UNL     1       1.273   9.786  -8.444  0.00  0.00    +0.000 OA
ATOM     10  N   UNL     1      -0.773  10.503  -9.416  0.00  0.00    +0.000 N 
ATOM     11  H   UNL     1      -0.449  11.467  -9.491  0.00  0.00    +0.000 HD
ENDBRANCH   1  10
BRANCH   4  12
ATOM     12  O   UNL     1      -5.489  10.590  -7.228  0.00  0.00    +0.000 OA
ATOM     13  H   UNL     1      -6.064   9.990  -6.673  0.00  0.00    +0.000 HD
ENDBRANCH   4  12
TORSDOF 2
ENDMDL
MODEL 5
REMARK VINA RESULT:     0.000     12.804     14.600
REMARK INTER + INTRA:          -0.175
REMARK INTER:                   0.000
REMARK INTRA:                  -0.175
REMARK UNBOUND:                -0.175
REMARK  Name = 
REMARK  3 active torsions:
REMARK  status: ('A' for Active; 'I' for Inactive)
REMARK    1  A    between atoms: C_1  and  C_2
REMARK    2  A    between atoms: N_4  and  C_5
REMARK    3  A    between atoms: C_8  and  O_11
REMARK                            x       y       z     vdW  Elec       q    Type
REMARK                         _______ _______ _______ _____ _____    ______ ____
ROOT
ATOM      1  C   UNL     1      -1.019  14.505   3.714  0.00  0.00    +0.000 A 
ATOM      2  C   UNL     1      -1.683  13.266   3.400  0.00  0.00    +0.000 A 
ATOM      3  C   UNL     1      -1.659  12.756   2.054  0.00  0.00    +0.000 A 
ATOM      4  C   UNL     1      -2.322  11.517   1.740  0.00  0.00    +0.000 A 
ATOM      5  C   UNL     1      -2.298  11.008   0.394  0.00  0.00    +0.000 A 
ATOM      6  C   UNL     1      -1.044  15.015   5.060  0.00  0.00    +0.000 A 
ENDROOT
BRANCH   1  10
ATOM      7  C   UNL     1      -2.451  16.663   2.269  0.00  0.00    +0.000 C 
ATOM      8  C   UNL     1      -1.009  16.323   1.931  0.00  0.00    +0.000 C 
ATOM      9  O   UNL     1      -0.402  16.967   1.019  0.00  0.00    +0.000 OA
ATOM     10  N   UNL     1      -0.317  15.250   2.658  0.00  0.00    +0.000 N 
ATOM     11  H   UNL     1       0.651  15.022   2.431  0.00  0.00    +0.000 HD
ENDBRANCH   1  10
BRANCH   4  12
ATOM     12  O   UNL     1      -3.001  10.798   2.760  0.00  0.00    +0.000 OA
ATOM     13  H   UNL     1      -3.280  11.263   3.599  0.00  0.00    +0.000 HD
ENDBRANCH   4  12
TORSDOF 2
ENDMDL
