MODEL 1
REMARK VINA RESULT:    -0.001      0.000      0.000
REMARK INTER + INTRA:          -2.780
REMARK INTER:                   0.000
REMARK INTRA:                  -2.780
REMARK UNBOUND:                -2.779
REMARK  Name = 
REMARK  8 active torsions:
REMARK  status: ('A' for Active; 'I' for Inactive)
REMARK    1  A    between atoms: C_1  and  C_2
REMARK    2  A    between atoms: C_3  and  C_25
REMARK    3  A    between atoms: N_6  and  C_9
REMARK    4  A    between atoms: C_9  and  C_10
REMARK    5  A    between atoms: C_13  and  C_16
REMARK    6  A    between atoms: C_16  and  C_17
REMARK    7  A    between atoms: C_17  and  O_18
REMARK    8  A    between atoms: O_18  and  C_19
REMARK                            x       y       z     vdW  Elec       q    Type
REMARK                         _______ _______ _______ _____ _____    ______ ____
ROOT
ATOM      1  C   UNL     1      -1.841  17.543  -5.056  0.00  0.00    +0.000 A 
ATOM      2  C   UNL     1      -1.319  17.149  -3.772  0.00  0.00    +0.000 A 
ATOM      3  C   UNL     1      -0.401  18.010  -3.074  0.00  0.00    +0.000 A 
ATOM      4  C   UNL     1       0.122  17.617  -1.790  0.00  0.00    +0.000 A 
ATOM      5  C   UNL     1       1.040  18.478  -1.091  0.00  0.00    +0.000 A 
ATOM      6  C   UNL     1      -2.760  16.680  -5.755  0.00  0.00    +0.000 A 
ENDROOT
BRANCH   1   7
ATOM      7  C   UNL     1      -1.424  18.868  -5.671  0.00  0.00    +0.000 C 
BRANCH   7  13
ATOM      8  C   UNL     1       2.341  18.595  -6.397  0.00  0.00    +0.000 C 
ATOM      9  C   UNL     1       2.343  18.350  -7.897  0.00  0.00    +0.000 C 
ATOM     10  C   UNL     1       1.167  18.287  -8.577  0.00  0.00    +0.000 C 
ATOM     11  C   UNL     1      -0.149  18.462  -7.837  0.00  0.00    +0.000 C 
ATOM     12  O   UNL     1      -1.249  18.403  -8.473  0.00  0.00    +0.000 OA
ATOM     13  N   UNL     1      -0.151  18.699  -6.386  0.00  0.00    +0.000 N 
ATOM     14  C   UNL     1       3.659  18.175  -8.636  0.00  0.00    +0.000 C 
ATOM     15  O   UNL     1       4.758  18.234  -8.000  0.00  0.00    +0.000 OA
ATOM     16  C   UNL     1       1.168  18.042 -10.077  0.00  0.00    +0.000 C 
ENDBRANCH   7  13
ENDBRANCH   1   7
BRANCH   4  17
ATOM     17  C   UNL     1      -0.295  16.291  -1.174  0.00  0.00    +0.000 C 
BRANCH  17  18
ATOM     18  C   UNL     1       0.897  15.348  -1.149  0.00  0.00    +0.000 C 
BRANCH  18  19
ATOM     19  O   UNL     1       1.140  14.856  -2.459  0.00  0.00    +0.000 OA
BRANCH  19  20
ATOM     20  C   UNL     1       2.305  15.258  -3.162  0.00  0.00    +0.000 A 
ATOM     21  C   UNL     1       2.288  15.331  -4.601  0.00  0.00    +0.000 A 
ATOM     22  C   UNL     1       1.089  14.995  -5.325  0.00  0.00    +0.000 A 
ATOM     23  C   UNL     1       1.072  15.068  -6.763  0.00  0.00    +0.000 A 
ATOM     24  C   UNL     1      -0.127  14.732  -7.486  0.00  0.00    +0.000 A 
ATOM     25  C   UNL     1       3.505  15.594  -2.439  0.00  0.00    +0.000 A 
ENDBRANCH  19  20
ENDBRANCH  18  19
ENDBRANCH  17  18
ENDBRANCH   4  17
TORSDOF 6
ENDMDL
MODEL 2
REMARK VINA RESULT:    -0.000      7.454     10.525
REMARK INTER + INTRA:          -2.780
REMARK INTER:                   0.000
REMARK INTRA:                  -2.780
REMARK UNBOUND:                -2.779
REMARK  Name = 
REMARK  8 active torsions:
REMARK  status: ('A' for Active; 'I' for Inactive)
REMARK    1  A    between atoms: C_1  and  C_2
REMARK    2  A    between atoms: C_3  and  C_25
REMARK    3  A    between atoms: N_6  and  C_9
REMARK    4  A    between atoms: C_9  and  C_10
REMARK    5  A    between atoms: C_13  and  C_16
REMARK    6  A    between atoms: C_16  and  C_17
REMARK    7  A    between atoms: C_17  and  O_18
REMARK    8  A    between atoms: O_18  and  C_19
REMARK                            x       y       z     vdW  Elec       q    Type
REMARK                         _______ _______ _______ _____ _____    ______ ____
ROOT
ATOM      1  C   UNL     1      -4.456  19.388   0.398  0.00  0.00    +0.000 A 
ATOM      2  C   UNL     1      -3.734  19.464  -0.846  0.00  0.00    +0.000 A 
ATOM      3  C   UNL     1      -2.641  20.391  -0.988  0.00  0.00    +0.000 A 
ATOM      4  C   UNL     1      -1.918  20.468  -2.232  0.00  0.00    +0.000 A 
ATOM      5  C   UNL     1      -0.826  21.395  -2.374  0.00  0.00    +0.000 A 
ATOM      6  C   UNL     1      -5.549  18.460   0.540  0.00  0.00    +0.000 A 
ENDROOT
BRANCH   1   7
ATOM      7  C   UNL     1      -4.064  20.284   1.561  0.00  0.00    +0.000 C 
BRANCH   7  13
ATOM      8  C   UNL     1      -4.783  23.891   0.446  0.00  0.00    +0.000 C 
ATOM      9  C   UNL     1      -6.084  24.181   1.178  0.00  0.00    +0.000 C 
ATOM     10  C   UNL     1      -6.645  23.227   1.968  0.00  0.00    +0.000 C 
ATOM     11  C   UNL     1      -5.972  21.873   2.121  0.00  0.00    +0.000 C 
ATOM     12  O   UNL     1      -6.497  20.981   2.860  0.00  0.00    +0.000 OA
ATOM     13  N   UNL     1      -4.714  21.593   1.413  0.00  0.00    +0.000 N 
ATOM     14  C   UNL     1      -6.757  25.535   1.025  0.00  0.00    +0.000 C 
ATOM     15  O   UNL     1      -6.232  26.425   0.286  0.00  0.00    +0.000 OA
ATOM     16  C   UNL     1      -7.946  23.516   2.701  0.00  0.00    +0.000 C 
ENDBRANCH   7  13
ENDBRANCH   1   7
BRANCH   4  17
ATOM     17  C   UNL     1      -2.311  19.572  -3.395  0.00  0.00    +0.000 C 
BRANCH  17  18
ATOM     18  C   UNL     1      -2.900  20.420  -4.511  0.00  0.00    +0.000 C 
BRANCH  18  19
ATOM     19  O   UNL     1      -4.215  20.821  -4.158  0.00  0.00    +0.000 OA
BRANCH  19  20
ATOM     20  C   UNL     1      -4.487  22.183  -3.865  0.00  0.00    +0.000 A 
ATOM     21  C   UNL     1      -5.534  22.524  -2.936  0.00  0.00    +0.000 A 
ATOM     22  C   UNL     1      -6.305  21.483  -2.306  0.00  0.00    +0.000 A 
ATOM     23  C   UNL     1      -7.352  21.825  -1.378  0.00  0.00    +0.000 A 
ATOM     24  C   UNL     1      -8.122  20.783  -0.747  0.00  0.00    +0.000 A 
ATOM     25  C   UNL     1      -3.717  23.224  -4.495  0.00  0.00    +0.000 A 
ENDBRANCH  19  20
ENDBRANCH  18  19
ENDBRANCH  17  18
ENDBRANCH   4  17
TORSDOF 6
ENDMDL
MODEL 3
REMARK VINA RESULT:     0.000      5.565      8.485
REMARK INTER + INTRA:          -2.779
REMARK INTER:                   0.000
REMARK INTRA:                  -2.779
REMARK UNBOUND:                -2.779
REMARK  Name = 
REMARK  8 active torsions:
REMARK  status: ('A' for Active; 'I' for Inactive)
REMARK    1  A    between atoms: C_1  and  C_2
REMARK    2  A    between atoms: C_3  and  C_25
REMARK    3  A    between atoms: N_6  and  C_9
REMARK    4  A    between atoms: C_9  and  C_10
REMARK    5  A    between atoms: C_13  and  C_16
REMARK    6  A    between atoms: C_16  and  C_17
REMARK    7  A    between atoms: C_17  and  O_18
REMARK    8  A    between atoms: O_18  and  C_19
REMARK                            x       y       z     vdW  Elec       q    Type
REMARK                         _______ _______ _______ _____ _____    ______ ____
ROOT
ATOM      1  C   UNL     1       1.826  10.994  -2.712  0.00  0.00    +0.000 A 
ATOM      2  C   UNL     1       1.884  10.648  -1.315  0.00  0.00    +0.000 A 
ATOM      3  C   UNL     1       1.295   9.418  -0.854  0.00  0.00    +0.000 A 
ATOM      4  C   UNL     1       1.352   9.072   0.544  0.00  0.00    +0.000 A 
ATOM      5  C   UNL     1       0.763   7.842   1.006  0.00  0.00    +0.000 A 
ATOM      6  C   UNL     1       2.416  12.225  -3.175  0.00  0.00    +0.000 A 
ENDROOT
BRANCH   1   7
ATOM      7  C   UNL     1       1.146  10.060  -3.699  0.00  0.00    +0.000 C 
BRANCH   7  13
ATOM      8  C   UNL     1      -2.577   9.993  -2.744  0.00  0.00    +0.000 C 
ATOM      9  C   UNL     1      -3.177  10.905  -3.802  0.00  0.00    +0.000 C 
ATOM     10  C   UNL     1      -2.376  11.478  -4.739  0.00  0.00    +0.000 C 
ATOM     11  C   UNL     1      -0.881  11.205  -4.730  0.00  0.00    +0.000 C 
ATOM     12  O   UNL     1      -0.131  11.741  -5.607  0.00  0.00    +0.000 OA
ATOM     13  N   UNL     1      -0.300  10.323  -3.708  0.00  0.00    +0.000 N 
ATOM     14  C   UNL     1      -4.672  11.177  -3.811  0.00  0.00    +0.000 C 
ATOM     15  O   UNL     1      -5.421  10.642  -2.934  0.00  0.00    +0.000 OA
ATOM     16  C   UNL     1      -2.975  12.390  -5.798  0.00  0.00    +0.000 C 
ENDBRANCH   7  13
ENDBRANCH   1   7
BRANCH   4  17
ATOM     17  C   UNL     1       2.033  10.007   1.530  0.00  0.00    +0.000 C 
BRANCH  17  18
ATOM     18  C   UNL     1       0.989  10.613   2.455  0.00  0.00    +0.000 C 
BRANCH  18  19
ATOM     19  O   UNL     1       0.258  11.609   1.755  0.00  0.00    +0.000 OA
BRANCH  19  20
ATOM     20  C   UNL     1      -1.107  11.391   1.433  0.00  0.00    +0.000 A 
ATOM     21  C   UNL     1      -1.676  12.003   0.259  0.00  0.00    +0.000 A 
ATOM     22  C   UNL     1      -0.860  12.836  -0.586  0.00  0.00    +0.000 A 
ATOM     23  C   UNL     1      -1.430  13.447  -1.759  0.00  0.00    +0.000 A 
ATOM     24  C   UNL     1      -0.614  14.279  -2.605  0.00  0.00    +0.000 A 
ATOM     25  C   UNL     1      -1.924  10.559   2.279  0.00  0.00    +0.000 A 
ENDBRANCH  19  20
ENDBRANCH  18  19
ENDBRANCH  17  18
ENDBRANCH   4  17
TORSDOF 6
ENDMDL
MODEL 4
REMARK VINA RESULT:     0.001      5.969      9.637
REMARK INTER + INTRA:          -2.779
REMARK INTER:                   0.000
REMARK INTRA:                  -2.779
REMARK UNBOUND:                -2.779
REMARK  Name = 
REMARK  8 active torsions:
REMARK  status: ('A' for Active; 'I' for Inactive)
REMARK    1  A    between atoms: C_1  and  C_2
REMARK    2  A    between atoms: C_3  and  C_25
REMARK    3  A    between atoms: N_6  and  C_9
REMARK    4  A    between atoms: C_9  and  C_10
REMARK    5  A    between atoms: C_13  and  C_16
REMARK    6  A    between atoms: C_16  and  C_17
REMARK    7  A    between atoms: C_17  and  O_18
REMARK    8  A    between atoms: O_18  and  C_19
REMARK                            x       y       z     vdW  Elec       q    Type
REMARK                         _______ _______ _______ _____ _____    ______ ____
ROOT
ATOM      1  C   UNL     1       4.539  13.074  -6.292  0.00  0.00    +0.000 A 
ATOM      2  C   UNL     1       4.980  13.640  -7.541  0.00  0.00    +0.000 A 
ATOM      3  C   UNL     1       5.750  12.842  -8.460  0.00  0.00    +0.000 A 
ATOM      4  C   UNL     1       6.192  13.407  -9.709  0.00  0.00    +0.000 A 
ATOM      5  C   UNL     1       6.962  12.609 -10.628  0.00  0.00    +0.000 A 
ATOM      6  C   UNL     1       3.769  13.872  -5.373  0.00  0.00    +0.000 A 
ENDROOT
BRANCH   1   7
ATOM      7  C   UNL     1       4.884  11.635  -5.945  0.00  0.00    +0.000 C 
BRANCH   7  13
ATOM      8  C   UNL     1       8.707  11.491  -5.572  0.00  0.00    +0.000 C 
ATOM      9  C   UNL     1       8.863  11.478  -4.060  0.00  0.00    +0.000 C 
ATOM     10  C   UNL     1       7.762  11.516  -3.263  0.00  0.00    +0.000 C 
ATOM     11  C   UNL     1       6.376  11.570  -3.883  0.00  0.00    +0.000 C 
ATOM     12  O   UNL     1       5.346  11.606  -3.138  0.00  0.00    +0.000 OA
ATOM     13  N   UNL     1       6.224  11.583  -5.345  0.00  0.00    +0.000 N 
ATOM     14  C   UNL     1      10.249  11.423  -3.440  0.00  0.00    +0.000 C 
ATOM     15  O   UNL     1      11.278  11.389  -4.185  0.00  0.00    +0.000 OA
ATOM     16  C   UNL     1       7.917  11.503  -1.750  0.00  0.00    +0.000 C 
ENDBRANCH   7  13
ENDBRANCH   1   7
BRANCH   4  17
ATOM     17  C   UNL     1       5.847  14.846 -10.056  0.00  0.00    +0.000 C 
BRANCH  17  18
ATOM     18  C   UNL     1       7.115  15.686 -10.052  0.00  0.00    +0.000 C 
BRANCH  18  19
ATOM     19  O   UNL     1       7.517  15.929  -8.712  0.00  0.00    +0.000 OA
BRANCH  19  20
ATOM     20  C   UNL     1       8.696  15.324  -8.205  0.00  0.00    +0.000 A 
ATOM     21  C   UNL     1       8.797  15.009  -6.803  0.00  0.00    +0.000 A 
ATOM     22  C   UNL     1       7.702  15.309  -5.916  0.00  0.00    +0.000 A 
ATOM     23  C   UNL     1       7.804  14.994  -4.515  0.00  0.00    +0.000 A 
ATOM     24  C   UNL     1       6.709  15.294  -3.629  0.00  0.00    +0.000 A 
ATOM     25  C   UNL     1       9.792  15.024  -9.091  0.00  0.00    +0.000 A 
ENDBRANCH  19  20
ENDBRANCH  18  19
ENDBRANCH  17  18
ENDBRANCH   4  17
TORSDOF 6
ENDMDL
MODEL 5
REMARK VINA RESULT:     0.001      6.829      9.590
REMARK INTER + INTRA:          -2.778
REMARK INTER:                   0.000
REMARK INTRA:                  -2.778
REMARK UNBOUND:                -2.779
REMARK  Name = 
REMARK  8 active torsions:
REMARK  status: ('A' for Active; 'I' for Inactive)
REMARK    1  A    between atoms: C_1  and  C_2
REMARK    2  A    between atoms: C_3  and  C_25
REMARK    3  A    between atoms: N_6  and  C_9
REMARK    4  A    between atoms: C_9  and  C_10
REMARK    5  A    between atoms: C_13  and  C_16
REMARK    6  A    between atoms: C_16  and  C_17
REMARK    7  A    between atoms: C_17  and  O_18
REMARK    8  A    between atoms: O_18  and  C_19
REMARK                            x       y       z     vdW  Elec       q    Type
REMARK                         _______ _______ _______ _____ _____    ______ ____
ROOT
ATOM      1  C   UNL     1       7.512  11.438 -10.401  0.00  0.00    +0.000 A 
ATOM      2  C   UNL     1       8.420  12.051  -9.467  0.00  0.00    +0.000 A 
ATOM      3  C   UNL     1       8.780  11.362  -8.255  0.00  0.00    +0.000 A 
ATOM      4  C   UNL     1       9.689  11.975  -7.320  0.00  0.00    +0.000 A 
ATOM      5  C   UNL     1      10.048  11.286  -6.108  0.00  0.00    +0.000 A 
ATOM      6  C   UNL     1       7.152  12.127 -11.614  0.00  0.00    +0.000 A 
ENDROOT
BRANCH   1   7
ATOM      7  C   UNL     1       6.934  10.063 -10.109  0.00  0.00    +0.000 C 
BRANCH   7  13
ATOM      8  C   UNL     1       4.718  10.454  -6.992  0.00  0.00    +0.000 C 
ATOM      9  C   UNL     1       3.329  10.470  -7.609  0.00  0.00    +0.000 C 
ATOM     10  C   UNL     1       3.182  10.359  -8.956  0.00  0.00    +0.000 C 
ATOM     11  C   UNL     1       4.406  10.217  -9.845  0.00  0.00    +0.000 C 
ATOM     12  O   UNL     1       4.269  10.113 -11.105  0.00  0.00    +0.000 OA
ATOM     13  N   UNL     1       5.750  10.200  -9.249  0.00  0.00    +0.000 N 
ATOM     14  C   UNL     1       2.105  10.612  -6.719  0.00  0.00    +0.000 C 
ATOM     15  O   UNL     1       2.243  10.717  -5.461  0.00  0.00    +0.000 OA
ATOM     16  C   UNL     1       1.793  10.375  -9.573  0.00  0.00    +0.000 C 
ENDBRANCH   7  13
ENDBRANCH   1   7
BRANCH   4  17
ATOM     17  C   UNL     1      10.266  13.351  -7.613  0.00  0.00    +0.000 C 
BRANCH  17  18
ATOM     18  C   UNL     1       9.701  14.358  -6.624  0.00  0.00    +0.000 C 
BRANCH  18  19
ATOM     19  O   UNL     1       8.359  14.663  -6.973  0.00  0.00    +0.000 OA
BRANCH  19  20
ATOM     20  C   UNL     1       7.293  14.231  -6.141  0.00  0.00    +0.000 A 
ATOM     21  C   UNL     1       6.004  13.942  -6.715  0.00  0.00    +0.000 A 
ATOM     22  C   UNL     1       5.796  14.092  -8.132  0.00  0.00    +0.000 A 
ATOM     23  C   UNL     1       4.507  13.802  -8.704  0.00  0.00    +0.000 A 
ATOM     24  C   UNL     1       4.299  13.951 -10.122  0.00  0.00    +0.000 A 
ATOM     25  C   UNL     1       7.501  14.082  -4.723  0.00  0.00    +0.000 A 
ENDBRANCH  19  20
ENDBRANCH  18  19
ENDBRANCH  17  18
ENDBRANCH   4  17
TORSDOF 6
ENDMDL
