MODEL 1
REMARK VINA RESULT:    -0.000      0.000      0.000
REMARK INTER + INTRA:          -0.403
REMARK INTER:                   0.000
REMARK INTRA:                  -0.403
REMARK UNBOUND:                -0.403
REMARK  Name = 
REMARK  4 active torsions:
REMARK  status: ('A' for Active; 'I' for Inactive)
REMARK    1  A    between atoms: C_1  and  C_2
REMARK    2  A    between atoms: C_2  and  C_3
REMARK    3  A    between atoms: C_3  and  N_4
REMARK    4  A    between atoms: N_4  and  C_5
REMARK                            x       y       z     vdW  Elec       q    Type
REMARK                         _______ _______ _______ _____ _____    ______ ____
ROOT
ATOM      1  C   UNL     1       0.124  19.261  -3.130  0.00  0.00    +0.000 C 
ATOM      2  C   UNL     1      -0.307  22.769  -2.948  0.00  0.00    +0.000 C 
ATOM      3  C   UNL     1      -1.172  22.928  -4.188  0.00  0.00    +0.000 C 
ATOM      4  C   UNL     1      -2.176  21.788  -4.254  0.00  0.00    +0.000 A 
ATOM      5  C   UNL     1      -1.715  20.426  -4.323  0.00  0.00    +0.000 A 
ATOM      6  C   UNL     1      -0.225  20.127  -4.329  0.00  0.00    +0.000 C 
ATOM      7  S   UNL     1      -2.847  19.139  -4.397  0.00  0.00    +0.000 S 
ATOM      8  C   UNL     1      -4.529  19.476  -4.390  0.00  0.00    +0.000 A 
ATOM      9  N   UNL     1      -4.975  20.794  -4.323  0.00  0.00    +0.000 NA
ATOM     10  N   UNL     1      -5.499  18.375  -4.454  0.00  0.00    +0.000 N 
ATOM     11  H   UNL     1      -5.173  17.410  -4.503  0.00  0.00    +0.000 HD
ATOM     12  H   UNL     1      -6.500  18.575  -4.449  0.00  0.00    +0.000 HD
ENDROOT
BRANCH   1  13
ATOM     13  N   UNL     1      -0.629  18.000  -3.201  0.00  0.00    +0.000 NA
ATOM     14  H   UNL     1      -1.405  18.104  -3.853  0.00  0.00    +0.000 HD
BRANCH  13  15
ATOM     15  C   UNL     1       0.260  16.924  -3.664  0.00  0.00    +0.000 C 
BRANCH  15  17
ATOM     16  C   UNL     1      -0.223  16.805  -6.096  0.00  0.00    +0.000 C 
ATOM     17  C   UNL     1      -0.437  16.126  -4.753  0.00  0.00    +0.000 C 
ENDBRANCH  15  17
ENDBRANCH  13  15
ENDBRANCH   1  13
TORSDOF 3
ENDMDL
MODEL 2
REMARK VINA RESULT:    -0.000      5.876      7.782
REMARK INTER + INTRA:          -0.403
REMARK INTER:                   0.000
REMARK INTRA:                  -0.403
REMARK UNBOUND:                -0.403
REMARK  Name = 
REMARK  4 active torsions:
REMARK  status: ('A' for Active; 'I' for Inactive)
REMARK    1  A    between atoms: C_1  and  C_2
REMARK    2  A    between atoms: C_2  and  C_3
REMARK    3  A    between atoms: C_3  and  N_4
REMARK    4  A    between atoms: N_4  and  C_5
REMARK                            x       y       z     vdW  Elec       q    Type
REMARK                         _______ _______ _______ _____ _____    ______ ____
ROOT
ATOM      1  C   UNL     1       2.912  18.004  -7.517  0.00  0.00    +0.000 C 
ATOM      2  C   UNL     1      -0.331  17.409  -6.228  0.00  0.00    +0.000 C 
ATOM      3  C   UNL     1      -1.041  17.219  -7.558  0.00  0.00    +0.000 C 
ATOM      4  C   UNL     1      -0.160  16.405  -8.491  0.00  0.00    +0.000 A 
ATOM      5  C   UNL     1       1.143  16.894  -8.860  0.00  0.00    +0.000 A 
ATOM      6  C   UNL     1       1.638  18.225  -8.315  0.00  0.00    +0.000 C 
ATOM      7  S   UNL     1       2.139  15.976  -9.913  0.00  0.00    +0.000 S 
ATOM      8  C   UNL     1       1.582  14.475 -10.527  0.00  0.00    +0.000 A 
ATOM      9  N   UNL     1       0.321  14.002 -10.171  0.00  0.00    +0.000 NA
ATOM     10  N   UNL     1       2.434  13.688 -11.429  0.00  0.00    +0.000 N 
ATOM     11  H   UNL     1       3.356  14.035 -11.690  0.00  0.00    +0.000 HD
ATOM     12  H   UNL     1       2.102  12.796 -11.794  0.00  0.00    +0.000 HD
ENDROOT
BRANCH   1  13
ATOM     13  N   UNL     1       3.941  17.418  -8.388  0.00  0.00    +0.000 NA
ATOM     14  H   UNL     1       3.501  17.034  -9.223  0.00  0.00    +0.000 HD
BRANCH  13  15
ATOM     15  C   UNL     1       4.903  18.459  -8.777  0.00  0.00    +0.000 C 
BRANCH  15  17
ATOM     16  C   UNL     1       4.086  19.174 -11.009  0.00  0.00    +0.000 C 
ATOM     17  C   UNL     1       5.155  18.382 -10.274  0.00  0.00    +0.000 C 
ENDBRANCH  15  17
ENDBRANCH  13  15
ENDBRANCH   1  13
TORSDOF 3
ENDMDL
MODEL 3
REMARK VINA RESULT:    -0.000      3.919      6.487
REMARK INTER + INTRA:          -0.403
REMARK INTER:                   0.000
REMARK INTRA:                  -0.403
REMARK UNBOUND:                -0.403
REMARK  Name = 
REMARK  4 active torsions:
REMARK  status: ('A' for Active; 'I' for Inactive)
REMARK    1  A    between atoms: C_1  and  C_2
REMARK    2  A    between atoms: C_2  and  C_3
REMARK    3  A    between atoms: C_3  and  N_4
REMARK    4  A    between atoms: N_4  and  C_5
REMARK                            x       y       z     vdW  Elec       q    Type
REMARK                         _______ _______ _______ _____ _____    ______ ____
ROOT
ATOM      1  C   UNL     1       1.469  19.899  -3.351  0.00  0.00    +0.000 C 
ATOM      2  C   UNL     1       2.404  16.672  -4.465  0.00  0.00    +0.000 C 
ATOM      3  C   UNL     1       1.929  16.812  -5.902  0.00  0.00    +0.000 C 
ATOM      4  C   UNL     1       2.276  18.199  -6.417  0.00  0.00    +0.000 A 
ATOM      5  C   UNL     1       1.746  19.365  -5.760  0.00  0.00    +0.000 A 
ATOM      6  C   UNL     1       0.839  19.209  -4.550  0.00  0.00    +0.000 C 
ATOM      7  S   UNL     1       2.138  20.931  -6.341  0.00  0.00    +0.000 S 
ATOM      8  C   UNL     1       3.162  21.107  -7.705  0.00  0.00    +0.000 A 
ATOM      9  N   UNL     1       3.676  19.979  -8.342  0.00  0.00    +0.000 NA
ATOM     10  N   UNL     1       3.499  22.448  -8.204  0.00  0.00    +0.000 N 
ATOM     11  H   UNL     1       3.123  23.274  -7.738  0.00  0.00    +0.000 HD
ATOM     12  H   UNL     1       4.107  22.553  -9.015  0.00  0.00    +0.000 HD
ENDROOT
BRANCH   1  13
ATOM     13  N   UNL     1       1.650  21.327  -3.647  0.00  0.00    +0.000 NA
ATOM     14  H   UNL     1       1.588  21.477  -4.654  0.00  0.00    +0.000 HD
BRANCH  13  15
ATOM     15  C   UNL     1       0.602  22.105  -2.971  0.00  0.00    +0.000 C 
BRANCH  15  17
ATOM     16  C   UNL     1      -1.094  22.431  -4.753  0.00  0.00    +0.000 C 
ATOM     17  C   UNL     1       0.003  23.105  -3.946  0.00  0.00    +0.000 C 
ENDBRANCH  15  17
ENDBRANCH  13  15
ENDBRANCH   1  13
TORSDOF 3
ENDMDL
MODEL 4
REMARK VINA RESULT:    -0.000      9.472     10.296
REMARK INTER + INTRA:          -0.403
REMARK INTER:                   0.000
REMARK INTRA:                  -0.403
REMARK UNBOUND:                -0.403
REMARK  Name = 
REMARK  4 active torsions:
REMARK  status: ('A' for Active; 'I' for Inactive)
REMARK    1  A    between atoms: C_1  and  C_2
REMARK    2  A    between atoms: C_2  and  C_3
REMARK    3  A    between atoms: C_3  and  N_4
REMARK    4  A    between atoms: N_4  and  C_5
REMARK                            x       y       z     vdW  Elec       q    Type
REMARK                         _______ _______ _______ _____ _____    ______ ____
ROOT
ATOM      1  C   UNL     1      -3.442  12.714   3.371  0.00  0.00    +0.000 C 
ATOM      2  C   UNL     1      -1.469  15.372   2.116  0.00  0.00    +0.000 C 
ATOM      3  C   UNL     1      -2.607  16.323   1.780  0.00  0.00    +0.000 C 
ATOM      4  C   UNL     1      -3.651  16.273   2.884  0.00  0.00    +0.000 A 
ATOM      5  C   UNL     1      -4.314  15.032   3.192  0.00  0.00    +0.000 A 
ATOM      6  C   UNL     1      -3.969  13.772   2.415  0.00  0.00    +0.000 C 
ATOM      7  S   UNL     1      -5.492  14.974   4.438  0.00  0.00    +0.000 S 
ATOM      8  C   UNL     1      -5.881  16.396   5.315  0.00  0.00    +0.000 A 
ATOM      9  N   UNL     1      -5.240  17.596   5.017  0.00  0.00    +0.000 NA
ATOM     10  N   UNL     1      -6.891  16.348   6.382  0.00  0.00    +0.000 N 
ATOM     11  H   UNL     1      -7.360  15.469   6.600  0.00  0.00    +0.000 HD
ATOM     12  H   UNL     1      -7.122  17.193   6.904  0.00  0.00    +0.000 HD
ENDROOT
BRANCH   1  13
ATOM     13  N   UNL     1      -4.471  12.405   4.374  0.00  0.00    +0.000 NA
ATOM     14  H   UNL     1      -5.170  13.147   4.384  0.00  0.00    +0.000 HD
BRANCH  13  15
ATOM     15  C   UNL     1      -5.117  11.129   4.035  0.00  0.00    +0.000 C 
BRANCH  15  17
ATOM     16  C   UNL     1      -7.169  11.839   2.833  0.00  0.00    +0.000 C 
ATOM     17  C   UNL     1      -6.626  11.281   4.139  0.00  0.00    +0.000 C 
ENDBRANCH  15  17
ENDBRANCH  13  15
ENDBRANCH   1  13
TORSDOF 3
ENDMDL
MODEL 5
REMARK VINA RESULT:     0.000      3.581      5.290
REMARK INTER + INTRA:          -0.403
REMARK INTER:                   0.000
REMARK INTRA:                  -0.403
REMARK UNBOUND:                -0.403
REMARK  Name = 
REMARK  4 active torsions:
REMARK  status: ('A' for Active; 'I' for Inactive)
REMARK    1  A    between atoms: C_1  and  C_2
REMARK    2  A    between atoms: C_2  and  C_3
REMARK    3  A    between atoms: C_3  and  N_4
REMARK    4  A    between atoms: N_4  and  C_5
REMARK                            x       y       z     vdW  Elec       q    Type
REMARK                         _______ _______ _______ _____ _____    ______ ____
ROOT
ATOM      1  C   UNL     1       0.441  14.084  -2.718  0.00  0.00    +0.000 C 
ATOM      2  C   UNL     1       3.655  15.407  -2.049  0.00  0.00    +0.000 C 
ATOM      3  C   UNL     1       3.466  16.748  -2.740  0.00  0.00    +0.000 C 
ATOM      4  C   UNL     1       2.073  17.278  -2.443  0.00  0.00    +0.000 A 
ATOM      5  C   UNL     1       0.915  16.518  -2.835  0.00  0.00    +0.000 A 
ATOM      6  C   UNL     1       1.085  15.185  -3.545  0.00  0.00    +0.000 C 
ATOM      7  S   UNL     1      -0.658  17.116  -2.500  0.00  0.00    +0.000 S 
ATOM      8  C   UNL     1      -0.850  18.620  -1.699  0.00  0.00    +0.000 A 
ATOM      9  N   UNL     1       0.271  19.356  -1.320  0.00  0.00    +0.000 NA
ATOM     10  N   UNL     1      -2.197  19.133  -1.412  0.00  0.00    +0.000 N 
ATOM     11  H   UNL     1      -3.017  18.595  -1.690  0.00  0.00    +0.000 HD
ATOM     12  H   UNL     1      -2.311  20.028  -0.935  0.00  0.00    +0.000 HD
ENDROOT
BRANCH   1  13
ATOM     13  N   UNL     1      -0.991  14.370  -2.550  0.00  0.00    +0.000 NA
ATOM     14  H   UNL     1      -1.169  15.351  -2.766  0.00  0.00    +0.000 HD
BRANCH  13  15
ATOM     15  C   UNL     1      -1.770  13.519  -3.460  0.00  0.00    +0.000 C 
BRANCH  15  17
ATOM     16  C   UNL     1      -2.180  15.004  -5.406  0.00  0.00    +0.000 C 
ATOM     17  C   UNL     1      -2.809  14.365  -4.179  0.00  0.00    +0.000 C 
ENDBRANCH  15  17
ENDBRANCH  13  15
ENDBRANCH   1  13
TORSDOF 3
ENDMDL
