MODEL 1
REMARK VINA RESULT:     0.000      0.000      0.000
REMARK INTER + INTRA:          -0.366
REMARK INTER:                   0.000
REMARK INTRA:                  -0.366
REMARK UNBOUND:                -0.366
REMARK  Name = 
REMARK  2 active torsions:
REMARK  status: ('A' for Active; 'I' for Inactive)
REMARK    1  A    between atoms: C_1  and  C_2
REMARK    2  A    between atoms: C_3  and  C_4
REMARK                            x       y       z     vdW  Elec       q    Type
REMARK                         _______ _______ _______ _____ _____    ______ ____
ROOT
ATOM      1  C   UNL     1      -7.267  21.350  -3.401  0.00  0.00    +0.000 C 
ATOM      2  C   UNL     1      -7.283  17.809  -1.475  0.00  0.00    +0.000 C 
ATOM      3  C   UNL     1      -6.579  17.867  -2.821  0.00  0.00    +0.000 A 
ATOM      4  C   UNL     1      -6.889  18.921  -3.751  0.00  0.00    +0.000 A 
ATOM      5  C   UNL     1      -7.920  19.977  -3.387  0.00  0.00    +0.000 C 
ATOM      6  C   UNL     1      -6.222  18.977  -5.027  0.00  0.00    +0.000 A 
ATOM      7  C   UNL     1      -5.244  17.976  -5.371  0.00  0.00    +0.000 A 
ATOM      8  C   UNL     1      -4.934  16.921  -4.442  0.00  0.00    +0.000 A 
ATOM      9  C   UNL     1      -3.958  15.921  -4.787  0.00  0.00    +0.000 A 
ATOM     10  C   UNL     1      -4.577  18.031  -6.647  0.00  0.00    +0.000 A 
ATOM     11  C   UNL     1      -4.887  19.086  -7.576  0.00  0.00    +0.000 A 
ATOM     12  C   UNL     1      -4.220  19.142  -8.852  0.00  0.00    +0.000 A 
ATOM     13  C   UNL     1      -6.531  20.032  -5.956  0.00  0.00    +0.000 A 
ENDROOT
BRANCH   1  16
ATOM     14  C   UNL     1      -4.021  21.425  -0.515  0.00  0.00    +0.000 C 
ATOM     15  C   UNL     1      -5.157  21.401  -1.524  0.00  0.00    +0.000 C 
ATOM     16  C   UNL     1      -6.131  21.381  -2.391  0.00  0.00    +0.000 C 
ENDBRANCH   1  16
TORSDOF 1
ENDMDL
MODEL 2
REMARK VINA RESULT:     0.000     16.225     19.263
REMARK INTER + INTRA:          -0.366
REMARK INTER:                   0.000
REMARK INTRA:                  -0.366
REMARK UNBOUND:                -0.366
REMARK  Name = 
REMARK  2 active torsions:
REMARK  status: ('A' for Active; 'I' for Inactive)
REMARK    1  A    between atoms: C_1  and  C_2
REMARK    2  A    between atoms: C_3  and  C_4
REMARK                            x       y       z     vdW  Elec       q    Type
REMARK                         _______ _______ _______ _____ _____    ______ ____
ROOT
ATOM      1  C   UNL     1       7.272  10.666  -0.055  0.00  0.00    +0.000 C 
ATOM      2  C   UNL     1       9.843   8.011  -1.665  0.00  0.00    +0.000 C 
ATOM      3  C   UNL     1       9.681   7.995  -0.154  0.00  0.00    +0.000 A 
ATOM      4  C   UNL     1       9.149   9.148   0.526  0.00  0.00    +0.000 A 
ATOM      5  C   UNL     1       8.750  10.381  -0.269  0.00  0.00    +0.000 C 
ATOM      6  C   UNL     1       8.996   9.134   1.958  0.00  0.00    +0.000 A 
ATOM      7  C   UNL     1       9.374   7.965   2.710  0.00  0.00    +0.000 A 
ATOM      8  C   UNL     1       9.906   6.812   2.031  0.00  0.00    +0.000 A 
ATOM      9  C   UNL     1      10.284   5.644   2.784  0.00  0.00    +0.000 A 
ATOM     10  C   UNL     1       9.221   7.951   4.142  0.00  0.00    +0.000 A 
ATOM     11  C   UNL     1       8.689   9.104   4.821  0.00  0.00    +0.000 A 
ATOM     12  C   UNL     1       8.535   9.090   6.253  0.00  0.00    +0.000 A 
ATOM     13  C   UNL     1       8.464  10.287   2.637  0.00  0.00    +0.000 A 
ENDROOT
BRANCH   1  16
ATOM     14  C   UNL     1       4.945   7.251  -1.394  0.00  0.00    +0.000 C 
ATOM     15  C   UNL     1       5.757   8.447  -0.926  0.00  0.00    +0.000 C 
ATOM     16  C   UNL     1       6.454   9.474  -0.524  0.00  0.00    +0.000 C 
ENDBRANCH   1  16
TORSDOF 1
ENDMDL
MODEL 3
REMARK VINA RESULT:     0.000      5.875      8.304
REMARK INTER + INTRA:          -0.366
REMARK INTER:                   0.000
REMARK INTRA:                  -0.366
REMARK UNBOUND:                -0.366
REMARK  Name = 
REMARK  2 active torsions:
REMARK  status: ('A' for Active; 'I' for Inactive)
REMARK    1  A    between atoms: C_1  and  C_2
REMARK    2  A    between atoms: C_3  and  C_4
REMARK                            x       y       z     vdW  Elec       q    Type
REMARK                         _______ _______ _______ _____ _____    ______ ____
ROOT
ATOM      1  C   UNL     1      -2.828  15.993  -6.994  0.00  0.00    +0.000 C 
ATOM      2  C   UNL     1       0.936  14.749  -7.722  0.00  0.00    +0.000 C 
ATOM      3  C   UNL     1      -0.148  14.286  -8.681  0.00  0.00    +0.000 A 
ATOM      4  C   UNL     1      -1.529  14.307  -8.272  0.00  0.00    +0.000 A 
ATOM      5  C   UNL     1      -1.902  14.793  -6.881  0.00  0.00    +0.000 C 
ATOM      6  C   UNL     1      -2.557  13.868  -9.180  0.00  0.00    +0.000 A 
ATOM      7  C   UNL     1      -2.204  13.408 -10.499  0.00  0.00    +0.000 A 
ATOM      8  C   UNL     1      -0.824  13.386 -10.908  0.00  0.00    +0.000 A 
ATOM      9  C   UNL     1      -0.470  12.925 -12.226  0.00  0.00    +0.000 A 
ATOM     10  C   UNL     1      -3.232  12.969 -11.407  0.00  0.00    +0.000 A 
ATOM     11  C   UNL     1      -4.612  12.991 -10.998  0.00  0.00    +0.000 A 
ATOM     12  C   UNL     1      -5.640  12.553 -11.906  0.00  0.00    +0.000 A 
ATOM     13  C   UNL     1      -3.937  13.891  -8.771  0.00  0.00    +0.000 A 
ENDROOT
BRANCH   1  16
ATOM     14  C   UNL     1      -0.804  19.171  -9.156  0.00  0.00    +0.000 C 
ATOM     15  C   UNL     1      -1.513  18.061  -8.398  0.00  0.00    +0.000 C 
ATOM     16  C   UNL     1      -2.123  17.109  -7.749  0.00  0.00    +0.000 C 
ENDBRANCH   1  16
TORSDOF 1
ENDMDL
MODEL 4
REMARK VINA RESULT:     0.000     12.727     15.542
REMARK INTER + INTRA:          -0.366
REMARK INTER:                   0.000
REMARK INTRA:                  -0.366
REMARK UNBOUND:                -0.366
REMARK  Name = 
REMARK  2 active torsions:
REMARK  status: ('A' for Active; 'I' for Inactive)
REMARK    1  A    between atoms: C_1  and  C_2
REMARK    2  A    between atoms: C_3  and  C_4
REMARK                            x       y       z     vdW  Elec       q    Type
REMARK                         _______ _______ _______ _____ _____    ______ ____
ROOT
ATOM      1  C   UNL     1       0.948   9.943   4.737  0.00  0.00    +0.000 C 
ATOM      2  C   UNL     1       0.444   5.962   4.355  0.00  0.00    +0.000 C 
ATOM      3  C   UNL     1      -0.710   6.757   4.944  0.00  0.00    +0.000 A 
ATOM      4  C   UNL     1      -0.472   8.060   5.511  0.00  0.00    +0.000 A 
ATOM      5  C   UNL     1       0.932   8.640   5.518  0.00  0.00    +0.000 C 
ATOM      6  C   UNL     1      -1.565   8.813   6.070  0.00  0.00    +0.000 A 
ATOM      7  C   UNL     1      -2.897   8.264   6.062  0.00  0.00    +0.000 A 
ATOM      8  C   UNL     1      -3.135   6.961   5.496  0.00  0.00    +0.000 A 
ATOM      9  C   UNL     1      -4.466   6.411   5.488  0.00  0.00    +0.000 A 
ATOM     10  C   UNL     1      -3.990   9.017   6.621  0.00  0.00    +0.000 A 
ATOM     11  C   UNL     1      -3.751  10.320   7.186  0.00  0.00    +0.000 A 
ATOM     12  C   UNL     1      -4.844  11.073   7.745  0.00  0.00    +0.000 A 
ATOM     13  C   UNL     1      -1.327  10.116   6.635  0.00  0.00    +0.000 A 
ENDROOT
BRANCH   1  16
ATOM     14  C   UNL     1      -0.291   9.177   0.644  0.00  0.00    +0.000 C 
ATOM     15  C   UNL     1       0.144   9.447   2.075  0.00  0.00    +0.000 C 
ATOM     16  C   UNL     1       0.516   9.679   3.303  0.00  0.00    +0.000 C 
ENDBRANCH   1  16
TORSDOF 1
ENDMDL
MODEL 5
REMARK VINA RESULT:     0.000      7.363     10.560
REMARK INTER + INTRA:          -0.366
REMARK INTER:                   0.000
REMARK INTRA:                  -0.366
REMARK UNBOUND:                -0.366
REMARK  Name = 
REMARK  2 active torsions:
REMARK  status: ('A' for Active; 'I' for Inactive)
REMARK    1  A    between atoms: C_1  and  C_2
REMARK    2  A    between atoms: C_3  and  C_4
REMARK                            x       y       z     vdW  Elec       q    Type
REMARK                         _______ _______ _______ _____ _____    ______ ____
ROOT
ATOM      1  C   UNL     1       5.222  17.764  -9.196  0.00  0.00    +0.000 C 
ATOM      2  C   UNL     1       1.709  18.943 -10.784  0.00  0.00    +0.000 C 
ATOM      3  C   UNL     1       1.653  18.039  -9.563  0.00  0.00    +0.000 A 
ATOM      4  C   UNL     1       2.796  17.237  -9.208  0.00  0.00    +0.000 A 
ATOM      5  C   UNL     1       4.057  17.295 -10.053  0.00  0.00    +0.000 C 
ATOM      6  C   UNL     1       2.744  16.380  -8.051  0.00  0.00    +0.000 A 
ATOM      7  C   UNL     1       1.548  16.325  -7.249  0.00  0.00    +0.000 A 
ATOM      8  C   UNL     1       0.405  17.126  -7.604  0.00  0.00    +0.000 A 
ATOM      9  C   UNL     1      -0.790  17.071  -6.803  0.00  0.00    +0.000 A 
ATOM     10  C   UNL     1       1.496  15.469  -6.093  0.00  0.00    +0.000 A 
ATOM     11  C   UNL     1       2.638  14.668  -5.738  0.00  0.00    +0.000 A 
ATOM     12  C   UNL     1       2.586  13.811  -4.581  0.00  0.00    +0.000 A 
ATOM     13  C   UNL     1       3.886  15.579  -7.696  0.00  0.00    +0.000 A 
ENDROOT
BRANCH   1  16
ATOM     14  C   UNL     1       4.342  21.714  -7.616  0.00  0.00    +0.000 C 
ATOM     15  C   UNL     1       4.652  20.333  -8.169  0.00  0.00    +0.000 C 
ATOM     16  C   UNL     1       4.919  19.148  -8.643  0.00  0.00    +0.000 C 
ENDBRANCH   1  16
TORSDOF 1
ENDMDL
