MODEL 1
REMARK VINA RESULT:    -0.000      0.000      0.000
REMARK INTER + INTRA:          -0.424
REMARK INTER:                   0.000
REMARK INTRA:                  -0.424
REMARK UNBOUND:                -0.424
REMARK  Name = 
REMARK  5 active torsions:
REMARK  status: ('A' for Active; 'I' for Inactive)
REMARK    1  A    between atoms: C_3  and  O_17
REMARK    2  A    between atoms: C_6  and  C_7
REMARK    3  A    between atoms: C_8  and  C_9
REMARK    4  A    between atoms: C_11  and  O_16
REMARK    5  A    between atoms: C_13  and  O_15
REMARK                            x       y       z     vdW  Elec       q    Type
REMARK                         _______ _______ _______ _____ _____    ______ ____
ROOT
ATOM      1  C   UNL     1       0.517  19.457  -9.125  0.00  0.00    +0.000 C 
ATOM      2  C   UNL     1       1.649  19.254  -8.399  0.00  0.00    +0.000 C 
ENDROOT
BRANCH   1   8
ATOM      3  C   UNL     1       0.362  16.969  -9.722  0.00  0.00    +0.000 A 
ATOM      4  C   UNL     1      -0.368  15.844 -10.247  0.00  0.00    +0.000 A 
ATOM      5  C   UNL     1       0.247  14.542 -10.290  0.00  0.00    +0.000 A 
ATOM      6  C   UNL     1      -0.483  13.417 -10.814  0.00  0.00    +0.000 A 
ATOM      7  C   UNL     1       0.132  12.116 -10.857  0.00  0.00    +0.000 A 
ATOM      8  C   UNL     1      -0.254  18.270  -9.679  0.00  0.00    +0.000 A 
BRANCH   5   9
ATOM      9  O   UNL     1       1.574  14.369  -9.816  0.00  0.00    +0.000 OA
ATOM     10  H   UNL     1       2.333  14.838 -10.269  0.00  0.00    +0.000 HD
ENDBRANCH   5   9
ENDBRANCH   1   8
BRANCH   2  11
ATOM     11  C   UNL     1       2.420  20.442  -7.846  0.00  0.00    +0.000 A 
ATOM     12  C   UNL     1       3.860  20.448  -7.887  0.00  0.00    +0.000 A 
ATOM     13  C   UNL     1       4.569  19.328  -8.450  0.00  0.00    +0.000 A 
ATOM     14  C   UNL     1       6.008  19.334  -8.490  0.00  0.00    +0.000 A 
ATOM     15  C   UNL     1       6.718  18.214  -9.054  0.00  0.00    +0.000 A 
ATOM     16  C   UNL     1       1.711  21.561  -7.282  0.00  0.00    +0.000 A 
BRANCH  15  17
ATOM     17  O   UNL     1       5.997  17.104  -9.570  0.00  0.00    +0.000 OA
ATOM     18  H   UNL     1       5.041  17.211  -9.842  0.00  0.00    +0.000 HD
ENDBRANCH  15  17
BRANCH  13  19
ATOM     19  O   UNL     1       3.848  18.218  -8.965  0.00  0.00    +0.000 OA
ATOM     20  H   UNL     1       2.946  17.993  -8.597  0.00  0.00    +0.000 HD
ENDBRANCH  13  19
ENDBRANCH   2  11
TORSDOF 5
ENDMDL
MODEL 2
REMARK VINA RESULT:    -0.000      7.111     10.239
REMARK INTER + INTRA:          -0.424
REMARK INTER:                   0.000
REMARK INTRA:                  -0.424
REMARK UNBOUND:                -0.424
REMARK  Name = 
REMARK  5 active torsions:
REMARK  status: ('A' for Active; 'I' for Inactive)
REMARK    1  A    between atoms: C_3  and  O_17
REMARK    2  A    between atoms: C_6  and  C_7
REMARK    3  A    between atoms: C_8  and  C_9
REMARK    4  A    between atoms: C_11  and  O_16
REMARK    5  A    between atoms: C_13  and  O_15
REMARK                            x       y       z     vdW  Elec       q    Type
REMARK                         _______ _______ _______ _____ _____    ______ ____
ROOT
ATOM      1  C   UNL     1       0.492  22.791  -5.139  0.00  0.00    +0.000 C 
ATOM      2  C   UNL     1       0.950  23.816  -5.906  0.00  0.00    +0.000 C 
ENDROOT
BRANCH   1   8
ATOM      3  C   UNL     1       0.654  24.209  -3.010  0.00  0.00    +0.000 A 
ATOM      4  C   UNL     1       0.355  24.428  -1.618  0.00  0.00    +0.000 A 
ATOM      5  C   UNL     1       0.833  25.615  -0.957  0.00  0.00    +0.000 A 
ATOM      6  C   UNL     1       0.533  25.835   0.434  0.00  0.00    +0.000 A 
ATOM      7  C   UNL     1       1.010  27.022   1.095  0.00  0.00    +0.000 A 
ATOM      8  C   UNL     1       0.176  23.022  -3.671  0.00  0.00    +0.000 A 
BRANCH   5   9
ATOM      9  O   UNL     1       1.599  26.569  -1.677  0.00  0.00    +0.000 OA
ATOM     10  H   UNL     1       1.466  27.547  -1.510  0.00  0.00    +0.000 HD
ENDBRANCH   5   9
ENDBRANCH   1   8
BRANCH   2  11
ATOM     11  C   UNL     1       1.267  23.584  -7.375  0.00  0.00    +0.000 A 
ATOM     12  C   UNL     1       2.440  24.181  -7.962  0.00  0.00    +0.000 A 
ATOM     13  C   UNL     1       3.311  24.998  -7.158  0.00  0.00    +0.000 A 
ATOM     14  C   UNL     1       4.483  25.595  -7.744  0.00  0.00    +0.000 A 
ATOM     15  C   UNL     1       5.355  26.412  -6.940  0.00  0.00    +0.000 A 
ATOM     16  C   UNL     1       0.396  22.767  -8.179  0.00  0.00    +0.000 A 
BRANCH  15  17
ATOM     17  O   UNL     1       5.059  26.629  -5.568  0.00  0.00    +0.000 OA
ATOM     18  H   UNL     1       5.702  27.133  -4.991  0.00  0.00    +0.000 HD
ENDBRANCH  15  17
BRANCH  13  19
ATOM     19  O   UNL     1       3.014  25.215  -5.786  0.00  0.00    +0.000 OA
ATOM     20  H   UNL     1       2.647  26.097  -5.488  0.00  0.00    +0.000 HD
ENDBRANCH  13  19
ENDBRANCH   2  11
TORSDOF 5
ENDMDL
MODEL 3
REMARK VINA RESULT:    -0.000      8.246     10.844
REMARK INTER + INTRA:          -0.424
REMARK INTER:                   0.000
REMARK INTRA:                  -0.424
REMARK UNBOUND:                -0.424
REMARK  Name = 
REMARK  5 active torsions:
REMARK  status: ('A' for Active; 'I' for Inactive)
REMARK    1  A    between atoms: C_3  and  O_17
REMARK    2  A    between atoms: C_6  and  C_7
REMARK    3  A    between atoms: C_8  and  C_9
REMARK    4  A    between atoms: C_11  and  O_16
REMARK    5  A    between atoms: C_13  and  O_15
REMARK                            x       y       z     vdW  Elec       q    Type
REMARK                         _______ _______ _______ _____ _____    ______ ____
ROOT
ATOM      1  C   UNL     1      -0.699  19.624  -2.801  0.00  0.00    +0.000 C 
ATOM      2  C   UNL     1      -1.373  20.510  -2.021  0.00  0.00    +0.000 C 
ENDROOT
BRANCH   1   8
ATOM      3  C   UNL     1       1.560  20.634  -2.132  0.00  0.00    +0.000 A 
ATOM      4  C   UNL     1       2.998  20.577  -2.080  0.00  0.00    +0.000 A 
ATOM      5  C   UNL     1       3.740  21.648  -1.466  0.00  0.00    +0.000 A 
ATOM      6  C   UNL     1       5.178  21.590  -1.413  0.00  0.00    +0.000 A 
ATOM      7  C   UNL     1       5.920  22.661  -0.799  0.00  0.00    +0.000 A 
ATOM      8  C   UNL     1       0.819  19.563  -2.747  0.00  0.00    +0.000 A 
BRANCH   5   9
ATOM      9  O   UNL     1       3.053  22.760  -0.912  0.00  0.00    +0.000 OA
ATOM     10  H   UNL     1       2.842  22.781   0.066  0.00  0.00    +0.000 HD
ENDBRANCH   5   9
ENDBRANCH   1   8
BRANCH   2  11
ATOM     11  C   UNL     1      -2.891  20.571  -2.077  0.00  0.00    +0.000 A 
ATOM     12  C   UNL     1      -3.562  21.846  -2.056  0.00  0.00    +0.000 A 
ATOM     13  C   UNL     1      -2.795  23.062  -1.981  0.00  0.00    +0.000 A 
ATOM     14  C   UNL     1      -3.466  24.336  -1.959  0.00  0.00    +0.000 A 
ATOM     15  C   UNL     1      -2.698  25.553  -1.884  0.00  0.00    +0.000 A 
ATOM     16  C   UNL     1      -3.658  19.355  -2.152  0.00  0.00    +0.000 A 
BRANCH  15  17
ATOM     17  O   UNL     1      -1.280  25.496  -1.831  0.00  0.00    +0.000 OA
ATOM     18  H   UNL     1      -0.758  26.297  -1.536  0.00  0.00    +0.000 HD
ENDBRANCH  15  17
BRANCH  13  19
ATOM     19  O   UNL     1      -1.377  23.005  -1.927  0.00  0.00    +0.000 OA
ATOM     20  H   UNL     1      -0.923  22.208  -1.527  0.00  0.00    +0.000 HD
ENDBRANCH  13  19
ENDBRANCH   2  11
TORSDOF 5
ENDMDL
MODEL 4
REMARK VINA RESULT:    -0.000     10.135     11.667
REMARK INTER + INTRA:          -0.424
REMARK INTER:                   0.000
REMARK INTRA:                  -0.424
REMARK UNBOUND:                -0.424
REMARK  Name = 
REMARK  5 active torsions:
REMARK  status: ('A' for Active; 'I' for Inactive)
REMARK    1  A    between atoms: C_3  and  O_17
REMARK    2  A    between atoms: C_6  and  C_7
REMARK    3  A    between atoms: C_8  and  C_9
REMARK    4  A    between atoms: C_11  and  O_16
REMARK    5  A    between atoms: C_13  and  O_15
REMARK                            x       y       z     vdW  Elec       q    Type
REMARK                         _______ _______ _______ _____ _____    ______ ____
ROOT
ATOM      1  C   UNL     1       0.651  12.209  -1.901  0.00  0.00    +0.000 C 
ATOM      2  C   UNL     1       1.186  12.061  -0.659  0.00  0.00    +0.000 C 
ENDROOT
BRANCH   1   8
ATOM      3  C   UNL     1       1.663  14.553  -2.140  0.00  0.00    +0.000 A 
ATOM      4  C   UNL     1       2.012  15.697  -2.943  0.00  0.00    +0.000 A 
ATOM      5  C   UNL     1       2.654  16.833  -2.335  0.00  0.00    +0.000 A 
ATOM      6  C   UNL     1       3.004  17.977  -3.138  0.00  0.00    +0.000 A 
ATOM      7  C   UNL     1       3.647  19.113  -2.530  0.00  0.00    +0.000 A 
ATOM      8  C   UNL     1       1.020  13.416  -2.748  0.00  0.00    +0.000 A 
BRANCH   5   9
ATOM      9  O   UNL     1       2.943  16.827  -0.945  0.00  0.00    +0.000 OA
ATOM     10  H   UNL     1       2.340  16.341  -0.311  0.00  0.00    +0.000 HD
ENDBRANCH   5   9
ENDBRANCH   1   8
BRANCH   2  11
ATOM     11  C   UNL     1       0.816  10.854   0.189  0.00  0.00    +0.000 A 
ATOM     12  C   UNL     1       0.572  11.012   1.600  0.00  0.00    +0.000 A 
ATOM     13  C   UNL     1       0.680  12.313   2.208  0.00  0.00    +0.000 A 
ATOM     14  C   UNL     1       0.438  12.470   3.618  0.00  0.00    +0.000 A 
ATOM     15  C   UNL     1       0.546  13.772   4.227  0.00  0.00    +0.000 A 
ATOM     16  C   UNL     1       0.708   9.553  -0.419  0.00  0.00    +0.000 A 
BRANCH  15  17
ATOM     17  O   UNL     1       0.892  14.899   3.435  0.00  0.00    +0.000 OA
ATOM     18  H   UNL     1       0.239  15.648   3.318  0.00  0.00    +0.000 HD
ENDBRANCH  15  17
BRANCH  13  19
ATOM     19  O   UNL     1       1.027  13.440   1.416  0.00  0.00    +0.000 OA
ATOM     20  H   UNL     1       0.436  14.246   1.408  0.00  0.00    +0.000 HD
ENDBRANCH  13  19
ENDBRANCH   2  11
TORSDOF 5
ENDMDL
MODEL 5
REMARK VINA RESULT:     0.000      4.348      6.600
REMARK INTER + INTRA:          -0.424
REMARK INTER:                   0.000
REMARK INTRA:                  -0.424
REMARK UNBOUND:                -0.424
REMARK  Name = 
REMARK  5 active torsions:
REMARK  status: ('A' for Active; 'I' for Inactive)
REMARK    1  A    between atoms: C_3  and  O_17
REMARK    2  A    between atoms: C_6  and  C_7
REMARK    3  A    between atoms: C_8  and  C_9
REMARK    4  A    between atoms: C_11  and  O_16
REMARK    5  A    between atoms: C_13  and  O_15
REMARK                            x       y       z     vdW  Elec       q    Type
REMARK                         _______ _______ _______ _____ _____    ______ ____
ROOT
ATOM      1  C   UNL     1       6.251  18.628  -6.938  0.00  0.00    +0.000 C 
ATOM      2  C   UNL     1       6.008  19.144  -5.704  0.00  0.00    +0.000 C 
ENDROOT
BRANCH   1   8
ATOM      3  C   UNL     1       4.014  19.504  -7.831  0.00  0.00    +0.000 A 
ATOM      4  C   UNL     1       3.125  19.802  -8.924  0.00  0.00    +0.000 A 
ATOM      5  C   UNL     1       1.825  20.364  -8.663  0.00  0.00    +0.000 A 
ATOM      6  C   UNL     1       0.936  20.663  -9.756  0.00  0.00    +0.000 A 
ATOM      7  C   UNL     1      -0.364  21.225  -9.495  0.00  0.00    +0.000 A 
ATOM      8  C   UNL     1       5.314  18.942  -8.092  0.00  0.00    +0.000 A 
BRANCH   5   9
ATOM      9  O   UNL     1       1.419  20.624  -7.327  0.00  0.00    +0.000 OA
ATOM     10  H   UNL     1       0.585  21.147  -7.151  0.00  0.00    +0.000 HD
ENDBRANCH   5   9
ENDBRANCH   1   8
BRANCH   2  11
ATOM     11  C   UNL     1       6.945  18.828  -4.549  0.00  0.00    +0.000 A 
ATOM     12  C   UNL     1       6.409  18.546  -3.242  0.00  0.00    +0.000 A 
ATOM     13  C   UNL     1       4.985  18.565  -3.029  0.00  0.00    +0.000 A 
ATOM     14  C   UNL     1       4.450  18.284  -1.722  0.00  0.00    +0.000 A 
ATOM     15  C   UNL     1       3.025  18.303  -1.508  0.00  0.00    +0.000 A 
ATOM     16  C   UNL     1       8.369  18.810  -4.763  0.00  0.00    +0.000 A 
BRANCH  15  17
ATOM     17  O   UNL     1       2.149  18.598  -2.587  0.00  0.00    +0.000 OA
ATOM     18  H   UNL     1       1.383  17.988  -2.790  0.00  0.00    +0.000 HD
ENDBRANCH  15  17
BRANCH  13  19
ATOM     19  O   UNL     1       4.110  18.861  -4.107  0.00  0.00    +0.000 OA
ATOM     20  H   UNL     1       4.444  18.820  -5.049  0.00  0.00    +0.000 HD
ENDBRANCH  13  19
ENDBRANCH   2  11
TORSDOF 5
ENDMDL
