MODEL 1
REMARK VINA RESULT:    -0.000      0.000      0.000
REMARK INTER + INTRA:          -1.368
REMARK INTER:                   0.000
REMARK INTRA:                  -1.368
REMARK UNBOUND:                -1.367
REMARK  Name = 
REMARK  11 active torsions:
REMARK  status: ('A' for Active; 'I' for Inactive)
REMARK    1  A    between atoms: C_1  and  C_2
REMARK    2  A    between atoms: C_7  and  C_8
REMARK    3  A    between atoms: N_9  and  C_15
REMARK    4  A    between atoms: C_15  and  C_16
REMARK    5  A    between atoms: C_16  and  C_17
REMARK    6  A    between atoms: C_16  and  O_23
REMARK    7  A    between atoms: C_17  and  C_18
REMARK    8  A    between atoms: C_17  and  O_22
REMARK    9  A    between atoms: C_18  and  C_19
REMARK   10  A    between atoms: C_18  and  O_21
REMARK   11  A    between atoms: C_19  and  O_20
REMARK                            x       y       z     vdW  Elec       q    Type
REMARK                         _______ _______ _______ _____ _____    ______ ____
ROOT
ATOM      1  C   UNL     1       2.050  12.159   4.112  0.00  0.00    +0.000 C 
ATOM      2  C   UNL     1       1.175  13.348   4.471  0.00  0.00    +0.000 A 
ATOM      3  C   UNL     1       0.952  14.395   3.508  0.00  0.00    +0.000 A 
ATOM      4  C   UNL     1       1.559  14.315   2.204  0.00  0.00    +0.000 A 
ATOM      5  C   UNL     1       2.389  13.188   1.864  0.00  0.00    +0.000 A 
ATOM      6  C   UNL     1       2.611  12.141   2.828  0.00  0.00    +0.000 A 
ATOM      7  C   UNL     1       0.567  13.428   5.775  0.00  0.00    +0.000 A 
ATOM      8  C   UNL     1       0.802  12.323   6.792  0.00  0.00    +0.000 C 
ATOM      9  N   UNL     1       2.976  13.111   0.604  0.00  0.00    +0.000 N 
ATOM     10  C   UNL     1       2.761  14.124  -0.328  0.00  0.00    +0.000 A 
ATOM     11  O   UNL     1       3.297  14.053  -1.479  0.00  0.00    +0.000 OA
ATOM     12  N   UNL     1       1.959  15.213   0.001  0.00  0.00    +0.000 N 
ATOM     13  C   UNL     1       1.337  15.363   1.241  0.00  0.00    +0.000 A 
ATOM     14  O   UNL     1       0.606  16.357   1.541  0.00  0.00    +0.000 OA
ATOM     15  H   UNL     1       1.802  15.955  -0.681  0.00  0.00    +0.000 HD
ENDROOT
BRANCH   9  16
ATOM     16  C   UNL     1       3.822  11.960   0.257  0.00  0.00    +0.000 C 
BRANCH  16  17
ATOM     17  C   UNL     1       2.983  10.908  -0.450  0.00  0.00    +0.000 C 
BRANCH  17  18
ATOM     18  O   UNL     1       2.974   9.715   0.320  0.00  0.00    +0.000 OA
ATOM     19  H   UNL     1       2.259   9.105  -0.019  0.00  0.00    +0.000 HD
ENDBRANCH  17  18
BRANCH  17  20
ATOM     20  C   UNL     1       3.576  10.624  -1.820  0.00  0.00    +0.000 C 
BRANCH  20  21
ATOM     21  O   UNL     1       4.731  11.430  -2.011  0.00  0.00    +0.000 OA
ATOM     22  H   UNL     1       5.212  11.534  -1.141  0.00  0.00    +0.000 HD
ENDBRANCH  20  21
BRANCH  20  23
ATOM     23  C   UNL     1       2.550  10.946  -2.893  0.00  0.00    +0.000 C 
BRANCH  23  24
ATOM     24  O   UNL     1       2.988  12.068  -3.646  0.00  0.00    +0.000 OA
ATOM     25  H   UNL     1       2.989  11.837  -4.618  0.00  0.00    +0.000 HD
ENDBRANCH  23  24
BRANCH  23  26
ATOM     26  C   UNL     1       1.215  11.264  -2.239  0.00  0.00    +0.000 C 
BRANCH  26  27
ATOM     27  O   UNL     1       0.787  12.557  -2.642  0.00  0.00    +0.000 OA
ATOM     28  H   UNL     1      -0.200  12.545  -2.803  0.00  0.00    +0.000 HD
ENDBRANCH  26  27
ENDBRANCH  23  26
ENDBRANCH  20  23
ENDBRANCH  17  20
ENDBRANCH  16  17
ENDBRANCH   9  16
TORSDOF 9
ENDMDL
MODEL 2
REMARK VINA RESULT:    -0.000      5.995      9.325
REMARK INTER + INTRA:          -1.368
REMARK INTER:                   0.000
REMARK INTRA:                  -1.368
REMARK UNBOUND:                -1.367
REMARK  Name = 
REMARK  11 active torsions:
REMARK  status: ('A' for Active; 'I' for Inactive)
REMARK    1  A    between atoms: C_1  and  C_2
REMARK    2  A    between atoms: C_7  and  C_8
REMARK    3  A    between atoms: N_9  and  C_15
REMARK    4  A    between atoms: C_15  and  C_16
REMARK    5  A    between atoms: C_16  and  C_17
REMARK    6  A    between atoms: C_16  and  O_23
REMARK    7  A    between atoms: C_17  and  C_18
REMARK    8  A    between atoms: C_17  and  O_22
REMARK    9  A    between atoms: C_18  and  C_19
REMARK   10  A    between atoms: C_18  and  O_21
REMARK   11  A    between atoms: C_19  and  O_20
REMARK                            x       y       z     vdW  Elec       q    Type
REMARK                         _______ _______ _______ _____ _____    ______ ____
ROOT
ATOM      1  C   UNL     1       1.482  17.339   2.994  0.00  0.00    +0.000 C 
ATOM      2  C   UNL     1       1.993  16.534   1.811  0.00  0.00    +0.000 A 
ATOM      3  C   UNL     1       2.489  17.211   0.640  0.00  0.00    +0.000 A 
ATOM      4  C   UNL     1       2.501  18.650   0.592  0.00  0.00    +0.000 A 
ATOM      5  C   UNL     1       2.017  19.413   1.713  0.00  0.00    +0.000 A 
ATOM      6  C   UNL     1       1.521  18.736   2.884  0.00  0.00    +0.000 A 
ATOM      7  C   UNL     1       1.982  15.094   1.860  0.00  0.00    +0.000 A 
ATOM      8  C   UNL     1       1.458  14.380   3.095  0.00  0.00    +0.000 C 
ATOM      9  N   UNL     1       2.028  20.804   1.666  0.00  0.00    +0.000 N 
ATOM     10  C   UNL     1       2.508  21.459   0.534  0.00  0.00    +0.000 A 
ATOM     11  O   UNL     1       2.519  22.730   0.491  0.00  0.00    +0.000 OA
ATOM     12  N   UNL     1       2.976  20.722  -0.550  0.00  0.00    +0.000 N 
ATOM     13  C   UNL     1       2.996  19.327  -0.580  0.00  0.00    +0.000 A 
ATOM     14  O   UNL     1       3.423  18.655  -1.569  0.00  0.00    +0.000 OA
ATOM     15  H   UNL     1       3.327  21.201  -1.380  0.00  0.00    +0.000 HD
ENDROOT
BRANCH   9  16
ATOM     16  C   UNL     1       1.534  21.582   2.811  0.00  0.00    +0.000 C 
BRANCH  16  17
ATOM     17  C   UNL     1       2.700  21.948   3.716  0.00  0.00    +0.000 C 
BRANCH  17  18
ATOM     18  O   UNL     1       2.510  21.359   4.993  0.00  0.00    +0.000 OA
ATOM     19  H   UNL     1       1.544  21.416   5.247  0.00  0.00    +0.000 HD
ENDBRANCH  17  18
BRANCH  17  20
ATOM     20  C   UNL     1       2.773  23.459   3.860  0.00  0.00    +0.000 C 
BRANCH  20  21
ATOM     21  O   UNL     1       1.730  24.057   3.105  0.00  0.00    +0.000 OA
ATOM     22  H   UNL     1       1.837  25.051   3.119  0.00  0.00    +0.000 HD
ENDBRANCH  20  21
BRANCH  20  23
ATOM     23  C   UNL     1       4.117  23.952   3.348  0.00  0.00    +0.000 C 
BRANCH  23  24
ATOM     24  O   UNL     1       3.921  24.718   2.169  0.00  0.00    +0.000 OA
ATOM     25  H   UNL     1       2.984  25.064   2.147  0.00  0.00    +0.000 HD
ENDBRANCH  23  24
BRANCH  23  26
ATOM     26  C   UNL     1       5.009  22.761   3.038  0.00  0.00    +0.000 C 
BRANCH  26  27
ATOM     27  O   UNL     1       5.427  22.824   1.682  0.00  0.00    +0.000 OA
ATOM     28  H   UNL     1       4.626  22.907   1.090  0.00  0.00    +0.000 HD
ENDBRANCH  26  27
ENDBRANCH  23  26
ENDBRANCH  20  23
ENDBRANCH  17  20
ENDBRANCH  16  17
ENDBRANCH   9  16
TORSDOF 9
ENDMDL
MODEL 3
REMARK VINA RESULT:    -0.000      7.718     10.103
REMARK INTER + INTRA:          -1.368
REMARK INTER:                   0.000
REMARK INTRA:                  -1.368
REMARK UNBOUND:                -1.367
REMARK  Name = 
REMARK  11 active torsions:
REMARK  status: ('A' for Active; 'I' for Inactive)
REMARK    1  A    between atoms: C_1  and  C_2
REMARK    2  A    between atoms: C_7  and  C_8
REMARK    3  A    between atoms: N_9  and  C_15
REMARK    4  A    between atoms: C_15  and  C_16
REMARK    5  A    between atoms: C_16  and  C_17
REMARK    6  A    between atoms: C_16  and  O_23
REMARK    7  A    between atoms: C_17  and  C_18
REMARK    8  A    between atoms: C_17  and  O_22
REMARK    9  A    between atoms: C_18  and  C_19
REMARK   10  A    between atoms: C_18  and  O_21
REMARK   11  A    between atoms: C_19  and  O_20
REMARK                            x       y       z     vdW  Elec       q    Type
REMARK                         _______ _______ _______ _____ _____    ______ ____
ROOT
ATOM      1  C   UNL     1       6.130  16.252  -4.099  0.00  0.00    +0.000 C 
ATOM      2  C   UNL     1       4.955  15.309  -4.291  0.00  0.00    +0.000 A 
ATOM      3  C   UNL     1       3.650  15.836  -4.595  0.00  0.00    +0.000 A 
ATOM      4  C   UNL     1       3.458  17.258  -4.718  0.00  0.00    +0.000 A 
ATOM      5  C   UNL     1       4.572  18.153  -4.536  0.00  0.00    +0.000 A 
ATOM      6  C   UNL     1       5.878  17.625  -4.233  0.00  0.00    +0.000 A 
ATOM      7  C   UNL     1       5.146  13.886  -4.169  0.00  0.00    +0.000 A 
ATOM      8  C   UNL     1       6.524  13.329  -3.847  0.00  0.00    +0.000 C 
ATOM      9  N   UNL     1       4.387  19.528  -4.654  0.00  0.00    +0.000 N 
ATOM     10  C   UNL     1       3.125  20.038  -4.949  0.00  0.00    +0.000 A 
ATOM     11  O   UNL     1       2.956  21.293  -5.057  0.00  0.00    +0.000 OA
ATOM     12  N   UNL     1       2.048  19.173  -5.124  0.00  0.00    +0.000 N 
ATOM     13  C   UNL     1       2.152  17.785  -5.021  0.00  0.00    +0.000 A 
ATOM     14  O   UNL     1       1.170  16.996  -5.181  0.00  0.00    +0.000 OA
ATOM     15  H   UNL     1       1.123  19.547  -5.339  0.00  0.00    +0.000 HD
ENDROOT
BRANCH   9  16
ATOM     16  C   UNL     1       5.524  20.440  -4.469  0.00  0.00    +0.000 C 
BRANCH  16  17
ATOM     17  C   UNL     1       6.146  20.756  -5.820  0.00  0.00    +0.000 C 
BRANCH  17  18
ATOM     18  O   UNL     1       7.487  20.293  -5.843  0.00  0.00    +0.000 OA
ATOM     19  H   UNL     1       7.763  20.023  -4.921  0.00  0.00    +0.000 HD
ENDBRANCH  17  18
BRANCH  17  20
ATOM     20  C   UNL     1       6.124  22.258  -6.048  0.00  0.00    +0.000 C 
BRANCH  20  21
ATOM     21  O   UNL     1       5.530  22.898  -4.927  0.00  0.00    +0.000 OA
ATOM     22  H   UNL     1       5.290  23.838  -5.169  0.00  0.00    +0.000 HD
ENDBRANCH  20  21
BRANCH  20  23
ATOM     23  C   UNL     1       5.315  22.570  -7.297  0.00  0.00    +0.000 C 
BRANCH  23  24
ATOM     24  O   UNL     1       4.126  23.255  -6.931  0.00  0.00    +0.000 OA
ATOM     25  H   UNL     1       3.836  23.845  -7.684  0.00  0.00    +0.000 HD
ENDBRANCH  23  24
BRANCH  23  26
ATOM     26  C   UNL     1       4.956  21.273  -8.004  0.00  0.00    +0.000 C 
BRANCH  26  27
ATOM     27  O   UNL     1       3.545  21.185  -8.144  0.00  0.00    +0.000 OA
ATOM     28  H   UNL     1       3.283  21.482  -9.062  0.00  0.00    +0.000 HD
ENDBRANCH  26  27
ENDBRANCH  23  26
ENDBRANCH  20  23
ENDBRANCH  17  20
ENDBRANCH  16  17
ENDBRANCH   9  16
TORSDOF 9
ENDMDL
MODEL 4
REMARK VINA RESULT:     0.000     13.586     14.759
REMARK INTER + INTRA:          -1.367
REMARK INTER:                   0.000
REMARK INTRA:                  -1.367
REMARK UNBOUND:                -1.367
REMARK  Name = 
REMARK  11 active torsions:
REMARK  status: ('A' for Active; 'I' for Inactive)
REMARK    1  A    between atoms: C_1  and  C_2
REMARK    2  A    between atoms: C_7  and  C_8
REMARK    3  A    between atoms: N_9  and  C_15
REMARK    4  A    between atoms: C_15  and  C_16
REMARK    5  A    between atoms: C_16  and  C_17
REMARK    6  A    between atoms: C_16  and  O_23
REMARK    7  A    between atoms: C_17  and  C_18
REMARK    8  A    between atoms: C_17  and  O_22
REMARK    9  A    between atoms: C_18  and  C_19
REMARK   10  A    between atoms: C_18  and  O_21
REMARK   11  A    between atoms: C_19  and  O_20
REMARK                            x       y       z     vdW  Elec       q    Type
REMARK                         _______ _______ _______ _____ _____    ______ ____
ROOT
ATOM      1  C   UNL     1      12.693  16.884  -7.197  0.00  0.00    +0.000 C 
ATOM      2  C   UNL     1      13.039  18.327  -6.873  0.00  0.00    +0.000 A 
ATOM      3  C   UNL     1      12.735  19.371  -7.818  0.00  0.00    +0.000 A 
ATOM      4  C   UNL     1      12.102  19.045  -9.070  0.00  0.00    +0.000 A 
ATOM      5  C   UNL     1      11.774  17.677  -9.378  0.00  0.00    +0.000 A 
ATOM      6  C   UNL     1      12.079  16.634  -8.432  0.00  0.00    +0.000 A 
ATOM      7  C   UNL     1      13.671  18.653  -5.620  0.00  0.00    +0.000 A 
ATOM      8  C   UNL     1      13.993  17.552  -4.623  0.00  0.00    +0.000 C 
ATOM      9  N   UNL     1      11.163  17.362 -10.589  0.00  0.00    +0.000 N 
ATOM     10  C   UNL     1      10.869  18.371 -11.503  0.00  0.00    +0.000 A 
ATOM     11  O   UNL     1      10.310  18.084 -12.608  0.00  0.00    +0.000 OA
ATOM     12  N   UNL     1      11.186  19.694 -11.206  0.00  0.00    +0.000 N 
ATOM     13  C   UNL     1      11.799  20.089 -10.016  0.00  0.00    +0.000 A 
ATOM     14  O   UNL     1      12.088  21.296  -9.746  0.00  0.00    +0.000 OA
ATOM     15  H   UNL     1      10.971  20.433 -11.876  0.00  0.00    +0.000 HD
ENDROOT
BRANCH   9  16
ATOM     16  C   UNL     1      10.828  15.966 -10.902  0.00  0.00    +0.000 C 
BRANCH  16  17
ATOM     17  C   UNL     1       9.389  15.687 -10.498  0.00  0.00    +0.000 C 
BRANCH  17  18
ATOM     18  O   UNL     1       9.366  14.682  -9.496  0.00  0.00    +0.000 OA
ATOM     19  H   UNL     1       8.691  13.984  -9.739  0.00  0.00    +0.000 HD
ENDBRANCH  17  18
BRANCH  17  20
ATOM     20  C   UNL     1       8.607  15.212 -11.712  0.00  0.00    +0.000 C 
BRANCH  20  21
ATOM     21  O   UNL     1       9.466  15.177 -12.844  0.00  0.00    +0.000 OA
ATOM     22  H   UNL     1      10.006  16.017 -12.878  0.00  0.00    +0.000 HD
ENDBRANCH  20  21
BRANCH  20  23
ATOM     23  C   UNL     1       7.457  16.169 -11.979  0.00  0.00    +0.000 C 
BRANCH  23  24
ATOM     24  O   UNL     1       7.688  16.859 -13.198  0.00  0.00    +0.000 OA
ATOM     25  H   UNL     1       8.069  17.761 -13.003  0.00  0.00    +0.000 HD
ENDBRANCH  23  24
BRANCH  23  26
ATOM     26  C   UNL     1       7.356  17.171 -10.840  0.00  0.00    +0.000 C 
BRANCH  26  27
ATOM     27  O   UNL     1       7.452  18.489 -11.360  0.00  0.00    +0.000 OA
ATOM     28  H   UNL     1       8.402  18.680 -11.608  0.00  0.00    +0.000 HD
ENDBRANCH  26  27
ENDBRANCH  23  26
ENDBRANCH  20  23
ENDBRANCH  17  20
ENDBRANCH  16  17
ENDBRANCH   9  16
TORSDOF 9
ENDMDL
MODEL 5
REMARK VINA RESULT:     0.000      5.472      7.466
REMARK INTER + INTRA:          -1.367
REMARK INTER:                   0.000
REMARK INTRA:                  -1.367
REMARK UNBOUND:                -1.367
REMARK  Name = 
REMARK  11 active torsions:
REMARK  status: ('A' for Active; 'I' for Inactive)
REMARK    1  A    between atoms: C_1  and  C_2
REMARK    2  A    between atoms: C_7  and  C_8
REMARK    3  A    between atoms: N_9  and  C_15
REMARK    4  A    between atoms: C_15  and  C_16
REMARK    5  A    between atoms: C_16  and  C_17
REMARK    6  A    between atoms: C_16  and  O_23
REMARK    7  A    between atoms: C_17  and  C_18
REMARK    8  A    between atoms: C_17  and  O_22
REMARK    9  A    between atoms: C_18  and  C_19
REMARK   10  A    between atoms: C_18  and  O_21
REMARK   11  A    between atoms: C_19  and  O_20
REMARK                            x       y       z     vdW  Elec       q    Type
REMARK                         _______ _______ _______ _____ _____    ______ ____
ROOT
ATOM      1  C   UNL     1       5.232  12.687  -1.758  0.00  0.00    +0.000 C 
ATOM      2  C   UNL     1       4.230  12.465  -0.638  0.00  0.00    +0.000 A 
ATOM      3  C   UNL     1       4.589  12.775   0.722  0.00  0.00    +0.000 A 
ATOM      4  C   UNL     1       5.898  13.296   1.020  0.00  0.00    +0.000 A 
ATOM      5  C   UNL     1       6.848  13.507  -0.041  0.00  0.00    +0.000 A 
ATOM      6  C   UNL     1       6.489  13.197  -1.402  0.00  0.00    +0.000 A 
ATOM      7  C   UNL     1       2.920  11.944  -0.936  0.00  0.00    +0.000 A 
ATOM      8  C   UNL     1       2.542  11.616  -2.371  0.00  0.00    +0.000 C 
ATOM      9  N   UNL     1       8.114  14.010   0.246  0.00  0.00    +0.000 N 
ATOM     10  C   UNL     1       8.461  14.311   1.562  0.00  0.00    +0.000 A 
ATOM     11  O   UNL     1       9.617  14.771   1.825  0.00  0.00    +0.000 OA
ATOM     12  N   UNL     1       7.543  14.106   2.588  0.00  0.00    +0.000 N 
ATOM     13  C   UNL     1       6.257  13.605   2.380  0.00  0.00    +0.000 A 
ATOM     14  O   UNL     1       5.420  13.419   3.317  0.00  0.00    +0.000 OA
ATOM     15  H   UNL     1       7.798  14.325   3.551  0.00  0.00    +0.000 HD
ENDROOT
BRANCH   9  16
ATOM     16  C   UNL     1       9.083  14.226  -0.837  0.00  0.00    +0.000 C 
BRANCH  16  17
ATOM     17  C   UNL     1       8.997  15.667  -1.315  0.00  0.00    +0.000 C 
BRANCH  17  18
ATOM     18  O   UNL     1       8.601  15.690  -2.678  0.00  0.00    +0.000 OA
ATOM     19  H   UNL     1       7.646  15.403  -2.753  0.00  0.00    +0.000 HD
ENDBRANCH  17  18
BRANCH  17  20
ATOM     20  C   UNL     1      10.357  16.330  -1.170  0.00  0.00    +0.000 C 
BRANCH  20  21
ATOM     21  O   UNL     1      11.284  15.395  -0.635  0.00  0.00    +0.000 OA
ATOM     22  H   UNL     1      12.120  15.873  -0.367  0.00  0.00    +0.000 HD
ENDBRANCH  20  21
BRANCH  20  23
ATOM     23  C   UNL     1      10.243  17.523  -0.236  0.00  0.00    +0.000 C 
BRANCH  23  24
ATOM     24  O   UNL     1      10.960  17.257   0.960  0.00  0.00    +0.000 OA
ATOM     25  H   UNL     1      10.960  18.073   1.537  0.00  0.00    +0.000 HD
ENDBRANCH  23  24
BRANCH  23  26
ATOM     26  C   UNL     1       8.779  17.769   0.094  0.00  0.00    +0.000 C 
BRANCH  26  27
ATOM     27  O   UNL     1       8.599  17.728   1.502  0.00  0.00    +0.000 OA
ATOM     28  H   UNL     1       8.126  16.884   1.752  0.00  0.00    +0.000 HD
ENDBRANCH  26  27
ENDBRANCH  23  26
ENDBRANCH  20  23
ENDBRANCH  17  20
ENDBRANCH  16  17
ENDBRANCH   9  16
TORSDOF 9
ENDMDL
