REMARK  Name = 
REMARK  11 active torsions:
REMARK  status: ('A' for Active; 'I' for Inactive)
REMARK    1  A    between atoms: C_1  and  C_2
REMARK    2  A    between atoms: C_2  and  C_3
REMARK    3  A    between atoms: C_3  and  C_23
REMARK    4  A    between atoms: C_4  and  C_5
REMARK    5  A    between atoms: C_4  and  C_11
REMARK    6  A    between atoms: C_14  and  O_17
REMARK    7  A    between atoms: O_17  and  C_18
REMARK    8  A    between atoms: C_18  and  C_19
REMARK    9  A    between atoms: C_19  and  N_20
REMARK   10  A    between atoms: N_20  and  C_21
REMARK   11  A    between atoms: N_20  and  C_22
REMARK                            x       y       z     vdW  Elec       q    Type
REMARK                         _______ _______ _______ _____ _____    ______ ____
ROOT
ATOM      1  C   UNL     1       1.095  -1.808   1.671  0.00  0.00    +0.000 C 
ATOM      2  C   UNL     1       0.211  -2.105   2.661  0.00  0.00    +0.000 C 
ENDROOT
BRANCH   2   3
ATOM      3  C   UNL     1      -1.284  -2.025   2.395  0.00  0.00    +0.000 A 
ATOM      4  C   UNL     1      -1.764  -1.635   1.095  0.00  0.00    +0.000 A 
ATOM      5  C   UNL     1      -0.828  -1.321   0.046  0.00  0.00    +0.000 A 
ATOM      6  C   UNL     1      -1.308  -0.931  -1.255  0.00  0.00    +0.000 A 
ATOM      7  C   UNL     1      -0.372  -0.617  -2.303  0.00  0.00    +0.000 A 
ATOM      8  C   UNL     1      -2.220  -2.339   3.444  0.00  0.00    +0.000 A 
ENDBRANCH   2   3
BRANCH   2   9
ATOM      9  C   UNL     1       0.717  -2.516   4.034  0.00  0.00    +0.000 A 
ATOM     10  C   UNL     1      -0.218  -2.830   5.083  0.00  0.00    +0.000 A 
ATOM     11  C   UNL     1      -1.634  -2.755   4.831  0.00  0.00    +0.000 A 
ATOM     12  C   UNL     1      -2.570  -3.069   5.879  0.00  0.00    +0.000 A 
ATOM     13  C   UNL     1      -3.986  -2.993   5.627  0.00  0.00    +0.000 A 
ATOM     14  C   UNL     1       2.133  -2.592   4.286  0.00  0.00    +0.000 A 
BRANCH  12  15
ATOM     15  O   UNL     1      -2.097  -3.453   7.162  0.00  0.00    +0.000 OA
BRANCH  15  16
ATOM     16  C   UNL     1      -3.020  -3.763   8.196  0.00  0.00    +0.000 C 
BRANCH  16  17
ATOM     17  C   UNL     1      -3.894  -2.551   8.475  0.00  0.00    +0.000 C 
BRANCH  17  18
ATOM     18  N   UNL     1      -4.629  -2.186   7.255  0.00  0.00    +0.000 NA
ATOM     19  C   UNL     1      -5.474  -1.014   7.525  0.00  0.00    +0.000 C 
ATOM     20  C   UNL     1      -3.673  -1.865   6.185  0.00  0.00    +0.000 C 
ENDBRANCH  17  18
ENDBRANCH  16  17
ENDBRANCH  15  16
ENDBRANCH  12  15
ENDBRANCH   2   9
BRANCH   1  21
ATOM     21  C   UNL     1       2.589  -1.888   1.937  0.00  0.00    +0.000 A 
ATOM     22  C   UNL     1       3.069  -2.277   3.238  0.00  0.00    +0.000 A 
ATOM     23  C   UNL     1       2.133  -2.592   4.286  0.00  0.00    +0.000 A 
ATOM     24  C   UNL     1       2.613  -2.981   5.587  0.00  0.00    +0.000 A 
ATOM     25  C   UNL     1       1.678  -3.296   6.636  0.00  0.00    +0.000 A 
ATOM     26  C   UNL     1       3.525  -1.573   0.888  0.00  0.00    +0.000 A 
ENDBRANCH   1  21
BRANCH   1  28
ATOM     27  C   UNL     1       1.095  -0.002  -0.032  0.00  0.00    +0.000 C 
ATOM     28  C   UNL     1       0.588  -1.396   0.298  0.00  0.00    +0.000 C 
ENDBRANCH   1  28
TORSDOF 8
