REMARK  Name = 
REMARK  8 active torsions:
REMARK  status: ('A' for Active; 'I' for Inactive)
REMARK    1  A    between atoms: C_1  and  C_2
REMARK    2  A    between atoms: C_7  and  C_39
REMARK    3  A    between atoms: C_10  and  O_37
REMARK    4  A    between atoms: C_11  and  O_35
REMARK    5  A    between atoms: C_18  and  C_34
REMARK    6  A    between atoms: C_31  and  O_33
REMARK    7  A    between atoms: O_35  and  C_36
REMARK    8  A    between atoms: O_37  and  C_38
REMARK                            x       y       z     vdW  Elec       q    Type
REMARK                         _______ _______ _______ _____ _____    ______ ____
ROOT
ATOM      1  C   UNL     1       1.040  -0.075  -0.053  0.00  0.00    +0.000 C 
ATOM      2  C   UNL     1       0.534  -0.205  -1.480  0.00  0.00    +0.000 C 
ATOM      3  C   UNL     1      -0.986  -0.205  -1.480  0.00  0.00    +0.000 C 
ATOM      4  C   UNL     1      -1.493   1.096  -0.880  0.00  0.00    +0.000 C 
ATOM      5  C   UNL     1      -0.986   2.266  -1.707  0.00  0.00    +0.000 C 
ATOM      6  C   UNL     1      -1.493   3.568  -1.106  0.00  0.00    +0.000 C 
ATOM      7  C   UNL     1      -0.986   3.699   0.321  0.00  0.00    +0.000 C 
ATOM      8  C   UNL     1       0.534   3.699   0.321  0.00  0.00    +0.000 C 
ATOM      9  O   UNL     1       1.169   4.698   0.782  0.00  0.00    +0.000 OA
ATOM     10  C   UNL     1       1.294   2.503  -0.231  0.00  0.00    +0.000 C 
ATOM     11  C   UNL     1       0.927   1.260   0.562  0.00  0.00    +0.000 C 
ATOM     12  C   UNL     1      -0.568   1.007   0.446  0.00  0.00    +0.000 C 
ATOM     13  O   UNL     1      -0.991  -0.081  -0.056  0.00  0.00    +0.000 OA
ATOM     14  C   UNL     1      -1.556   2.056   0.930  0.00  0.00    +0.000 C 
ATOM     15  C   UNL     1      -1.340   3.349   0.159  0.00  0.00    +0.000 C 
ATOM     16  O   UNL     1      -1.354   2.293   2.316  0.00  0.00    +0.000 OA
ATOM     17  C   UNL     1      -2.328   4.398   0.643  0.00  0.00    +0.000 C 
ATOM     18  C   UNL     1      -2.113   4.651   2.127  0.00  0.00    +0.000 C 
ATOM     19  C   UNL     1      -0.694   5.147   2.355  0.00  0.00    +0.000 C 
ATOM     20  O   UNL     1      -0.497   6.287   2.881  0.00  0.00    +0.000 OA
ATOM     21  C   UNL     1       0.488   4.279   1.955  0.00  0.00    +0.000 C 
ATOM     22  C   UNL     1       0.432   4.004   0.461  0.00  0.00    +0.000 C 
ATOM     23  C   UNL     1       0.488   5.319  -0.299  0.00  0.00    +0.000 C 
ATOM     24  C   UNL     1       1.783   6.042   0.035  0.00  0.00    +0.000 C 
ATOM     25  C   UNL     1       2.965   5.174  -0.365  0.00  0.00    +0.000 C 
ATOM     26  N   UNL     1       0.434   3.007   2.690  0.00  0.00    +0.000 N 
ATOM     27  C   UNL     1       0.473   3.005   4.160  0.00  0.00    +0.000 C 
ATOM     28  O   UNL     1       0.554   4.103   4.795  0.00  0.00    +0.000 OA
ATOM     29  C   UNL     1       0.417   1.690   4.920  0.00  0.00    +0.000 C 
ATOM     30  O   UNL     1       0.451   1.689   6.190  0.00  0.00    +0.000 OA
ATOM     31  C   UNL     1      -1.493   2.136  -3.134  0.00  0.00    +0.000 C 
ATOM     32  O   UNL     1       1.007  -1.421  -2.041  0.00  0.00    +0.000 OA
ATOM     33  C   UNL     1      -3.100   5.700   2.611  0.00  0.00    +0.000 C 
ATOM     34  C   UNL     1      -1.493   5.000   0.921  0.00  0.00    +0.000 C 
ENDROOT
BRANCH  31  35
ATOM     35  O   UNL     1      -1.020   0.920  -3.694  0.00  0.00    +0.000 OA
ATOM     36  H   UNL     1      -1.353   0.834  -4.633  0.00  0.00    +0.000 HD
ENDBRANCH  31  35
BRANCH  11  37
ATOM     37  O   UNL     1       1.637   0.143   0.047  0.00  0.00    +0.000 OA
ATOM     38  C   UNL     1       1.294  -0.048  -1.317  0.00  0.00    +0.000 C 
ENDBRANCH  11  37
BRANCH  10  39
ATOM     39  O   UNL     1       0.951   2.313  -1.595  0.00  0.00    +0.000 OA
ATOM     40  C   UNL     1      -0.445   2.077  -1.704  0.00  0.00    +0.000 C 
ENDBRANCH  10  39
TORSDOF 3
