REMARK  Name = 
REMARK  46 active torsions:
REMARK  status: ('A' for Active; 'I' for Inactive)
REMARK    1  A    between atoms: C_1  and  O_2
REMARK    2  A    between atoms: O_2  and  C_3
REMARK    3  A    between atoms: C_4  and  C_15
REMARK    4  A    between atoms: C_7  and  O_13
REMARK    5  A    between atoms: C_8  and  O_11
REMARK    6  A    between atoms: O_11  and  C_12
REMARK    7  A    between atoms: O_13  and  C_14
REMARK    8  A    between atoms: C_15  and  C_16
REMARK    9  A    between atoms: C_17  and  C_18
REMARK   10  A    between atoms: C_17  and  C_19
REMARK   11  A    between atoms: C_19  and  C_20
REMARK   12  A    between atoms: C_20  and  C_21
REMARK   13  A    between atoms: C_22  and  C_23
REMARK   14  A    between atoms: C_22  and  C_24
REMARK   15  A    between atoms: C_24  and  C_25
REMARK   16  A    between atoms: C_25  and  C_26
REMARK   17  A    between atoms: C_27  and  C_28
REMARK   18  A    between atoms: C_27  and  C_29
REMARK   19  A    between atoms: C_29  and  C_30
REMARK   20  A    between atoms: C_30  and  C_31
REMARK   21  A    between atoms: C_32  and  C_33
REMARK   22  A    between atoms: C_32  and  C_34
REMARK   23  A    between atoms: C_34  and  C_35
REMARK   24  A    between atoms: C_35  and  C_36
REMARK   25  A    between atoms: C_37  and  C_38
REMARK   26  A    between atoms: C_37  and  C_39
REMARK   27  A    between atoms: C_39  and  C_40
REMARK   28  A    between atoms: C_40  and  C_41
REMARK   29  A    between atoms: C_42  and  C_43
REMARK   30  A    between atoms: C_42  and  C_44
REMARK   31  A    between atoms: C_44  and  C_45
REMARK   32  A    between atoms: C_45  and  C_46
REMARK   33  A    between atoms: C_47  and  C_48
REMARK   34  A    between atoms: C_47  and  C_49
REMARK   35  A    between atoms: C_49  and  C_50
REMARK   36  A    between atoms: C_50  and  C_51
REMARK   37  A    between atoms: C_52  and  C_53
REMARK   38  A    between atoms: C_52  and  C_54
REMARK   39  A    between atoms: C_54  and  C_55
REMARK   40  A    between atoms: C_55  and  C_56
REMARK   41  A    between atoms: C_57  and  C_58
REMARK   42  A    between atoms: C_57  and  C_59
REMARK   43  A    between atoms: C_59  and  C_60
REMARK   44  A    between atoms: C_60  and  C_61
REMARK   45  A    between atoms: C_62  and  C_63
REMARK   46  A    between atoms: C_62  and  C_64
REMARK                            x       y       z     vdW  Elec       q    Type
REMARK                         _______ _______ _______ _____ _____    ______ ____
ROOT
ATOM      1  C   UNL     1       6.638  -0.442  -4.300  0.00  0.00    +0.000 C 
ATOM      2  C   UNL     1       7.324  -1.614  -4.216  0.00  0.00    +0.000 C 
ATOM      3  C   UNL     1       6.578  -2.914  -3.961  0.00  0.00    +0.000 C 
ENDROOT
BRANCH   2   4
ATOM      4  C   UNL     1       8.835  -1.623  -4.376  0.00  0.00    +0.000 C 
BRANCH   4   5
ATOM      5  C   UNL     1       9.202  -1.080  -5.748  0.00  0.00    +0.000 C 
BRANCH   5   6
ATOM      6  C   UNL     1       8.687   0.343  -5.884  0.00  0.00    +0.000 C 
ATOM      7  C   UNL     1       9.558   1.363  -6.114  0.00  0.00    +0.000 C 
ATOM      8  C   UNL     1       9.043   2.786  -6.250  0.00  0.00    +0.000 C 
BRANCH   7   9
ATOM      9  C   UNL     1      11.046   1.078  -6.235  0.00  0.00    +0.000 C 
BRANCH   9  10
ATOM     10  C   UNL     1      11.549   0.450  -4.945  0.00  0.00    +0.000 C 
BRANCH  10  11
ATOM     11  C   UNL     1      10.803  -0.850  -4.691  0.00  0.00    +0.000 C 
ATOM     12  C   UNL     1      11.489  -2.022  -4.607  0.00  0.00    +0.000 C 
ATOM     13  C   UNL     1      10.744  -3.322  -4.352  0.00  0.00    +0.000 C 
BRANCH  12  14
ATOM     14  C   UNL     1      13.001  -2.031  -4.767  0.00  0.00    +0.000 C 
BRANCH  14  15
ATOM     15  C   UNL     1      13.368  -1.488  -6.139  0.00  0.00    +0.000 C 
BRANCH  15  16
ATOM     16  C   UNL     1      12.853  -0.065  -6.275  0.00  0.00    +0.000 C 
ATOM     17  C   UNL     1      13.723   0.955  -6.505  0.00  0.00    +0.000 C 
ATOM     18  C   UNL     1      13.208   2.378  -6.641  0.00  0.00    +0.000 C 
BRANCH  17  19
ATOM     19  C   UNL     1      15.212   0.670  -6.626  0.00  0.00    +0.000 C 
BRANCH  19  20
ATOM     20  C   UNL     1      15.714   0.042  -5.336  0.00  0.00    +0.000 C 
BRANCH  20  21
ATOM     21  C   UNL     1      14.969  -1.258  -5.082  0.00  0.00    +0.000 C 
ATOM     22  C   UNL     1      15.654  -2.430  -4.998  0.00  0.00    +0.000 C 
ATOM     23  C   UNL     1      14.909  -3.730  -4.744  0.00  0.00    +0.000 C 
BRANCH  22  24
ATOM     24  C   UNL     1      17.166  -2.439  -5.159  0.00  0.00    +0.000 C 
BRANCH  24  25
ATOM     25  C   UNL     1      17.533  -1.896  -6.530  0.00  0.00    +0.000 C 
BRANCH  25  26
ATOM     26  C   UNL     1      17.018  -0.473  -6.666  0.00  0.00    +0.000 C 
ATOM     27  C   UNL     1      17.889   0.547  -6.896  0.00  0.00    +0.000 C 
ATOM     28  C   UNL     1      17.374   1.970  -7.032  0.00  0.00    +0.000 C 
BRANCH  27  29
ATOM     29  C   UNL     1      19.377   0.262  -7.017  0.00  0.00    +0.000 C 
BRANCH  29  30
ATOM     30  C   UNL     1      19.879  -0.366  -5.727  0.00  0.00    +0.000 C 
BRANCH  30  31
ATOM     31  C   UNL     1      19.134  -1.666  -5.473  0.00  0.00    +0.000 C 
ATOM     32  C   UNL     1      19.820  -2.838  -5.389  0.00  0.00    +0.000 C 
ATOM     33  C   UNL     1      19.075  -4.138  -5.135  0.00  0.00    +0.000 C 
ATOM     34  C   UNL     1      21.331  -2.847  -5.550  0.00  0.00    +0.000 C 
ENDBRANCH  30  31
ENDBRANCH  29  30
ENDBRANCH  27  29
ENDBRANCH  25  26
ENDBRANCH  24  25
ENDBRANCH  22  24
ENDBRANCH  20  21
ENDBRANCH  19  20
ENDBRANCH  17  19
ENDBRANCH  15  16
ENDBRANCH  14  15
ENDBRANCH  12  14
ENDBRANCH  10  11
ENDBRANCH   9  10
ENDBRANCH   7   9
ENDBRANCH   5   6
ENDBRANCH   4   5
ENDBRANCH   2   4
BRANCH   1  35
ATOM     35  C   UNL     1       7.383   0.858  -4.554  0.00  0.00    +0.000 C 
BRANCH  35  36
ATOM     36  C   UNL     1       6.881   1.486  -5.844  0.00  0.00    +0.000 C 
BRANCH  36  38
ATOM     37  C   UNL     1       4.522   0.751  -5.493  0.00  0.00    +0.000 C 
ATOM     38  C   UNL     1       5.393   1.771  -5.723  0.00  0.00    +0.000 C 
ATOM     39  C   UNL     1       4.877   3.194  -5.859  0.00  0.00    +0.000 C 
BRANCH  37  40
ATOM     40  C   UNL     1       5.037  -0.672  -5.357  0.00  0.00    +0.000 C 
BRANCH  40  41
ATOM     41  C   UNL     1       4.670  -1.215  -3.985  0.00  0.00    +0.000 C 
BRANCH  41  43
ATOM     42  C   UNL     1       2.472  -0.034  -3.909  0.00  0.00    +0.000 C 
ATOM     43  C   UNL     1       3.158  -1.206  -3.825  0.00  0.00    +0.000 C 
ATOM     44  C   UNL     1       2.413  -2.506  -3.570  0.00  0.00    +0.000 C 
BRANCH  42  45
ATOM     45  C   UNL     1       3.218   1.266  -4.163  0.00  0.00    +0.000 C 
BRANCH  45  46
ATOM     46  C   UNL     1       2.715   1.894  -5.453  0.00  0.00    +0.000 C 
BRANCH  46  48
ATOM     47  C   UNL     1       0.356   1.159  -5.102  0.00  0.00    +0.000 C 
ATOM     48  C   UNL     1       1.227   2.179  -5.332  0.00  0.00    +0.000 C 
ATOM     49  C   UNL     1       0.712   3.602  -5.468  0.00  0.00    +0.000 C 
BRANCH  47  50
ATOM     50  C   UNL     1       0.871  -0.265  -4.966  0.00  0.00    +0.000 C 
BRANCH  50  52
ATOM     51  C   UNL     1       0.958  -0.185  -2.473  0.00  0.00    +0.000 C 
ATOM     52  C   UNL     1       0.504  -0.807  -3.594  0.00  0.00    +0.000 C 
ATOM     53  C   UNL     1      -0.370  -2.045  -3.476  0.00  0.00    +0.000 C 
ATOM     54  O   UNL     1      -0.793  -2.627  -4.524  0.00  0.00    +0.000 OA
ATOM     55  C   UNL     1      -0.737  -2.588  -2.104  0.00  0.00    +0.000 C 
ATOM     56  C   UNL     1      -0.283  -1.966  -0.983  0.00  0.00    +0.000 C 
ATOM     57  C   UNL     1       1.832   1.053  -2.591  0.00  0.00    +0.000 C 
ATOM     58  O   UNL     1       2.255   1.634  -1.543  0.00  0.00    +0.000 OA
BRANCH  56  59
ATOM     59  O   UNL     1       0.533  -0.809  -1.093  0.00  0.00    +0.000 OA
ATOM     60  C   UNL     1       1.006  -0.160   0.077  0.00  0.00    +0.000 C 
ENDBRANCH  56  59
BRANCH  55  61
ATOM     61  O   UNL     1      -1.553  -3.745  -1.994  0.00  0.00    +0.000 OA
ATOM     62  C   UNL     1      -1.896  -4.252  -0.713  0.00  0.00    +0.000 C 
ENDBRANCH  55  61
BRANCH  51  64
ATOM     63  C   UNL     1       1.088  -0.043  -0.021  0.00  0.00    +0.000 C 
ATOM     64  O   UNL     1       0.615  -0.692  -1.191  0.00  0.00    +0.000 OA
ENDBRANCH  51  64
ENDBRANCH  50  52
ENDBRANCH  47  50
ENDBRANCH  46  48
ENDBRANCH  45  46
ENDBRANCH  42  45
ENDBRANCH  41  43
ENDBRANCH  40  41
ENDBRANCH  37  40
ENDBRANCH  36  38
ENDBRANCH  35  36
ENDBRANCH   1  35
TORSDOF 32
