MODEL 1
REMARK VINA RESULT:     0.000      0.000      0.000
REMARK INTER + INTRA:          -0.322
REMARK INTER:                   0.000
REMARK INTRA:                  -0.322
REMARK UNBOUND:                -0.322
REMARK  Name = 
REMARK  3 active torsions:
REMARK  status: ('A' for Active; 'I' for Inactive)
REMARK    1  A    between atoms: C_1  and  N_2
REMARK    2  A    between atoms: N_2  and  C_3
REMARK    3  A    between atoms: C_4  and  N_6
REMARK                            x       y       z     vdW  Elec       q    Type
REMARK                         _______ _______ _______ _____ _____    ______ ____
ROOT
ATOM      1  N   UNL     1      -0.666  18.194  -1.207  0.00  0.00    +0.000 NA
ATOM      2  C   UNL     1      -0.941  17.688  -0.025  0.00  0.00    +0.000 C 
ATOM      3  N   UNL     1      -0.154  16.559   0.494  0.00  0.00    +0.000 N 
ATOM      4  N   UNL     1      -2.036  18.250   0.780  0.00  0.00    +0.000 N 
ATOM      5  H   UNL     1      -0.368  16.166   1.410  0.00  0.00    +0.000 HD
ATOM      6  H   UNL     1       0.606  16.169  -0.064  0.00  0.00    +0.000 HD
ATOM      7  H   UNL     1      -2.583  19.033   0.420  0.00  0.00    +0.000 HD
ATOM      8  H   UNL     1      -2.250  17.857   1.696  0.00  0.00    +0.000 HD
ENDROOT
BRANCH   1  12
ATOM      9  C   UNL     1       2.787  17.809  -2.957  0.00  0.00    +0.000 C 
ATOM     10  N   UNL     1       1.691  18.371  -2.152  0.00  0.00    +0.000 N 
ATOM     11  C   UNL     1       1.860  19.674  -1.491  0.00  0.00    +0.000 C 
ATOM     12  C   UNL     1       0.430  17.632  -2.011  0.00  0.00    +0.000 C 
ATOM     13  N   UNL     1       0.279  16.467  -2.604  0.00  0.00    +0.000 NA
ATOM     14  H   UNL     1       1.038  16.077  -3.161  0.00  0.00    +0.000 HD
ENDBRANCH   1  12
TORSDOF 1
ENDMDL
MODEL 2
REMARK VINA RESULT:     0.000      4.202      5.874
REMARK INTER + INTRA:          -0.322
REMARK INTER:                   0.000
REMARK INTRA:                  -0.322
REMARK UNBOUND:                -0.322
REMARK  Name = 
REMARK  3 active torsions:
REMARK  status: ('A' for Active; 'I' for Inactive)
REMARK    1  A    between atoms: C_1  and  N_2
REMARK    2  A    between atoms: N_2  and  C_3
REMARK    3  A    between atoms: C_4  and  N_6
REMARK                            x       y       z     vdW  Elec       q    Type
REMARK                         _______ _______ _______ _____ _____    ______ ____
ROOT
ATOM      1  N   UNL     1      -0.949  15.102  -4.178  0.00  0.00    +0.000 NA
ATOM      2  C   UNL     1      -0.127  15.255  -3.162  0.00  0.00    +0.000 C 
ATOM      3  N   UNL     1      -0.635  15.167  -1.785  0.00  0.00    +0.000 N 
ATOM      4  N   UNL     1       1.300  15.514  -3.403  0.00  0.00    +0.000 N 
ATOM      5  H   UNL     1       0.002  15.286  -0.997  0.00  0.00    +0.000 HD
ATOM      6  H   UNL     1      -1.625  14.987  -1.617  0.00  0.00    +0.000 HD
ATOM      7  H   UNL     1       1.653  15.576  -4.358  0.00  0.00    +0.000 HD
ATOM      8  H   UNL     1       1.937  15.633  -2.615  0.00  0.00    +0.000 HD
ENDROOT
BRANCH   1  12
ATOM      9  C   UNL     1      -4.355  13.241  -3.923  0.00  0.00    +0.000 C 
ATOM     10  N   UNL     1      -2.927  13.501  -4.164  0.00  0.00    +0.000 N 
ATOM     11  C   UNL     1      -2.053  12.416  -4.634  0.00  0.00    +0.000 C 
ATOM     12  C   UNL     1      -2.376  14.843  -3.937  0.00  0.00    +0.000 C 
ATOM     13  N   UNL     1      -3.159  15.814  -3.517  0.00  0.00    +0.000 NA
ATOM     14  H   UNL     1      -4.148  15.634  -3.350  0.00  0.00    +0.000 HD
ENDBRANCH   1  12
TORSDOF 1
ENDMDL
MODEL 3
REMARK VINA RESULT:     0.000      5.036      5.795
REMARK INTER + INTRA:          -0.322
REMARK INTER:                   0.000
REMARK INTRA:                  -0.322
REMARK UNBOUND:                -0.322
REMARK  Name = 
REMARK  3 active torsions:
REMARK  status: ('A' for Active; 'I' for Inactive)
REMARK    1  A    between atoms: C_1  and  N_2
REMARK    2  A    between atoms: N_2  and  C_3
REMARK    3  A    between atoms: C_4  and  N_6
REMARK                            x       y       z     vdW  Elec       q    Type
REMARK                         _______ _______ _______ _____ _____    ______ ____
ROOT
ATOM      1  N   UNL     1      -3.538  18.149  -5.095  0.00  0.00    +0.000 NA
ATOM      2  C   UNL     1      -4.478  19.010  -5.421  0.00  0.00    +0.000 C 
ATOM      3  N   UNL     1      -4.157  20.439  -5.541  0.00  0.00    +0.000 N 
ATOM      4  N   UNL     1      -5.851  18.542  -5.664  0.00  0.00    +0.000 N 
ATOM      5  H   UNL     1      -4.886  21.107  -5.793  0.00  0.00    +0.000 HD
ATOM      6  H   UNL     1      -3.205  20.764  -5.373  0.00  0.00    +0.000 HD
ATOM      7  H   UNL     1      -6.074  17.550  -5.579  0.00  0.00    +0.000 HD
ATOM      8  H   UNL     1      -6.580  19.210  -5.915  0.00  0.00    +0.000 HD
ENDROOT
BRANCH   1  12
ATOM      9  C   UNL     1       0.259  18.824  -5.603  0.00  0.00    +0.000 C 
ATOM     10  N   UNL     1      -1.114  18.357  -5.846  0.00  0.00    +0.000 N 
ATOM     11  C   UNL     1      -1.434  17.628  -7.082  0.00  0.00    +0.000 C 
ATOM     12  C   UNL     1      -2.165  18.617  -4.853  0.00  0.00    +0.000 C 
ATOM     13  N   UNL     1      -1.879  19.268  -3.745  0.00  0.00    +0.000 NA
ATOM     14  H   UNL     1      -0.927  19.592  -3.577  0.00  0.00    +0.000 HD
ENDBRANCH   1  12
TORSDOF 1
ENDMDL
MODEL 4
REMARK VINA RESULT:     0.000      4.903      5.974
REMARK INTER + INTRA:          -0.322
REMARK INTER:                   0.000
REMARK INTRA:                  -0.322
REMARK UNBOUND:                -0.322
REMARK  Name = 
REMARK  3 active torsions:
REMARK  status: ('A' for Active; 'I' for Inactive)
REMARK    1  A    between atoms: C_1  and  N_2
REMARK    2  A    between atoms: N_2  and  C_3
REMARK    3  A    between atoms: C_4  and  N_6
REMARK                            x       y       z     vdW  Elec       q    Type
REMARK                         _______ _______ _______ _____ _____    ______ ____
ROOT
ATOM      1  N   UNL     1      -3.869  16.421  -3.952  0.00  0.00    +0.000 NA
ATOM      2  C   UNL     1      -3.970  17.659  -4.383  0.00  0.00    +0.000 C 
ATOM      3  N   UNL     1      -2.905  18.240  -5.212  0.00  0.00    +0.000 N 
ATOM      4  N   UNL     1      -5.151  18.464  -4.035  0.00  0.00    +0.000 N 
ATOM      5  H   UNL     1      -2.983  19.201  -5.545  0.00  0.00    +0.000 HD
ATOM      6  H   UNL     1      -2.085  17.683  -5.453  0.00  0.00    +0.000 HD
ATOM      7  H   UNL     1      -5.891  18.061  -3.459  0.00  0.00    +0.000 HD
ATOM      8  H   UNL     1      -5.230  19.425  -4.368  0.00  0.00    +0.000 HD
ENDROOT
BRANCH   1  12
ATOM      9  C   UNL     1      -1.618  13.738  -5.645  0.00  0.00    +0.000 C 
ATOM     10  N   UNL     1      -2.799  14.543  -5.297  0.00  0.00    +0.000 N 
ATOM     11  C   UNL     1      -4.090  14.272  -5.947  0.00  0.00    +0.000 C 
ATOM     12  C   UNL     1      -2.688  15.616  -4.300  0.00  0.00    +0.000 C 
ATOM     13  N   UNL     1      -1.533  15.858  -3.718  0.00  0.00    +0.000 NA
ATOM     14  H   UNL     1      -0.715  15.300  -3.960  0.00  0.00    +0.000 HD
ENDBRANCH   1  12
TORSDOF 1
ENDMDL
MODEL 5
REMARK VINA RESULT:     0.000      7.341      8.944
REMARK INTER + INTRA:          -0.322
REMARK INTER:                   0.000
REMARK INTRA:                  -0.322
REMARK UNBOUND:                -0.322
REMARK  Name = 
REMARK  3 active torsions:
REMARK  status: ('A' for Active; 'I' for Inactive)
REMARK    1  A    between atoms: C_1  and  N_2
REMARK    2  A    between atoms: N_2  and  C_3
REMARK    3  A    between atoms: C_4  and  N_6
REMARK                            x       y       z     vdW  Elec       q    Type
REMARK                         _______ _______ _______ _____ _____    ______ ____
ROOT
ATOM      1  N   UNL     1       3.777  12.189  -5.452  0.00  0.00    +0.000 NA
ATOM      2  C   UNL     1       2.581  12.280  -4.911  0.00  0.00    +0.000 C 
ATOM      3  N   UNL     1       1.391  11.912  -5.692  0.00  0.00    +0.000 N 
ATOM      4  N   UNL     1       2.434  12.749  -3.525  0.00  0.00    +0.000 N 
ATOM      5  H   UNL     1       0.464  11.983  -5.273  0.00  0.00    +0.000 HD
ATOM      6  H   UNL     1       1.492  11.587  -6.654  0.00  0.00    +0.000 HD
ATOM      7  H   UNL     1       3.260  13.004  -2.984  0.00  0.00    +0.000 HD
ATOM      8  H   UNL     1       1.507  12.820  -3.106  0.00  0.00    +0.000 HD
ENDROOT
BRANCH   1  12
ATOM      9  C   UNL     1       4.591   9.903  -8.491  0.00  0.00    +0.000 C 
ATOM     10  N   UNL     1       4.444  10.372  -7.106  0.00  0.00    +0.000 N 
ATOM     11  C   UNL     1       4.819   9.492  -5.989  0.00  0.00    +0.000 C 
ATOM     12  C   UNL     1       3.924  11.720  -6.838  0.00  0.00    +0.000 C 
ATOM     13  N   UNL     1       3.590  12.507  -7.837  0.00  0.00    +0.000 NA
ATOM     14  H   UNL     1       3.691  12.182  -8.798  0.00  0.00    +0.000 HD
ENDBRANCH   1  12
TORSDOF 1
ENDMDL
