MODEL 1
REMARK VINA RESULT:    -0.005      0.000      0.000
REMARK INTER + INTRA:          -0.171
REMARK INTER:                   0.000
REMARK INTRA:                  -0.171
REMARK UNBOUND:                -0.165
REMARK  Name = 
REMARK  8 active torsions:
REMARK  status: ('A' for Active; 'I' for Inactive)
REMARK    1  A    between atoms: C_1  and  N_2
REMARK    2  A    between atoms: C_3  and  C_22
REMARK    3  A    between atoms: C_4  and  C_12
REMARK    4  A    between atoms: N_7  and  S_8
REMARK    5  A    between atoms: S_8  and  O_11
REMARK    6  A    between atoms: N_14  and  C_15
REMARK    7  A    between atoms: C_15  and  C_16
REMARK    8  A    between atoms: N_24  and  O_25
REMARK                            x       y       z     vdW  Elec       q    Type
REMARK                         _______ _______ _______ _____ _____    ______ ____
ROOT
ATOM      1  C   UNL     1       1.581   9.980  -1.704  0.00  0.00    +0.000 C 
ATOM      2  N   UNL     1       1.712   9.078  -2.858  0.00  0.00    +0.000 N 
ATOM      3  C   UNL     1       0.678   8.201  -3.177  0.00  0.00    +0.000 A 
ATOM      4  C   UNL     1      -0.520   8.178  -2.377  0.00  0.00    +0.000 A 
ATOM      5  C   UNL     1      -1.589   7.272  -2.708  0.00  0.00    +0.000 A 
ATOM      6  O   UNL     1      -1.476   6.492  -3.705  0.00  0.00    +0.000 OA
ATOM      7  N   UNL     1       2.831   9.099  -3.604  0.00  0.00    +0.000 N 
ENDROOT
BRANCH   4   8
ATOM      8  C   UNL     1      -0.655   9.112  -1.185  0.00  0.00    +0.000 C 
ATOM      9  O   UNL     1      -0.210   8.759  -0.049  0.00  0.00    +0.000 OA
ATOM     10  N   UNL     1      -1.301  10.423  -1.347  0.00  0.00    +0.000 N 
ATOM     11  H   UNL     1      -1.392  11.049  -0.547  0.00  0.00    +0.000 HD
BRANCH  10  12
ATOM     12  C   UNL     1      -1.816  10.830  -2.663  0.00  0.00    +0.000 C 
BRANCH  12  13
ATOM     13  C   UNL     1      -1.466  12.288  -2.914  0.00  0.00    +0.000 A 
ATOM     14  C   UNL     1      -0.510  12.633  -3.934  0.00  0.00    +0.000 A 
ATOM     15  C   UNL     1       0.115  11.597  -4.716  0.00  0.00    +0.000 A 
ATOM     16  C   UNL     1       1.072  11.942  -5.736  0.00  0.00    +0.000 A 
ATOM     17  C   UNL     1       1.697  10.906  -6.517  0.00  0.00    +0.000 A 
ATOM     18  C   UNL     1      -2.091  13.324  -2.134  0.00  0.00    +0.000 A 
ENDBRANCH  12  13
ENDBRANCH  10  12
ENDBRANCH   4   8
BRANCH   3  19
ATOM     19  C   UNL     1       0.813   7.269  -4.369  0.00  0.00    +0.000 C 
ATOM     20  O   UNL     1       0.576   7.699  -5.542  0.00  0.00    +0.000 OA
ATOM     21  N   UNL     1       1.218   5.870  -4.168  0.00  0.00    +0.000 N 
ATOM     22  H   UNL     1       1.309   5.245  -4.968  0.00  0.00    +0.000 HD
BRANCH  21  23
ATOM     23  O   UNL     1       1.474   5.407  -2.904  0.00  0.00    +0.000 OA
ATOM     24  H   UNL     1       0.692   5.604  -2.312  0.00  0.00    +0.000 HD
ENDBRANCH  21  23
ENDBRANCH   3  19
BRANCH   7  25
ATOM     25  S   UNL     1       4.138  10.207  -3.201  0.00  0.00    +0.000 S 
ATOM     26  O   UNL     1       5.283  10.030  -4.200  0.00  0.00    +0.000 OA
ATOM     27  O   UNL     1       3.623  11.647  -3.265  0.00  0.00    +0.000 OA
BRANCH  25  28
ATOM     28  O   UNL     1       4.702   9.872  -1.622  0.00  0.00    +0.000 OA
ATOM     29  H   UNL     1       3.947   9.965  -0.972  0.00  0.00    +0.000 HD
ENDBRANCH  25  28
ENDBRANCH   7  25
TORSDOF 7
ENDMDL
MODEL 2
REMARK VINA RESULT:     0.000      9.089     11.742
REMARK INTER + INTRA:          -0.165
REMARK INTER:                   0.000
REMARK INTRA:                  -0.165
REMARK UNBOUND:                -0.165
REMARK  Name = 
REMARK  8 active torsions:
REMARK  status: ('A' for Active; 'I' for Inactive)
REMARK    1  A    between atoms: C_1  and  N_2
REMARK    2  A    between atoms: C_3  and  C_22
REMARK    3  A    between atoms: C_4  and  C_12
REMARK    4  A    between atoms: N_7  and  S_8
REMARK    5  A    between atoms: S_8  and  O_11
REMARK    6  A    between atoms: N_14  and  C_15
REMARK    7  A    between atoms: C_15  and  C_16
REMARK    8  A    between atoms: N_24  and  O_25
REMARK                            x       y       z     vdW  Elec       q    Type
REMARK                         _______ _______ _______ _____ _____    ______ ____
ROOT
ATOM      1  C   UNL     1      -2.257  19.202   0.340  0.00  0.00    +0.000 C 
ATOM      2  N   UNL     1      -1.096  20.099   0.430  0.00  0.00    +0.000 N 
ATOM      3  C   UNL     1       0.183  19.612   0.173  0.00  0.00    +0.000 A 
ATOM      4  C   UNL     1       0.368  18.228  -0.181  0.00  0.00    +0.000 A 
ATOM      5  C   UNL     1       1.691  17.724  -0.447  0.00  0.00    +0.000 A 
ATOM      6  O   UNL     1       2.695  18.500  -0.369  0.00  0.00    +0.000 OA
ATOM      7  N   UNL     1      -1.270  21.392   0.761  0.00  0.00    +0.000 N 
ENDROOT
BRANCH   4   8
ATOM      8  C   UNL     1      -0.832  17.300  -0.275  0.00  0.00    +0.000 C 
ATOM      9  O   UNL     1      -1.256  16.703   0.763  0.00  0.00    +0.000 OA
ATOM     10  N   UNL     1      -1.502  17.094  -1.567  0.00  0.00    +0.000 N 
ATOM     11  H   UNL     1      -2.308  16.471  -1.630  0.00  0.00    +0.000 HD
BRANCH  10  12
ATOM     12  C   UNL     1      -1.011  17.785  -2.768  0.00  0.00    +0.000 C 
BRANCH  12  13
ATOM     13  C   UNL     1      -2.192  18.301  -3.574  0.00  0.00    +0.000 A 
ATOM     14  C   UNL     1      -2.431  19.718  -3.675  0.00  0.00    +0.000 A 
ATOM     15  C   UNL     1      -1.550  20.646  -3.013  0.00  0.00    +0.000 A 
ATOM     16  C   UNL     1      -1.788  22.062  -3.114  0.00  0.00    +0.000 A 
ATOM     17  C   UNL     1      -0.908  22.990  -2.451  0.00  0.00    +0.000 A 
ATOM     18  C   UNL     1      -3.072  17.374  -4.238  0.00  0.00    +0.000 A 
ENDBRANCH  12  13
ENDBRANCH  10  12
ENDBRANCH   4   8
BRANCH   3  19
ATOM     19  C   UNL     1       1.383  20.540   0.266  0.00  0.00    +0.000 C 
ATOM     20  O   UNL     1       1.669  21.307  -0.706  0.00  0.00    +0.000 OA
ATOM     21  N   UNL     1       2.212  20.551   1.480  0.00  0.00    +0.000 N 
ATOM     22  H   UNL     1       3.017  21.174   1.542  0.00  0.00    +0.000 HD
BRANCH  21  23
ATOM     23  O   UNL     1       1.903  19.725   2.527  0.00  0.00    +0.000 OA
ATOM     24  H   UNL     1       2.052  18.773   2.258  0.00  0.00    +0.000 HD
ENDBRANCH  21  23
ENDBRANCH   3  19
BRANCH   7  25
ATOM     25  S   UNL     1      -2.886  22.008   1.086  0.00  0.00    +0.000 S 
ATOM     26  O   UNL     1      -2.804  23.496   1.434  0.00  0.00    +0.000 OA
ATOM     27  O   UNL     1      -3.761  21.823  -0.156  0.00  0.00    +0.000 OA
BRANCH  25  28
ATOM     28  O   UNL     1      -3.570  21.152   2.398  0.00  0.00    +0.000 OA
ATOM     29  H   UNL     1      -3.948  21.801   3.059  0.00  0.00    +0.000 HD
ENDBRANCH  25  28
ENDBRANCH   7  25
TORSDOF 7
ENDMDL
MODEL 3
REMARK VINA RESULT:     0.000      6.070      8.141
REMARK INTER + INTRA:          -0.164
REMARK INTER:                   0.000
REMARK INTRA:                  -0.164
REMARK UNBOUND:                -0.165
REMARK  Name = 
REMARK  8 active torsions:
REMARK  status: ('A' for Active; 'I' for Inactive)
REMARK    1  A    between atoms: C_1  and  N_2
REMARK    2  A    between atoms: C_3  and  C_22
REMARK    3  A    between atoms: C_4  and  C_12
REMARK    4  A    between atoms: N_7  and  S_8
REMARK    5  A    between atoms: S_8  and  O_11
REMARK    6  A    between atoms: N_14  and  C_15
REMARK    7  A    between atoms: C_15  and  C_16
REMARK    8  A    between atoms: N_24  and  O_25
REMARK                            x       y       z     vdW  Elec       q    Type
REMARK                         _______ _______ _______ _____ _____    ______ ____
ROOT
ATOM      1  C   UNL     1       5.073  14.971  -1.792  0.00  0.00    +0.000 C 
ATOM      2  N   UNL     1       6.239  15.335  -2.611  0.00  0.00    +0.000 N 
ATOM      3  C   UNL     1       6.723  14.447  -3.567  0.00  0.00    +0.000 A 
ATOM      4  C   UNL     1       6.083  13.170  -3.754  0.00  0.00    +0.000 A 
ATOM      5  C   UNL     1       6.584  12.252  -4.744  0.00  0.00    +0.000 A 
ATOM      6  O   UNL     1       7.592  12.567  -5.451  0.00  0.00    +0.000 OA
ATOM      7  N   UNL     1       6.837  16.528  -2.435  0.00  0.00    +0.000 N 
ENDROOT
BRANCH   4   8
ATOM      8  C   UNL     1       4.878  12.794  -2.908  0.00  0.00    +0.000 C 
ATOM      9  O   UNL     1       5.044  12.246  -1.774  0.00  0.00    +0.000 OA
ATOM     10  N   UNL     1       3.520  13.063  -3.402  0.00  0.00    +0.000 N 
ATOM     11  H   UNL     1       2.711  12.810  -2.834  0.00  0.00    +0.000 HD
BRANCH  10  12
ATOM     12  C   UNL     1       3.328  13.697  -4.714  0.00  0.00    +0.000 C 
BRANCH  12  13
ATOM     13  C   UNL     1       2.229  14.742  -4.616  0.00  0.00    +0.000 A 
ATOM     14  C   UNL     1       2.552  16.141  -4.738  0.00  0.00    +0.000 A 
ATOM     15  C   UNL     1       3.916  16.548  -4.953  0.00  0.00    +0.000 A 
ATOM     16  C   UNL     1       4.240  17.946  -5.074  0.00  0.00    +0.000 A 
ATOM     17  C   UNL     1       5.605  18.353  -5.289  0.00  0.00    +0.000 A 
ATOM     18  C   UNL     1       0.864  14.335  -4.402  0.00  0.00    +0.000 A 
ENDBRANCH  12  13
ENDBRANCH  10  12
ENDBRANCH   4   8
BRANCH   3  19
ATOM     19  C   UNL     1       7.927  14.824  -4.414  0.00  0.00    +0.000 C 
ATOM     20  O   UNL     1       7.779  15.569  -5.433  0.00  0.00    +0.000 OA
ATOM     21  N   UNL     1       9.264  14.328  -4.054  0.00  0.00    +0.000 N 
ATOM     22  H   UNL     1      10.072  14.582  -4.622  0.00  0.00    +0.000 HD
BRANCH  21  23
ATOM     23  O   UNL     1       9.424  13.527  -2.956  0.00  0.00    +0.000 OA
ATOM     24  H   UNL     1       9.958  14.012  -2.263  0.00  0.00    +0.000 HD
ENDBRANCH  21  23
ENDBRANCH   3  19
BRANCH   7  25
ATOM     25  S   UNL     1       6.224  17.651  -1.227  0.00  0.00    +0.000 S 
ATOM     26  O   UNL     1       7.077  18.922  -1.233  0.00  0.00    +0.000 OA
ATOM     27  O   UNL     1       4.773  18.010  -1.553  0.00  0.00    +0.000 OA
BRANCH  25  28
ATOM     28  O   UNL     1       6.298  16.922   0.318  0.00  0.00    +0.000 OA
ATOM     29  H   UNL     1       7.212  17.050   0.704  0.00  0.00    +0.000 HD
ENDBRANCH  25  28
ENDBRANCH   7  25
TORSDOF 7
ENDMDL
MODEL 4
REMARK VINA RESULT:     0.001      4.244      6.175
REMARK INTER + INTRA:          -0.163
REMARK INTER:                   0.000
REMARK INTRA:                  -0.163
REMARK UNBOUND:                -0.165
REMARK  Name = 
REMARK  8 active torsions:
REMARK  status: ('A' for Active; 'I' for Inactive)
REMARK    1  A    between atoms: C_1  and  N_2
REMARK    2  A    between atoms: C_3  and  C_22
REMARK    3  A    between atoms: C_4  and  C_12
REMARK    4  A    between atoms: N_7  and  S_8
REMARK    5  A    between atoms: S_8  and  O_11
REMARK    6  A    between atoms: N_14  and  C_15
REMARK    7  A    between atoms: C_15  and  C_16
REMARK    8  A    between atoms: N_24  and  O_25
REMARK                            x       y       z     vdW  Elec       q    Type
REMARK                         _______ _______ _______ _____ _____    ______ ____
ROOT
ATOM      1  C   UNL     1       2.907  13.072  -2.661  0.00  0.00    +0.000 C 
ATOM      2  N   UNL     1       3.150  11.945  -3.573  0.00  0.00    +0.000 N 
ATOM      3  C   UNL     1       3.070  12.134  -4.951  0.00  0.00    +0.000 A 
ATOM      4  C   UNL     1       2.748  13.433  -5.482  0.00  0.00    +0.000 A 
ATOM      5  C   UNL     1       2.664  13.629  -6.906  0.00  0.00    +0.000 A 
ATOM      6  O   UNL     1       2.875  12.654  -7.694  0.00  0.00    +0.000 OA
ATOM      7  N   UNL     1       3.451  10.731  -3.076  0.00  0.00    +0.000 N 
ENDROOT
BRANCH   4   8
ATOM      8  C   UNL     1       2.496  14.599  -4.538  0.00  0.00    +0.000 C 
ATOM      9  O   UNL     1       1.333  14.794  -4.066  0.00  0.00    +0.000 OA
ATOM     10  N   UNL     1       3.599  15.499  -4.172  0.00  0.00    +0.000 N 
ATOM     11  H   UNL     1       3.431  16.281  -3.540  0.00  0.00    +0.000 HD
BRANCH  10  12
ATOM     12  C   UNL     1       4.945  15.272  -4.719  0.00  0.00    +0.000 C 
BRANCH  12  13
ATOM     13  C   UNL     1       5.978  15.477  -3.623  0.00  0.00    +0.000 A 
ATOM     14  C   UNL     1       6.725  14.354  -3.117  0.00  0.00    +0.000 A 
ATOM     15  C   UNL     1       6.492  13.036  -3.649  0.00  0.00    +0.000 A 
ATOM     16  C   UNL     1       7.237  11.913  -3.144  0.00  0.00    +0.000 A 
ATOM     17  C   UNL     1       7.004  10.595  -3.676  0.00  0.00    +0.000 A 
ATOM     18  C   UNL     1       6.213  16.795  -3.091  0.00  0.00    +0.000 A 
ENDBRANCH  12  13
ENDBRANCH  10  12
ENDBRANCH   4   8
BRANCH   3  19
ATOM     19  C   UNL     1       3.322  10.969  -5.893  0.00  0.00    +0.000 C 
ATOM     20  O   UNL     1       4.513  10.633  -6.184  0.00  0.00    +0.000 OA
ATOM     21  N   UNL     1       2.188  10.230  -6.470  0.00  0.00    +0.000 N 
ATOM     22  H   UNL     1       2.358   9.448  -7.102  0.00  0.00    +0.000 HD
BRANCH  21  23
ATOM     23  O   UNL     1       0.906  10.592  -6.156  0.00  0.00    +0.000 OA
ATOM     24  H   UNL     1       0.891  11.021  -5.252  0.00  0.00    +0.000 HD
ENDBRANCH  21  23
ENDBRANCH   3  19
BRANCH   7  25
ATOM     25  S   UNL     1       3.553  10.492  -1.336  0.00  0.00    +0.000 S 
ATOM     26  O   UNL     1       3.913   9.034  -1.041  0.00  0.00    +0.000 OA
ATOM     27  O   UNL     1       4.632  11.410  -0.758  0.00  0.00    +0.000 OA
BRANCH  25  28
ATOM     28  O   UNL     1       2.045  10.863  -0.620  0.00  0.00    +0.000 OA
ATOM     29  H   UNL     1       1.830  10.179   0.077  0.00  0.00    +0.000 HD
ENDBRANCH  25  28
ENDBRANCH   7  25
TORSDOF 7
ENDMDL
MODEL 5
REMARK VINA RESULT:     0.004      8.873     11.601
REMARK INTER + INTRA:          -0.160
REMARK INTER:                   0.000
REMARK INTRA:                  -0.160
REMARK UNBOUND:                -0.165
REMARK  Name = 
REMARK  8 active torsions:
REMARK  status: ('A' for Active; 'I' for Inactive)
REMARK    1  A    between atoms: C_1  and  N_2
REMARK    2  A    between atoms: C_3  and  C_22
REMARK    3  A    between atoms: C_4  and  C_12
REMARK    4  A    between atoms: N_7  and  S_8
REMARK    5  A    between atoms: S_8  and  O_11
REMARK    6  A    between atoms: N_14  and  C_15
REMARK    7  A    between atoms: C_15  and  C_16
REMARK    8  A    between atoms: N_24  and  O_25
REMARK                            x       y       z     vdW  Elec       q    Type
REMARK                         _______ _______ _______ _____ _____    ______ ____
ROOT
ATOM      1  C   UNL     1      -2.478  19.979  -2.561  0.00  0.00    +0.000 C 
ATOM      2  N   UNL     1      -3.353  19.319  -1.581  0.00  0.00    +0.000 N 
ATOM      3  C   UNL     1      -3.070  18.025  -1.153  0.00  0.00    +0.000 A 
ATOM      4  C   UNL     1      -1.919  17.331  -1.672  0.00  0.00    +0.000 A 
ATOM      5  C   UNL     1      -1.626  15.992  -1.231  0.00  0.00    +0.000 A 
ATOM      6  O   UNL     1      -2.382  15.423  -0.383  0.00  0.00    +0.000 OA
ATOM      7  N   UNL     1      -4.428  19.968  -1.096  0.00  0.00    +0.000 N 
ENDROOT
BRANCH   4   8
ATOM      8  C   UNL     1      -1.014  18.013  -2.686  0.00  0.00    +0.000 C 
ATOM      9  O   UNL     1      -1.285  17.945  -3.926  0.00  0.00    +0.000 OA
ATOM     10  N   UNL     1       0.174  18.750  -2.232  0.00  0.00    +0.000 N 
ATOM     11  H   UNL     1       0.781  19.207  -2.912  0.00  0.00    +0.000 HD
BRANCH  10  12
ATOM     12  C   UNL     1       0.487  18.827  -0.797  0.00  0.00    +0.000 C 
BRANCH  12  13
ATOM     13  C   UNL     1       0.930  20.239  -0.451  0.00  0.00    +0.000 A 
ATOM     14  C   UNL     1       0.095  21.076   0.371  0.00  0.00    +0.000 A 
ATOM     15  C   UNL     1      -1.161  20.574   0.866  0.00  0.00    +0.000 A 
ATOM     16  C   UNL     1      -1.997  21.410   1.688  0.00  0.00    +0.000 A 
ATOM     17  C   UNL     1      -3.253  20.908   2.183  0.00  0.00    +0.000 A 
ATOM     18  C   UNL     1       2.187  20.741  -0.945  0.00  0.00    +0.000 A 
ENDBRANCH  12  13
ENDBRANCH  10  12
ENDBRANCH   4   8
BRANCH   3  19
ATOM     19  C   UNL     1      -3.973  17.344  -0.139  0.00  0.00    +0.000 C 
ATOM     20  O   UNL     1      -3.841  17.595   1.100  0.00  0.00    +0.000 OA
ATOM     21  N   UNL     1      -5.002  16.395  -0.591  0.00  0.00    +0.000 N 
ATOM     22  H   UNL     1      -5.609  15.938   0.090  0.00  0.00    +0.000 HD
BRANCH  21  23
ATOM     23  O   UNL     1      -5.145  16.125  -1.926  0.00  0.00    +0.000 OA
ATOM     24  H   UNL     1      -4.958  15.156  -2.093  0.00  0.00    +0.000 HD
ENDBRANCH  21  23
ENDBRANCH   3  19
BRANCH   7  25
ATOM     25  S   UNL     1      -4.787  21.604  -1.635  0.00  0.00    +0.000 S 
ATOM     26  O   UNL     1      -6.053  22.105  -0.937  0.00  0.00    +0.000 OA
ATOM     27  O   UNL     1      -3.615  22.524  -1.287  0.00  0.00    +0.000 OA
BRANCH  25  28
ATOM     28  O   UNL     1      -5.031  21.606  -3.328  0.00  0.00    +0.000 OA
ATOM     29  H   UNL     1      -4.523  20.848  -3.738  0.00  0.00    +0.000 HD
ENDBRANCH  25  28
ENDBRANCH   7  25
TORSDOF 7
ENDMDL
