MODEL 1
REMARK VINA RESULT:      -7.4      0.000      0.000
REMARK  Name = 
REMARK  4 active torsions:
REMARK  status: ('A' for Active; 'I' for Inactive)
REMARK    1  A    between atoms: C_1  and  C_2
REMARK    2  A    between atoms: C_6  and  N_7
REMARK    3  A    between atoms: N_10  and  N_11
REMARK    4  A    between atoms: N_22  and  C_23
REMARK                            x       y       z     vdW  Elec       q    Type
REMARK                         _______ _______ _______ _____ _____    ______ ____
ROOT
ATOM      1  N   UNL     1     -13.588  14.892 -12.408  0.00  0.00    +0.000 N 
ATOM      2  C   UNL     1     -14.836  14.550 -12.915  0.00  0.00    +0.000 A 
ATOM      3  N   UNL     1     -15.703  14.011 -12.096  0.00  0.00    +0.000 NA
ATOM      4  C   UNL     1     -16.947  13.604 -12.584  0.00  0.00    +0.000 A 
ATOM      5  C   UNL     1     -17.874  13.063 -11.689  0.00  0.00    +0.000 A 
ATOM      6  C   UNL     1     -19.124  12.623 -12.135  0.00  0.00    +0.000 A 
ATOM      7  C   UNL     1     -19.455  12.718 -13.484  0.00  0.00    +0.000 A 
ATOM      8  C   UNL     1     -18.538  13.255 -14.386  0.00  0.00    +0.000 A 
ATOM      9  C   UNL     1     -17.289  13.695 -13.928  0.00  0.00    +0.000 A 
ATOM     10  C   UNL     1     -16.306  14.284 -14.851  0.00  0.00    +0.000 A 
ATOM     11  O   UNL     1     -16.593  14.341 -16.046  0.00  0.00    +0.000 OA
ATOM     12  N   UNL     1     -15.123  14.756 -14.272  0.00  0.00    +0.000 N 
ATOM     13  H   UNL     1     -12.820  14.881 -13.089  0.00  0.00    +0.000 HD
ENDROOT
BRANCH  12  14
ATOM     14  C   UNL     1     -14.176  15.405 -15.132  0.00  0.00    +0.000 A 
ATOM     15  C   UNL     1     -14.259  16.800 -15.267  0.00  0.00    +0.000 A 
ATOM     16  C   UNL     1     -13.420  17.478 -16.144  0.00  0.00    +0.000 A 
ATOM     17  C   UNL     1     -12.483  16.770 -16.891  0.00  0.00    +0.000 A 
ATOM     18  C   UNL     1     -12.352  15.379 -16.757  0.00  0.00    +0.000 A 
ATOM     19  C   UNL     1     -11.379  14.693 -17.502  0.00  0.00    +0.000 A 
ATOM     20  C   UNL     1     -11.204  13.317 -17.362  0.00  0.00    +0.000 A 
ATOM     21  C   UNL     1     -11.995  12.611 -16.467  0.00  0.00    +0.000 A 
ATOM     22  C   UNL     1     -12.968  13.278 -15.722  0.00  0.00    +0.000 A 
ATOM     23  C   UNL     1     -13.192  14.671 -15.860  0.00  0.00    +0.000 A 
ENDBRANCH  12  14
BRANCH   1  27
ATOM     24  N   UNL     1     -12.798  12.186 -10.213  0.00  0.00    +0.000 N 
ATOM     25  C   UNL     1     -12.939  12.842 -11.416  0.00  0.00    +0.000 C 
ATOM     26  O   UNL     1     -12.817  12.373 -12.544  0.00  0.00    +0.000 OA
ATOM     27  N   UNL     1     -13.231  14.191 -11.218  0.00  0.00    +0.000 N 
ATOM     28  H   UNL     1     -12.765  12.782  -9.399  0.00  0.00    +0.000 HD
ATOM     29  H   UNL     1     -13.900  14.391 -10.475  0.00  0.00    +0.000 HD
BRANCH  24  35
ATOM     30  C   UNL     1     -14.503   7.936  -8.420  0.00  0.00    +0.000 C 
ATOM     31  C   UNL     1     -13.428   8.702  -9.131  0.00  0.00    +0.000 A 
ATOM     32  C   UNL     1     -12.243   8.068  -9.516  0.00  0.00    +0.000 A 
ATOM     33  C   UNL     1     -11.235   8.792 -10.149  0.00  0.00    +0.000 A 
ATOM     34  C   UNL     1     -11.394  10.158 -10.395  0.00  0.00    +0.000 A 
ATOM     35  C   UNL     1     -12.560  10.814 -10.002  0.00  0.00    +0.000 A 
ATOM     36  C   UNL     1     -13.572  10.077  -9.368  0.00  0.00    +0.000 A 
ENDBRANCH  24  35
ENDBRANCH   1  27
TORSDOF 3
ENDMDL
MODEL 2
REMARK VINA RESULT:      -7.3      2.518      5.393
REMARK  Name = 
REMARK  4 active torsions:
REMARK  status: ('A' for Active; 'I' for Inactive)
REMARK    1  A    between atoms: C_1  and  C_2
REMARK    2  A    between atoms: C_6  and  N_7
REMARK    3  A    between atoms: N_10  and  N_11
REMARK    4  A    between atoms: N_22  and  C_23
REMARK                            x       y       z     vdW  Elec       q    Type
REMARK                         _______ _______ _______ _____ _____    ______ ____
ROOT
ATOM      1  N   UNL     1     -13.221  14.058 -14.479  0.00  0.00    +0.000 N 
ATOM      2  C   UNL     1     -12.521  14.370 -15.639  0.00  0.00    +0.000 A 
ATOM      3  N   UNL     1     -11.441  13.682 -15.906  0.00  0.00    +0.000 NA
ATOM      4  C   UNL     1     -10.682  14.006 -17.034  0.00  0.00    +0.000 A 
ATOM      5  C   UNL     1      -9.552  13.238 -17.325  0.00  0.00    +0.000 A 
ATOM      6  C   UNL     1      -8.750  13.537 -18.431  0.00  0.00    +0.000 A 
ATOM      7  C   UNL     1      -9.074  14.612 -19.255  0.00  0.00    +0.000 A 
ATOM      8  C   UNL     1     -10.199  15.386 -18.974  0.00  0.00    +0.000 A 
ATOM      9  C   UNL     1     -10.996  15.075 -17.864  0.00  0.00    +0.000 A 
ATOM     10  C   UNL     1     -12.201  15.860 -17.552  0.00  0.00    +0.000 A 
ATOM     11  O   UNL     1     -12.467  16.826 -18.266  0.00  0.00    +0.000 OA
ATOM     12  N   UNL     1     -12.961  15.415 -16.464  0.00  0.00    +0.000 N 
ATOM     13  H   UNL     1     -13.751  14.833 -14.065  0.00  0.00    +0.000 HD
ENDROOT
BRANCH  12  14
ATOM     14  C   UNL     1     -14.181  16.112 -16.178  0.00  0.00    +0.000 A 
ATOM     15  C   UNL     1     -14.115  17.239 -15.343  0.00  0.00    +0.000 A 
ATOM     16  C   UNL     1     -15.273  17.910 -14.966  0.00  0.00    +0.000 A 
ATOM     17  C   UNL     1     -16.510  17.468 -15.427  0.00  0.00    +0.000 A 
ATOM     18  C   UNL     1     -16.609  16.365 -16.288  0.00  0.00    +0.000 A 
ATOM     19  C   UNL     1     -17.867  15.956 -16.761  0.00  0.00    +0.000 A 
ATOM     20  C   UNL     1     -17.991  14.886 -17.644  0.00  0.00    +0.000 A 
ATOM     21  C   UNL     1     -16.856  14.215 -18.075  0.00  0.00    +0.000 A 
ATOM     22  C   UNL     1     -15.599  14.607 -17.613  0.00  0.00    +0.000 A 
ATOM     23  C   UNL     1     -15.438  15.672 -16.692  0.00  0.00    +0.000 A 
ENDBRANCH  12  14
BRANCH   1  27
ATOM     24  N   UNL     1     -12.384  11.892 -11.764  0.00  0.00    +0.000 N 
ATOM     25  C   UNL     1     -13.122  12.364 -12.827  0.00  0.00    +0.000 C 
ATOM     26  O   UNL     1     -14.222  11.975 -13.206  0.00  0.00    +0.000 OA
ATOM     27  N   UNL     1     -12.441  13.382 -13.493  0.00  0.00    +0.000 N 
ATOM     28  H   UNL     1     -11.431  12.222 -11.721  0.00  0.00    +0.000 HD
ATOM     29  H   UNL     1     -11.965  14.057 -12.895  0.00  0.00    +0.000 HD
BRANCH  24  35
ATOM     30  C   UNL     1     -11.244   7.635  -9.582  0.00  0.00    +0.000 C 
ATOM     31  C   UNL     1     -12.166   8.808  -9.728  0.00  0.00    +0.000 A 
ATOM     32  C   UNL     1     -13.348   8.876  -8.984  0.00  0.00    +0.000 A 
ATOM     33  C   UNL     1     -14.216   9.954  -9.146  0.00  0.00    +0.000 A 
ATOM     34  C   UNL     1     -13.920  10.969 -10.058  0.00  0.00    +0.000 A 
ATOM     35  C   UNL     1     -12.756  10.911 -10.824  0.00  0.00    +0.000 A 
ATOM     36  C   UNL     1     -11.884   9.825 -10.653  0.00  0.00    +0.000 A 
ENDBRANCH  24  35
ENDBRANCH   1  27
TORSDOF 3
ENDMDL
MODEL 3
REMARK VINA RESULT:      -7.1      0.894      2.128
REMARK  Name = 
REMARK  4 active torsions:
REMARK  status: ('A' for Active; 'I' for Inactive)
REMARK    1  A    between atoms: C_1  and  C_2
REMARK    2  A    between atoms: C_6  and  N_7
REMARK    3  A    between atoms: N_10  and  N_11
REMARK    4  A    between atoms: N_22  and  C_23
REMARK                            x       y       z     vdW  Elec       q    Type
REMARK                         _______ _______ _______ _____ _____    ______ ____
ROOT
ATOM      1  N   UNL     1     -13.361  13.635 -12.263  0.00  0.00    +0.000 N 
ATOM      2  C   UNL     1     -14.660  13.514 -12.743  0.00  0.00    +0.000 A 
ATOM      3  N   UNL     1     -15.605  13.224 -11.886  0.00  0.00    +0.000 NA
ATOM      4  C   UNL     1     -16.912  13.039 -12.342  0.00  0.00    +0.000 A 
ATOM      5  C   UNL     1     -17.916  12.766 -11.408  0.00  0.00    +0.000 A 
ATOM      6  C   UNL     1     -19.235  12.553 -11.819  0.00  0.00    +0.000 A 
ATOM      7  C   UNL     1     -19.560  12.608 -13.172  0.00  0.00    +0.000 A 
ATOM      8  C   UNL     1     -18.567  12.879 -14.113  0.00  0.00    +0.000 A 
ATOM      9  C   UNL     1     -17.249  13.094 -13.689  0.00  0.00    +0.000 A 
ATOM     10  C   UNL     1     -16.182  13.400 -14.654  0.00  0.00    +0.000 A 
ATOM     11  O   UNL     1     -16.469  13.421 -15.851  0.00  0.00    +0.000 OA
ATOM     12  N   UNL     1     -14.920  13.668 -14.113  0.00  0.00    +0.000 N 
ATOM     13  H   UNL     1     -12.622  13.418 -12.941  0.00  0.00    +0.000 HD
ENDROOT
BRANCH  12  14
ATOM     14  C   UNL     1     -13.875  14.045 -15.020  0.00  0.00    +0.000 A 
ATOM     15  C   UNL     1     -13.035  13.032 -15.512  0.00  0.00    +0.000 A 
ATOM     16  C   UNL     1     -11.956  13.344 -16.332  0.00  0.00    +0.000 A 
ATOM     17  C   UNL     1     -11.710  14.669 -16.678  0.00  0.00    +0.000 A 
ATOM     18  C   UNL     1     -12.548  15.702 -16.230  0.00  0.00    +0.000 A 
ATOM     19  C   UNL     1     -12.293  17.028 -16.616  0.00  0.00    +0.000 A 
ATOM     20  C   UNL     1     -13.129  18.068 -16.214  0.00  0.00    +0.000 A 
ATOM     21  C   UNL     1     -14.239  17.793 -15.427  0.00  0.00    +0.000 A 
ATOM     22  C   UNL     1     -14.504  16.481 -15.033  0.00  0.00    +0.000 A 
ATOM     23  C   UNL     1     -13.659  15.403 -15.399  0.00  0.00    +0.000 A 
ENDBRANCH  12  14
BRANCH   1  27
ATOM     24  N   UNL     1     -12.842  10.995  -9.913  0.00  0.00    +0.000 N 
ATOM     25  C   UNL     1     -12.852  11.611 -11.146  0.00  0.00    +0.000 C 
ATOM     26  O   UNL     1     -12.632  11.100 -12.240  0.00  0.00    +0.000 OA
ATOM     27  N   UNL     1     -13.134  12.970 -11.022  0.00  0.00    +0.000 N 
ATOM     28  H   UNL     1     -12.875  11.619  -9.120  0.00  0.00    +0.000 HD
ATOM     29  H   UNL     1     -13.868  13.208 -10.354  0.00  0.00    +0.000 HD
BRANCH  24  35
ATOM     30  C   UNL     1     -14.752   6.870  -8.037  0.00  0.00    +0.000 C 
ATOM     31  C   UNL     1     -13.622   7.578  -8.723  0.00  0.00    +0.000 A 
ATOM     32  C   UNL     1     -12.438   6.897  -9.021  0.00  0.00    +0.000 A 
ATOM     33  C   UNL     1     -11.379   7.567  -9.631  0.00  0.00    +0.000 A 
ATOM     34  C   UNL     1     -11.487   8.925  -9.941  0.00  0.00    +0.000 A 
ATOM     35  C   UNL     1     -12.652   9.628  -9.634  0.00  0.00    +0.000 A 
ATOM     36  C   UNL     1     -13.716   8.945  -9.024  0.00  0.00    +0.000 A 
ENDBRANCH  24  35
ENDBRANCH   1  27
TORSDOF 3
ENDMDL
