MODEL 1
REMARK VINA RESULT:      -6.6      0.000      0.000
REMARK  Name = 
REMARK  6 active torsions:
REMARK  status: ('A' for Active; 'I' for Inactive)
REMARK    1  A    between atoms: C_1  and  C_2
REMARK    2  A    between atoms: C_4  and  O_5
REMARK    3  A    between atoms: C_7  and  C_8
REMARK    4  A    between atoms: N_10  and  C_11
REMARK    5  A    between atoms: C_13  and  C_14
REMARK    6  A    between atoms: C_24  and  C_25
REMARK                            x       y       z     vdW  Elec       q    Type
REMARK                         _______ _______ _______ _____ _____    ______ ____
ROOT
ATOM      1  C   UNL     1     -15.031  12.944 -13.247  0.00  0.00    +0.000 A 
ATOM      2  C   UNL     1     -15.345  14.266 -13.485  0.00  0.00    +0.000 A 
ATOM      3  C   UNL     1     -14.703  14.897 -14.532  0.00  0.00    +0.000 A 
ATOM      4  N   UNL     1     -14.936  16.230 -14.826  0.00  0.00    +0.000 N 
ATOM      5  C   UNL     1     -14.107  16.853 -15.869  0.00  0.00    +0.000 C 
ATOM      6  C   UNL     1     -14.353  18.371 -15.875  0.00  0.00    +0.000 C 
ATOM      7  O   UNL     1     -15.718  18.745 -16.123  0.00  0.00    +0.000 OA
ATOM      8  C   UNL     1     -16.657  17.707 -15.818  0.00  0.00    +0.000 C 
ATOM      9  C   UNL     1     -16.257  16.840 -14.611  0.00  0.00    +0.000 C 
ATOM     10  N   UNL     1     -13.797  14.230 -15.268  0.00  0.00    +0.000 NA
ATOM     11  C   UNL     1     -13.554  12.939 -14.982  0.00  0.00    +0.000 A 
ATOM     12  N   UNL     1     -14.151  12.256 -13.995  0.00  0.00    +0.000 NA
ENDROOT
BRANCH   1  18
ATOM     13  C   UNL     1     -15.144  11.411 -11.099  0.00  0.00    +0.000 A 
ATOM     14  N   UNL     1     -16.135  10.978 -10.297  0.00  0.00    +0.000 NA
ATOM     15  N   UNL     1     -17.259  11.410 -10.888  0.00  0.00    +0.000 N 
ATOM     16  C   UNL     1     -18.537  11.080 -10.306  0.00  0.00    +0.000 C 
ATOM     17  C   UNL     1     -17.038  12.151 -12.006  0.00  0.00    +0.000 A 
ATOM     18  C   UNL     1     -15.668  12.195 -12.175  0.00  0.00    +0.000 A 
BRANCH  13  24
ATOM     19  C   UNL     1     -11.162   8.511 -11.946  0.00  0.00    +0.000 C 
ATOM     20  C   UNL     1     -11.803   9.655 -11.218  0.00  0.00    +0.000 A 
ATOM     21  C   UNL     1     -11.105  10.344 -10.220  0.00  0.00    +0.000 A 
ATOM     22  C   UNL     1     -11.722  11.394  -9.543  0.00  0.00    +0.000 A 
ATOM     23  C   UNL     1     -13.033  11.761  -9.827  0.00  0.00    +0.000 A 
ATOM     24  C   UNL     1     -13.756  11.061 -10.799  0.00  0.00    +0.000 A 
ATOM     25  C   UNL     1     -13.131  10.014 -11.494  0.00  0.00    +0.000 A 
BRANCH  22  26
ATOM     26  O   UNL     1     -11.065  12.097  -8.576  0.00  0.00    +0.000 OA
ATOM     27  H   UNL     1     -11.215  11.665  -7.718  0.00  0.00    +0.000 HD
ENDBRANCH  22  26
ENDBRANCH  13  24
ENDBRANCH   1  18
BRANCH  11  28
ATOM     28  C   UNL     1     -12.568  12.228 -15.807  0.00  0.00    +0.000 A 
ATOM     29  C   UNL     1     -11.732  12.887 -16.723  0.00  0.00    +0.000 A 
ATOM     30  C   UNL     1     -10.810  12.173 -17.489  0.00  0.00    +0.000 A 
ATOM     31  C   UNL     1     -10.739  10.802 -17.322  0.00  0.00    +0.000 A 
ATOM     32  N   UNL     1     -11.516  10.117 -16.458  0.00  0.00    +0.000 NA
ATOM     33  C   UNL     1     -12.405  10.844 -15.730  0.00  0.00    +0.000 A 
ENDBRANCH  11  28
TORSDOF 4
ENDMDL
MODEL 2
REMARK VINA RESULT:      -6.4      3.218      7.515
REMARK  Name = 
REMARK  6 active torsions:
REMARK  status: ('A' for Active; 'I' for Inactive)
REMARK    1  A    between atoms: C_1  and  C_2
REMARK    2  A    between atoms: C_4  and  O_5
REMARK    3  A    between atoms: C_7  and  C_8
REMARK    4  A    between atoms: N_10  and  C_11
REMARK    5  A    between atoms: C_13  and  C_14
REMARK    6  A    between atoms: C_24  and  C_25
REMARK                            x       y       z     vdW  Elec       q    Type
REMARK                         _______ _______ _______ _____ _____    ______ ____
ROOT
ATOM      1  C   UNL     1     -17.127  10.907 -10.697  0.00  0.00    +0.000 A 
ATOM      2  C   UNL     1     -17.891  10.354  -9.690  0.00  0.00    +0.000 A 
ATOM      3  C   UNL     1     -17.257   9.519  -8.791  0.00  0.00    +0.000 A 
ATOM      4  N   UNL     1     -17.950   8.900  -7.765  0.00  0.00    +0.000 N 
ATOM      5  C   UNL     1     -17.222   7.924  -6.941  0.00  0.00    +0.000 C 
ATOM      6  C   UNL     1     -18.215   7.185  -6.030  0.00  0.00    +0.000 C 
ATOM      7  O   UNL     1     -18.948   8.042  -5.141  0.00  0.00    +0.000 OA
ATOM      8  C   UNL     1     -19.015   9.402  -5.587  0.00  0.00    +0.000 C 
ATOM      9  C   UNL     1     -19.098   9.552  -7.116  0.00  0.00    +0.000 C 
ATOM     10  N   UNL     1     -15.945   9.258  -8.922  0.00  0.00    +0.000 NA
ATOM     11  C   UNL     1     -15.265   9.845  -9.924  0.00  0.00    +0.000 A 
ATOM     12  N   UNL     1     -15.807  10.679 -10.821  0.00  0.00    +0.000 NA
ENDROOT
BRANCH   1  18
ATOM     13  C   UNL     1     -17.125  12.672 -12.662  0.00  0.00    +0.000 A 
ATOM     14  N   UNL     1     -18.080  13.251 -13.413  0.00  0.00    +0.000 NA
ATOM     15  N   UNL     1     -19.234  12.827 -12.877  0.00  0.00    +0.000 N 
ATOM     16  C   UNL     1     -20.484  13.299 -13.421  0.00  0.00    +0.000 C 
ATOM     17  C   UNL     1     -19.069  11.955 -11.847  0.00  0.00    +0.000 A 
ATOM     18  C   UNL     1     -17.706  11.807 -11.680  0.00  0.00    +0.000 A 
BRANCH  13  24
ATOM     19  C   UNL     1     -12.965  11.821 -15.300  0.00  0.00    +0.000 C 
ATOM     20  C   UNL     1     -13.683  12.563 -14.211  0.00  0.00    +0.000 A 
ATOM     21  C   UNL     1     -13.001  13.484 -13.408  0.00  0.00    +0.000 A 
ATOM     22  C   UNL     1     -13.680  14.151 -12.392  0.00  0.00    +0.000 A 
ATOM     23  C   UNL     1     -15.027  13.907 -12.145  0.00  0.00    +0.000 A 
ATOM     24  C   UNL     1     -15.716  12.966 -12.918  0.00  0.00    +0.000 A 
ATOM     25  C   UNL     1     -15.037  12.304 -13.953  0.00  0.00    +0.000 A 
BRANCH  22  26
ATOM     26  O   UNL     1     -13.050  15.067 -11.600  0.00  0.00    +0.000 OA
ATOM     27  H   UNL     1     -13.721  15.625 -11.173  0.00  0.00    +0.000 HD
ENDBRANCH  22  26
ENDBRANCH  13  24
ENDBRANCH   1  18
BRANCH  11  28
ATOM     28  C   UNL     1     -13.830   9.553 -10.040  0.00  0.00    +0.000 A 
ATOM     29  C   UNL     1     -12.946  10.373 -10.758  0.00  0.00    +0.000 A 
ATOM     30  C   UNL     1     -11.589  10.059 -10.844  0.00  0.00    +0.000 A 
ATOM     31  C   UNL     1     -11.138   8.919 -10.203  0.00  0.00    +0.000 A 
ATOM     32  N   UNL     1     -11.941   8.095  -9.500  0.00  0.00    +0.000 NA
ATOM     33  C   UNL     1     -13.257   8.431  -9.439  0.00  0.00    +0.000 A 
ENDBRANCH  11  28
TORSDOF 4
ENDMDL
MODEL 3
REMARK VINA RESULT:      -6.4      3.127      6.230
REMARK  Name = 
REMARK  6 active torsions:
REMARK  status: ('A' for Active; 'I' for Inactive)
REMARK    1  A    between atoms: C_1  and  C_2
REMARK    2  A    between atoms: C_4  and  O_5
REMARK    3  A    between atoms: C_7  and  C_8
REMARK    4  A    between atoms: N_10  and  C_11
REMARK    5  A    between atoms: C_13  and  C_14
REMARK    6  A    between atoms: C_24  and  C_25
REMARK                            x       y       z     vdW  Elec       q    Type
REMARK                         _______ _______ _______ _____ _____    ______ ____
ROOT
ATOM      1  C   UNL     1     -13.031   9.250 -12.289  0.00  0.00    +0.000 A 
ATOM      2  C   UNL     1     -13.111   9.658 -13.605  0.00  0.00    +0.000 A 
ATOM      3  C   UNL     1     -12.096   9.272 -14.457  0.00  0.00    +0.000 A 
ATOM      4  N   UNL     1     -12.081   9.658 -15.787  0.00  0.00    +0.000 N 
ATOM      5  C   UNL     1     -10.893   9.316 -16.583  0.00  0.00    +0.000 C 
ATOM      6  C   UNL     1     -10.967  10.031 -17.941  0.00  0.00    +0.000 C 
ATOM      7  O   UNL     1     -12.125   9.695 -18.722  0.00  0.00    +0.000 OA
ATOM      8  C   UNL     1     -13.213   9.190 -17.938  0.00  0.00    +0.000 C 
ATOM      9  C   UNL     1     -13.328   9.835 -16.545  0.00  0.00    +0.000 C 
ATOM     10  N   UNL     1     -11.069   8.538 -13.995  0.00  0.00    +0.000 NA
ATOM     11  C   UNL     1     -11.068   8.168 -12.701  0.00  0.00    +0.000 A 
ATOM     12  N   UNL     1     -12.026   8.489 -11.821  0.00  0.00    +0.000 NA
ENDROOT
BRANCH   1  18
ATOM     13  C   UNL     1     -14.819  10.791 -11.104  0.00  0.00    +0.000 A 
ATOM     14  N   UNL     1     -15.733  10.605 -10.135  0.00  0.00    +0.000 NA
ATOM     15  N   UNL     1     -15.514   9.355  -9.701  0.00  0.00    +0.000 N 
ATOM     16  C   UNL     1     -16.306   8.834  -8.613  0.00  0.00    +0.000 C 
ATOM     17  C   UNL     1     -14.535   8.704 -10.382  0.00  0.00    +0.000 A 
ATOM     18  C   UNL     1     -14.061   9.597 -11.324  0.00  0.00    +0.000 A 
BRANCH  13  24
ATOM     19  C   UNL     1     -16.218  13.854 -14.798  0.00  0.00    +0.000 C 
ATOM     20  C   UNL     1     -15.403  13.595 -13.565  0.00  0.00    +0.000 A 
ATOM     21  C   UNL     1     -14.506  14.558 -13.089  0.00  0.00    +0.000 A 
ATOM     22  C   UNL     1     -13.746  14.293 -11.953  0.00  0.00    +0.000 A 
ATOM     23  C   UNL     1     -13.846  13.075 -11.288  0.00  0.00    +0.000 A 
ATOM     24  C   UNL     1     -14.714  12.089 -11.770  0.00  0.00    +0.000 A 
ATOM     25  C   UNL     1     -15.493  12.360 -12.905  0.00  0.00    +0.000 A 
BRANCH  22  26
ATOM     26  O   UNL     1     -12.874  15.215 -11.453  0.00  0.00    +0.000 OA
ATOM     27  H   UNL     1     -12.919  16.017 -12.000  0.00  0.00    +0.000 HD
ENDBRANCH  22  26
ENDBRANCH  13  24
ENDBRANCH   1  18
BRANCH  11  28
ATOM     28  C   UNL     1      -9.941   7.357 -12.222  0.00  0.00    +0.000 A 
ATOM     29  C   UNL     1     -10.072   6.413 -11.191  0.00  0.00    +0.000 A 
ATOM     30  C   UNL     1      -8.975   5.664 -10.765  0.00  0.00    +0.000 A 
ATOM     31  C   UNL     1      -7.757   5.874 -11.385  0.00  0.00    +0.000 A 
ATOM     32  N   UNL     1      -7.572   6.765 -12.380  0.00  0.00    +0.000 NA
ATOM     33  C   UNL     1      -8.663   7.479 -12.768  0.00  0.00    +0.000 A 
ENDBRANCH  11  28
TORSDOF 4
ENDMDL
