MODEL 1
REMARK VINA RESULT:      -6.6      0.000      0.000
REMARK  Name = 
REMARK  8 active torsions:
REMARK  status: ('A' for Active; 'I' for Inactive)
REMARK    1  A    between atoms: C_1  and  C_2
REMARK    2  A    between atoms: C_2  and  C_3
REMARK    3  A    between atoms: C_6  and  C_7
REMARK    4  A    between atoms: C_9  and  C_10
REMARK    5  A    between atoms: N_13  and  C_14
REMARK    6  A    between atoms: C_14  and  C_15
REMARK    7  A    between atoms: C_18  and  C_19
REMARK    8  A    between atoms: C_24  and  C_25
REMARK                            x       y       z     vdW  Elec       q    Type
REMARK                         _______ _______ _______ _____ _____    ______ ____
ROOT
ATOM      1  C   UNL     1      26.538  32.807  50.395  0.00  0.00    +0.000 A 
ATOM      2  C   UNL     1      26.310  34.102  50.882  0.00  0.00    +0.000 A 
ATOM      3  C   UNL     1      25.396  34.322  51.917  0.00  0.00    +0.000 A 
ATOM      4  C   UNL     1      24.682  33.257  52.485  0.00  0.00    +0.000 A 
ATOM      5  C   UNL     1      24.881  31.970  51.967  0.00  0.00    +0.000 A 
ATOM      6  C   UNL     1      25.796  31.747  50.935  0.00  0.00    +0.000 A 
ENDROOT
BRANCH   4   7
ATOM      7  C   UNL     1      23.753  33.485  53.605  0.00  0.00    +0.000 A 
ATOM      8  C   UNL     1      24.286  33.580  54.908  0.00  0.00    +0.000 A 
ATOM      9  C   UNL     1      23.470  33.839  56.010  0.00  0.00    +0.000 A 
ATOM     10  C   UNL     1      22.102  34.015  55.833  0.00  0.00    +0.000 A 
ATOM     11  C   UNL     1      21.551  33.923  54.555  0.00  0.00    +0.000 A 
ATOM     12  C   UNL     1      22.358  33.647  53.435  0.00  0.00    +0.000 A 
BRANCH  12  13
ATOM     13  C   UNL     1      21.705  33.548  52.136  0.00  0.00    +0.000 A 
ATOM     14  N   UNL     1      21.234  32.352  51.637  0.00  0.00    +0.000 NA
ATOM     15  N   UNL     1      20.695  32.615  50.455  0.00  0.00    +0.000 NA
ATOM     16  N   UNL     1      20.867  33.932  50.293  0.00  0.00    +0.000 N 
ATOM     17  N   UNL     1      21.525  34.564  51.274  0.00  0.00    +0.000 NA
ATOM     18  H   UNL     1      20.521  34.419  49.471  0.00  0.00    +0.000 HD
ENDBRANCH  12  13
ENDBRANCH   4   7
BRANCH   1  19
ATOM     19  C   UNL     1      27.560  32.562  49.312  0.00  0.00    +0.000 C 
BRANCH  19  30
ATOM     20  C   UNL     1      27.765  34.560  47.744  0.00  0.00    +0.000 A 
ATOM     21  N   UNL     1      28.551  35.615  47.604  0.00  0.00    +0.000 NA
ATOM     22  C   UNL     1      29.484  35.522  48.608  0.00  0.00    +0.000 A 
ATOM     23  C   UNL     1      30.563  36.354  48.942  0.00  0.00    +0.000 A 
ATOM     24  C   UNL     1      30.914  37.602  48.194  0.00  0.00    +0.000 C 
ATOM     25  C   UNL     1      31.330  35.947  50.048  0.00  0.00    +0.000 A 
ATOM     26  C   UNL     1      31.007  34.778  50.749  0.00  0.00    +0.000 A 
ATOM     27  C   UNL     1      31.850  34.377  51.925  0.00  0.00    +0.000 C 
ATOM     28  N   UNL     1      29.970  33.963  50.442  0.00  0.00    +0.000 NA
ATOM     29  C   UNL     1      29.262  34.390  49.379  0.00  0.00    +0.000 A 
ATOM     30  N   UNL     1      28.153  33.798  48.830  0.00  0.00    +0.000 N 
BRANCH  20  32
ATOM     31  C   UNL     1      26.515  35.236  45.699  0.00  0.00    +0.000 C 
ATOM     32  C   UNL     1      26.621  34.239  46.841  0.00  0.00    +0.000 C 
ENDBRANCH  20  32
ENDBRANCH  19  30
ENDBRANCH   1  19
TORSDOF 5
ENDMDL
MODEL 2
REMARK VINA RESULT:      -6.5      0.802      1.252
REMARK  Name = 
REMARK  8 active torsions:
REMARK  status: ('A' for Active; 'I' for Inactive)
REMARK    1  A    between atoms: C_1  and  C_2
REMARK    2  A    between atoms: C_2  and  C_3
REMARK    3  A    between atoms: C_6  and  C_7
REMARK    4  A    between atoms: C_9  and  C_10
REMARK    5  A    between atoms: N_13  and  C_14
REMARK    6  A    between atoms: C_14  and  C_15
REMARK    7  A    between atoms: C_18  and  C_19
REMARK    8  A    between atoms: C_24  and  C_25
REMARK                            x       y       z     vdW  Elec       q    Type
REMARK                         _______ _______ _______ _____ _____    ______ ____
ROOT
ATOM      1  C   UNL     1      26.121  32.613  50.483  0.00  0.00    +0.000 A 
ATOM      2  C   UNL     1      25.200  31.682  50.981  0.00  0.00    +0.000 A 
ATOM      3  C   UNL     1      24.370  32.009  52.057  0.00  0.00    +0.000 A 
ATOM      4  C   UNL     1      24.444  33.270  52.666  0.00  0.00    +0.000 A 
ATOM      5  C   UNL     1      25.396  34.183  52.193  0.00  0.00    +0.000 A 
ATOM      6  C   UNL     1      26.226  33.860  51.115  0.00  0.00    +0.000 A 
ENDROOT
BRANCH   4   7
ATOM      7  C   UNL     1      23.538  33.629  53.770  0.00  0.00    +0.000 A 
ATOM      8  C   UNL     1      24.053  33.637  55.083  0.00  0.00    +0.000 A 
ATOM      9  C   UNL     1      23.264  34.010  56.172  0.00  0.00    +0.000 A 
ATOM     10  C   UNL     1      21.942  34.390  55.971  0.00  0.00    +0.000 A 
ATOM     11  C   UNL     1      21.408  34.388  54.682  0.00  0.00    +0.000 A 
ATOM     12  C   UNL     1      22.186  34.000  53.575  0.00  0.00    +0.000 A 
BRANCH  12  13
ATOM     13  C   UNL     1      21.551  34.007  52.263  0.00  0.00    +0.000 A 
ATOM     14  N   UNL     1      20.816  32.939  51.795  0.00  0.00    +0.000 NA
ATOM     15  N   UNL     1      20.376  33.275  50.590  0.00  0.00    +0.000 NA
ATOM     16  N   UNL     1      20.863  34.504  50.386  0.00  0.00    +0.000 N 
ATOM     17  N   UNL     1      21.637  35.000  51.360  0.00  0.00    +0.000 NA
ATOM     18  H   UNL     1      20.659  35.026  49.538  0.00  0.00    +0.000 HD
ENDBRANCH  12  13
ENDBRANCH   4   7
BRANCH   1  19
ATOM     19  C   UNL     1      26.984  32.279  49.290  0.00  0.00    +0.000 C 
BRANCH  19  30
ATOM     20  C   UNL     1      26.919  34.041  47.450  0.00  0.00    +0.000 A 
ATOM     21  N   UNL     1      27.608  35.115  47.102  0.00  0.00    +0.000 NA
ATOM     22  C   UNL     1      28.614  35.231  48.030  0.00  0.00    +0.000 A 
ATOM     23  C   UNL     1      29.645  36.174  48.157  0.00  0.00    +0.000 A 
ATOM     24  C   UNL     1      29.843  37.322  47.218  0.00  0.00    +0.000 C 
ATOM     25  C   UNL     1      30.519  35.984  49.242  0.00  0.00    +0.000 A 
ATOM     26  C   UNL     1      30.340  34.908  50.121  0.00  0.00    +0.000 A 
ATOM     27  C   UNL     1      31.293  34.738  51.270  0.00  0.00    +0.000 C 
ATOM     28  N   UNL     1      29.350  33.989  50.016  0.00  0.00    +0.000 NA
ATOM     29  C   UNL     1      28.537  34.210  48.965  0.00  0.00    +0.000 A 
ATOM     30  N   UNL     1      27.442  33.471  48.595  0.00  0.00    +0.000 N 
BRANCH  20  32
ATOM     31  C   UNL     1      24.438  34.078  47.238  0.00  0.00    +0.000 C 
ATOM     32  C   UNL     1      25.743  33.516  46.696  0.00  0.00    +0.000 C 
ENDBRANCH  20  32
ENDBRANCH  19  30
ENDBRANCH   1  19
TORSDOF 5
ENDMDL
MODEL 3
REMARK VINA RESULT:      -6.3      1.108      3.147
REMARK  Name = 
REMARK  8 active torsions:
REMARK  status: ('A' for Active; 'I' for Inactive)
REMARK    1  A    between atoms: C_1  and  C_2
REMARK    2  A    between atoms: C_2  and  C_3
REMARK    3  A    between atoms: C_6  and  C_7
REMARK    4  A    between atoms: C_9  and  C_10
REMARK    5  A    between atoms: N_13  and  C_14
REMARK    6  A    between atoms: C_14  and  C_15
REMARK    7  A    between atoms: C_18  and  C_19
REMARK    8  A    between atoms: C_24  and  C_25
REMARK                            x       y       z     vdW  Elec       q    Type
REMARK                         _______ _______ _______ _____ _____    ______ ____
ROOT
ATOM      1  C   UNL     1      27.283  32.729  50.432  0.00  0.00    +0.000 A 
ATOM      2  C   UNL     1      26.529  31.645  50.901  0.00  0.00    +0.000 A 
ATOM      3  C   UNL     1      25.436  31.852  51.747  0.00  0.00    +0.000 A 
ATOM      4  C   UNL     1      25.073  33.145  52.151  0.00  0.00    +0.000 A 
ATOM      5  C   UNL     1      25.855  34.223  51.714  0.00  0.00    +0.000 A 
ATOM      6  C   UNL     1      26.947  34.019  50.866  0.00  0.00    +0.000 A 
ENDROOT
BRANCH   4   7
ATOM      7  C   UNL     1      23.894  33.366  53.006  0.00  0.00    +0.000 A 
ATOM      8  C   UNL     1      24.096  33.552  54.389  0.00  0.00    +0.000 A 
ATOM      9  C   UNL     1      23.030  33.810  55.251  0.00  0.00    +0.000 A 
ATOM     10  C   UNL     1      21.737  33.894  54.748  0.00  0.00    +0.000 A 
ATOM     11  C   UNL     1      21.510  33.711  53.384  0.00  0.00    +0.000 A 
ATOM     12  C   UNL     1      22.574  33.435  52.503  0.00  0.00    +0.000 A 
BRANCH  12  13
ATOM     13  C   UNL     1      22.254  33.238  51.094  0.00  0.00    +0.000 A 
ATOM     14  N   UNL     1      22.187  34.284  50.200  0.00  0.00    +0.000 NA
ATOM     15  N   UNL     1      21.889  33.762  49.019  0.00  0.00    +0.000 NA
ATOM     16  N   UNL     1      21.783  32.448  49.251  0.00  0.00    +0.000 N 
ATOM     17  N   UNL     1      21.951  32.059  50.522  0.00  0.00    +0.000 NA
ATOM     18  H   UNL     1      21.583  31.788  48.504  0.00  0.00    +0.000 HD
ENDBRANCH  12  13
ENDBRANCH   4   7
BRANCH   1  19
ATOM     19  C   UNL     1      28.433  32.510  49.479  0.00  0.00    +0.000 C 
BRANCH  19  30
ATOM     20  C   UNL     1      30.449  33.861  50.259  0.00  0.00    +0.000 A 
ATOM     21  N   UNL     1      31.032  35.009  49.956  0.00  0.00    +0.000 NA
ATOM     22  C   UNL     1      30.276  35.558  48.950  0.00  0.00    +0.000 A 
ATOM     23  C   UNL     1      30.415  36.764  48.247  0.00  0.00    +0.000 A 
ATOM     24  C   UNL     1      31.514  37.749  48.494  0.00  0.00    +0.000 C 
ATOM     25  C   UNL     1      29.439  37.017  47.266  0.00  0.00    +0.000 A 
ATOM     26  C   UNL     1      28.406  36.100  47.034  0.00  0.00    +0.000 A 
ATOM     27  C   UNL     1      27.383  36.406  45.978  0.00  0.00    +0.000 C 
ATOM     28  N   UNL     1      28.256  34.931  47.701  0.00  0.00    +0.000 NA
ATOM     29  C   UNL     1      29.212  34.728  48.628  0.00  0.00    +0.000 A 
ATOM     30  N   UNL     1      29.346  33.642  49.456  0.00  0.00    +0.000 N 
BRANCH  20  32
ATOM     31  C   UNL     1      31.997  33.581  52.189  0.00  0.00    +0.000 C 
ATOM     32  C   UNL     1      30.921  32.936  51.331  0.00  0.00    +0.000 C 
ENDBRANCH  20  32
ENDBRANCH  19  30
ENDBRANCH   1  19
TORSDOF 5
ENDMDL
