MODEL 1
REMARK VINA RESULT:      -5.4      0.000      0.000
REMARK  Name = 
REMARK  10 active torsions:
REMARK  status: ('A' for Active; 'I' for Inactive)
REMARK    1  A    between atoms: C_1  and  C_2
REMARK    2  A    between atoms: C_3  and  C_4
REMARK    3  A    between atoms: C_7  and  C_8
REMARK    4  A    between atoms: C_9  and  O_10
REMARK    5  A    between atoms: C_13  and  C_14
REMARK    6  A    between atoms: C_13  and  C_15
REMARK    7  A    between atoms: C_15  and  O_16
REMARK    8  A    between atoms: O_16  and  C_17
REMARK    9  A    between atoms: C_20  and  C_21
REMARK   10  A    between atoms: C_21  and  C_22
REMARK                            x       y       z     vdW  Elec       q    Type
REMARK                         _______ _______ _______ _____ _____    ______ ____
ROOT
ATOM      1  C   UNL     1     -23.652  17.473  -1.357  0.00  0.00    +0.000 C 
ENDROOT
BRANCH   1  13
ATOM      2  C   UNL     1     -21.233  11.565   0.409  0.00  0.00    +0.000 C 
ATOM      3  C   UNL     1     -21.448  13.046   0.599  0.00  0.00    +0.000 A 
ATOM      4  C   UNL     1     -22.655  13.660   0.203  0.00  0.00    +0.000 A 
ATOM      5  C   UNL     1     -23.770  12.849  -0.412  0.00  0.00    +0.000 C 
ATOM      6  C   UNL     1     -22.838  15.038   0.437  0.00  0.00    +0.000 A 
ATOM      7  C   UNL     1     -21.821  15.825   1.008  0.00  0.00    +0.000 A 
ATOM      8  C   UNL     1     -20.573  15.234   1.313  0.00  0.00    +0.000 A 
ATOM      9  C   UNL     1     -19.434  16.062   1.852  0.00  0.00    +0.000 C 
ATOM     10  C   UNL     1     -20.426  13.846   1.137  0.00  0.00    +0.000 A 
ATOM     11  C   UNL     1     -22.059  17.293   1.252  0.00  0.00    +0.000 C 
ATOM     12  C   UNL     1     -23.536  17.640   1.200  0.00  0.00    +0.000 C 
ATOM     13  C   UNL     1     -24.213  16.968   0.000  0.00  0.00    +0.000 C 
ATOM     14  C   UNL     1     -25.725  17.239   0.079  0.00  0.00    +0.000 C 
ATOM     15  O   UNL     1     -24.070  15.541   0.095  0.00  0.00    +0.000 OA
BRANCH  10  16
ATOM     16  O   UNL     1     -19.261  13.216   1.490  0.00  0.00    +0.000 OA
ATOM     17  H   UNL     1     -19.121  13.333   2.443  0.00  0.00    +0.000 HD
ENDBRANCH  10  16
ENDBRANCH   1  13
BRANCH   1  18
ATOM     18  O   UNL     1     -24.453  16.983  -2.439  0.00  0.00    +0.000 OA
BRANCH  18  19
ATOM     19  C   UNL     1     -24.103  15.782  -2.987  0.00  0.00    +0.000 A 
ATOM     20  C   UNL     1     -22.727  15.563  -3.080  0.00  0.00    +0.000 A 
ATOM     21  C   UNL     1     -22.227  14.375  -3.617  0.00  0.00    +0.000 A 
ATOM     22  C   UNL     1     -23.100  13.381  -4.072  0.00  0.00    +0.000 A 
ATOM     23  C   UNL     1     -24.480  13.609  -3.985  0.00  0.00    +0.000 A 
ATOM     24  C   UNL     1     -24.979  14.800  -3.446  0.00  0.00    +0.000 A 
BRANCH  22  25
ATOM     25  C   UNL     1     -22.568  12.085  -4.641  0.00  0.00    +0.000 C 
BRANCH  25  26
ATOM     26  C   UNL     1     -21.042  11.971  -4.745  0.00  0.00    +0.000 C 
ATOM     27  S   UNL     1     -20.245  11.156  -3.320  0.00  0.00    +0.000 S 
ATOM     28  C   UNL     1     -19.508   9.926  -4.312  0.00  0.00    +0.000 C 
ATOM     29  O   UNL     1     -18.814   9.025  -3.876  0.00  0.00    +0.000 OA
ATOM     30  N   UNL     1     -19.802  10.129  -5.617  0.00  0.00    +0.000 N 
ATOM     31  C   UNL     1     -20.599  11.180  -5.956  0.00  0.00    +0.000 C 
ATOM     32  O   UNL     1     -20.904  11.444  -7.112  0.00  0.00    +0.000 OA
ATOM     33  H   UNL     1     -19.441   9.505  -6.318  0.00  0.00    +0.000 HD
ENDBRANCH  25  26
ENDBRANCH  22  25
ENDBRANCH  18  19
ENDBRANCH   1  18
TORSDOF 6
ENDMDL
MODEL 2
REMARK VINA RESULT:      -5.3     11.589     14.280
REMARK  Name = 
REMARK  10 active torsions:
REMARK  status: ('A' for Active; 'I' for Inactive)
REMARK    1  A    between atoms: C_1  and  C_2
REMARK    2  A    between atoms: C_3  and  C_4
REMARK    3  A    between atoms: C_7  and  C_8
REMARK    4  A    between atoms: C_9  and  O_10
REMARK    5  A    between atoms: C_13  and  C_14
REMARK    6  A    between atoms: C_13  and  C_15
REMARK    7  A    between atoms: C_15  and  O_16
REMARK    8  A    between atoms: O_16  and  C_17
REMARK    9  A    between atoms: C_20  and  C_21
REMARK   10  A    between atoms: C_21  and  C_22
REMARK                            x       y       z     vdW  Elec       q    Type
REMARK                         _______ _______ _______ _____ _____    ______ ____
ROOT
ATOM      1  C   UNL     1     -14.650  11.867 -14.202  0.00  0.00    +0.000 C 
ENDROOT
BRANCH   1  13
ATOM      2  C   UNL     1     -16.102   8.816  -8.505  0.00  0.00    +0.000 C 
ATOM      3  C   UNL     1     -15.377   9.843  -9.338  0.00  0.00    +0.000 A 
ATOM      4  C   UNL     1     -16.006  10.457 -10.441  0.00  0.00    +0.000 A 
ATOM      5  C   UNL     1     -17.428  10.111 -10.812  0.00  0.00    +0.000 C 
ATOM      6  C   UNL     1     -15.313  11.445 -11.170  0.00  0.00    +0.000 A 
ATOM      7  C   UNL     1     -13.987  11.793 -10.853  0.00  0.00    +0.000 A 
ATOM      8  C   UNL     1     -13.318  11.108  -9.812  0.00  0.00    +0.000 A 
ATOM      9  C   UNL     1     -11.873  11.399  -9.496  0.00  0.00    +0.000 C 
ATOM     10  C   UNL     1     -14.042  10.172  -9.050  0.00  0.00    +0.000 A 
ATOM     11  C   UNL     1     -13.283  12.862 -11.649  0.00  0.00    +0.000 C 
ATOM     12  C   UNL     1     -14.261  13.702 -12.452  0.00  0.00    +0.000 C 
ATOM     13  C   UNL     1     -15.295  12.814 -13.153  0.00  0.00    +0.000 C 
ATOM     14  C   UNL     1     -16.336  13.721 -13.831  0.00  0.00    +0.000 C 
ATOM     15  O   UNL     1     -16.024  12.049 -12.178  0.00  0.00    +0.000 OA
BRANCH  10  16
ATOM     16  O   UNL     1     -13.459   9.540  -7.983  0.00  0.00    +0.000 OA
ATOM     17  H   UNL     1     -14.036   8.814  -7.699  0.00  0.00    +0.000 HD
ENDBRANCH  10  16
ENDBRANCH   1  13
BRANCH   1  18
ATOM     18  O   UNL     1     -15.156  10.536 -14.048  0.00  0.00    +0.000 OA
BRANCH  18  19
ATOM     19  C   UNL     1     -14.275   9.570 -13.653  0.00  0.00    +0.000 A 
ATOM     20  C   UNL     1     -12.931   9.901 -13.828  0.00  0.00    +0.000 A 
ATOM     21  C   UNL     1     -11.921   9.008 -13.465  0.00  0.00    +0.000 A 
ATOM     22  C   UNL     1     -12.243   7.762 -12.915  0.00  0.00    +0.000 A 
ATOM     23  C   UNL     1     -13.593   7.429 -12.749  0.00  0.00    +0.000 A 
ATOM     24  C   UNL     1     -14.604   8.327 -13.114  0.00  0.00    +0.000 A 
BRANCH  22  25
ATOM     25  C   UNL     1     -11.155   6.794 -12.503  0.00  0.00    +0.000 C 
BRANCH  25  26
ATOM     26  C   UNL     1     -10.290   7.220 -11.311  0.00  0.00    +0.000 C 
ATOM     27  S   UNL     1     -11.177   7.284  -9.718  0.00  0.00    +0.000 S 
ATOM     28  C   UNL     1     -10.089   6.154  -8.956  0.00  0.00    +0.000 C 
ATOM     29  O   UNL     1     -10.199   5.773  -7.804  0.00  0.00    +0.000 OA
ATOM     30  N   UNL     1      -9.111   5.784  -9.815  0.00  0.00    +0.000 N 
ATOM     31  C   UNL     1      -9.120   6.289 -11.080  0.00  0.00    +0.000 C 
ATOM     32  O   UNL     1      -8.267   6.018 -11.915  0.00  0.00    +0.000 OA
ATOM     33  H   UNL     1      -8.397   5.139  -9.519  0.00  0.00    +0.000 HD
ENDBRANCH  25  26
ENDBRANCH  22  25
ENDBRANCH  18  19
ENDBRANCH   1  18
TORSDOF 6
ENDMDL
MODEL 3
REMARK VINA RESULT:      -5.3     12.391     16.306
REMARK  Name = 
REMARK  10 active torsions:
REMARK  status: ('A' for Active; 'I' for Inactive)
REMARK    1  A    between atoms: C_1  and  C_2
REMARK    2  A    between atoms: C_3  and  C_4
REMARK    3  A    between atoms: C_7  and  C_8
REMARK    4  A    between atoms: C_9  and  O_10
REMARK    5  A    between atoms: C_13  and  C_14
REMARK    6  A    between atoms: C_13  and  C_15
REMARK    7  A    between atoms: C_15  and  O_16
REMARK    8  A    between atoms: O_16  and  C_17
REMARK    9  A    between atoms: C_20  and  C_21
REMARK   10  A    between atoms: C_21  and  C_22
REMARK                            x       y       z     vdW  Elec       q    Type
REMARK                         _______ _______ _______ _____ _____    ______ ____
ROOT
ATOM      1  C   UNL     1     -10.721   6.442 -13.087  0.00  0.00    +0.000 C 
ENDROOT
BRANCH   1  13
ATOM      2  C   UNL     1     -13.550  10.525  -8.706  0.00  0.00    +0.000 C 
ATOM      3  C   UNL     1     -13.008   9.189  -9.150  0.00  0.00    +0.000 A 
ATOM      4  C   UNL     1     -11.890   9.109 -10.007  0.00  0.00    +0.000 A 
ATOM      5  C   UNL     1     -11.199  10.359 -10.495  0.00  0.00    +0.000 C 
ATOM      6  C   UNL     1     -11.385   7.843 -10.366  0.00  0.00    +0.000 A 
ATOM      7  C   UNL     1     -12.004   6.657  -9.930  0.00  0.00    +0.000 A 
ATOM      8  C   UNL     1     -13.184   6.734  -9.154  0.00  0.00    +0.000 A 
ATOM      9  C   UNL     1     -13.919   5.485  -8.735  0.00  0.00    +0.000 C 
ATOM     10  C   UNL     1     -13.640   8.001  -8.748  0.00  0.00    +0.000 A 
ATOM     11  C   UNL     1     -11.427   5.322 -10.325  0.00  0.00    +0.000 C 
ATOM     12  C   UNL     1     -10.001   5.454 -10.832  0.00  0.00    +0.000 C 
ATOM     13  C   UNL     1      -9.872   6.634 -11.800  0.00  0.00    +0.000 C 
ATOM     14  C   UNL     1      -8.389   6.803 -12.168  0.00  0.00    +0.000 C 
ATOM     15  O   UNL     1     -10.248   7.853 -11.138  0.00  0.00    +0.000 OA
BRANCH  10  16
ATOM     16  O   UNL     1     -14.735   8.121  -7.932  0.00  0.00    +0.000 OA
ATOM     17  H   UNL     1     -15.099   9.014  -8.030  0.00  0.00    +0.000 HD
ENDBRANCH  10  16
ENDBRANCH   1  13
BRANCH   1  18
ATOM     18  O   UNL     1     -10.342   7.402 -14.080  0.00  0.00    +0.000 OA
BRANCH  18  19
ATOM     19  C   UNL     1     -11.269   8.342 -14.432  0.00  0.00    +0.000 A 
ATOM     20  C   UNL     1     -11.029   8.967 -15.656  0.00  0.00    +0.000 A 
ATOM     21  C   UNL     1     -11.898   9.947 -16.141  0.00  0.00    +0.000 A 
ATOM     22  C   UNL     1     -13.028  10.317 -15.405  0.00  0.00    +0.000 A 
ATOM     23  C   UNL     1     -13.261   9.694 -14.172  0.00  0.00    +0.000 A 
ATOM     24  C   UNL     1     -12.389   8.712 -13.688  0.00  0.00    +0.000 A 
BRANCH  22  25
ATOM     25  C   UNL     1     -13.984  11.366 -15.930  0.00  0.00    +0.000 C 
BRANCH  25  26
ATOM     26  C   UNL     1     -14.052  12.674 -15.133  0.00  0.00    +0.000 C 
ATOM     27  S   UNL     1     -14.896  12.534 -13.521  0.00  0.00    +0.000 S 
ATOM     28  C   UNL     1     -13.510  13.113 -12.636  0.00  0.00    +0.000 C 
ATOM     29  O   UNL     1     -13.476  13.229 -11.423  0.00  0.00    +0.000 OA
ATOM     30  N   UNL     1     -12.502  13.425 -13.482  0.00  0.00    +0.000 N 
ATOM     31  C   UNL     1     -12.683  13.236 -14.819  0.00  0.00    +0.000 C 
ATOM     32  O   UNL     1     -11.829  13.504 -15.655  0.00  0.00    +0.000 OA
ATOM     33  H   UNL     1     -11.633  13.782 -13.122  0.00  0.00    +0.000 HD
ENDBRANCH  25  26
ENDBRANCH  22  25
ENDBRANCH  18  19
ENDBRANCH   1  18
TORSDOF 6
ENDMDL
