MODEL 1
REMARK VINA RESULT:      -6.9      0.000      0.000
REMARK  Name = 
REMARK  4 active torsions:
REMARK  status: ('A' for Active; 'I' for Inactive)
REMARK    1  A    between atoms: C_1  and  C_2
REMARK    2  A    between atoms: C_6  and  N_7
REMARK    3  A    between atoms: N_10  and  N_11
REMARK    4  A    between atoms: N_22  and  C_23
REMARK                            x       y       z     vdW  Elec       q    Type
REMARK                         _______ _______ _______ _____ _____    ______ ____
ROOT
ATOM      1  N   UNL     1      26.004  33.376  48.592  0.00  0.00    +0.000 N 
ATOM      2  C   UNL     1      27.262  33.960  48.678  0.00  0.00    +0.000 A 
ATOM      3  N   UNL     1      28.076  33.528  49.608  0.00  0.00    +0.000 NA
ATOM      4  C   UNL     1      29.327  34.131  49.759  0.00  0.00    +0.000 A 
ATOM      5  C   UNL     1      30.197  33.633  50.733  0.00  0.00    +0.000 A 
ATOM      6  C   UNL     1      31.452  34.217  50.936  0.00  0.00    +0.000 A 
ATOM      7  C   UNL     1      31.844  35.309  50.165  0.00  0.00    +0.000 A 
ATOM      8  C   UNL     1      30.983  35.814  49.191  0.00  0.00    +0.000 A 
ATOM      9  C   UNL     1      29.730  35.219  48.995  0.00  0.00    +0.000 A 
ATOM     10  C   UNL     1      28.807  35.717  47.963  0.00  0.00    +0.000 A 
ATOM     11  O   UNL     1      29.146  36.699  47.304  0.00  0.00    +0.000 OA
ATOM     12  N   UNL     1      27.615  35.001  47.807  0.00  0.00    +0.000 N 
ATOM     13  H   UNL     1      25.267  33.977  48.208  0.00  0.00    +0.000 HD
ENDROOT
BRANCH  12  14
ATOM     14  C   UNL     1      26.726  35.413  46.759  0.00  0.00    +0.000 A 
ATOM     15  C   UNL     1      25.807  36.436  47.041  0.00  0.00    +0.000 A 
ATOM     16  C   UNL     1      24.868  36.826  46.093  0.00  0.00    +0.000 A 
ATOM     17  C   UNL     1      24.842  36.203  44.848  0.00  0.00    +0.000 A 
ATOM     18  C   UNL     1      25.767  35.199  44.523  0.00  0.00    +0.000 A 
ATOM     19  C   UNL     1      25.737  34.606  43.250  0.00  0.00    +0.000 A 
ATOM     20  C   UNL     1      26.664  33.632  42.888  0.00  0.00    +0.000 A 
ATOM     21  C   UNL     1      27.643  33.244  43.792  0.00  0.00    +0.000 A 
ATOM     22  C   UNL     1      27.684  33.821  45.062  0.00  0.00    +0.000 A 
ATOM     23  C   UNL     1      26.738  34.794  45.473  0.00  0.00    +0.000 A 
ENDBRANCH  12  14
BRANCH   1  27
ATOM     24  N   UNL     1      24.423  32.896  51.759  0.00  0.00    +0.000 N 
ATOM     25  C   UNL     1      24.642  33.471  50.526  0.00  0.00    +0.000 C 
ATOM     26  O   UNL     1      24.110  34.475  50.062  0.00  0.00    +0.000 OA
ATOM     27  N   UNL     1      25.575  32.738  49.794  0.00  0.00    +0.000 N 
ATOM     28  H   UNL     1      24.826  31.980  51.885  0.00  0.00    +0.000 HD
ATOM     29  H   UNL     1      26.378  32.399  50.321  0.00  0.00    +0.000 HD
BRANCH  24  35
ATOM     30  C   UNL     1      23.998  33.891  56.557  0.00  0.00    +0.000 C 
ATOM     31  C   UNL     1      23.406  33.887  55.178  0.00  0.00    +0.000 A 
ATOM     32  C   UNL     1      22.087  34.302  54.973  0.00  0.00    +0.000 A 
ATOM     33  C   UNL     1      21.534  34.267  53.694  0.00  0.00    +0.000 A 
ATOM     34  C   UNL     1      22.286  33.808  52.610  0.00  0.00    +0.000 A 
ATOM     35  C   UNL     1      23.598  33.372  52.797  0.00  0.00    +0.000 A 
ATOM     36  C   UNL     1      24.150  33.414  54.087  0.00  0.00    +0.000 A 
ENDBRANCH  24  35
ENDBRANCH   1  27
TORSDOF 3
ENDMDL
MODEL 2
REMARK VINA RESULT:      -6.8      8.406     11.243
REMARK  Name = 
REMARK  4 active torsions:
REMARK  status: ('A' for Active; 'I' for Inactive)
REMARK    1  A    between atoms: C_1  and  C_2
REMARK    2  A    between atoms: C_6  and  N_7
REMARK    3  A    between atoms: N_10  and  N_11
REMARK    4  A    between atoms: N_22  and  C_23
REMARK                            x       y       z     vdW  Elec       q    Type
REMARK                         _______ _______ _______ _____ _____    ______ ____
ROOT
ATOM      1  N   UNL     1      34.854  40.290  46.782  0.00  0.00    +0.000 N 
ATOM      2  C   UNL     1      36.060  40.841  47.199  0.00  0.00    +0.000 A 
ATOM      3  N   UNL     1      36.565  40.424  48.333  0.00  0.00    +0.000 NA
ATOM      4  C   UNL     1      37.746  40.996  48.810  0.00  0.00    +0.000 A 
ATOM      5  C   UNL     1      38.291  40.513  50.003  0.00  0.00    +0.000 A 
ATOM      6  C   UNL     1      39.460  41.068  50.531  0.00  0.00    +0.000 A 
ATOM      7  C   UNL     1      40.094  42.116  49.868  0.00  0.00    +0.000 A 
ATOM      8  C   UNL     1      39.560  42.606  48.677  0.00  0.00    +0.000 A 
ATOM      9  C   UNL     1      38.388  42.041  48.156  0.00  0.00    +0.000 A 
ATOM     10  C   UNL     1      37.810  42.522  46.892  0.00  0.00    +0.000 A 
ATOM     11  O   UNL     1      38.357  43.467  46.325  0.00  0.00    +0.000 OA
ATOM     12  N   UNL     1      36.682  41.836  46.430  0.00  0.00    +0.000 N 
ATOM     13  H   UNL     1      34.277  40.897  46.189  0.00  0.00    +0.000 HD
ENDROOT
BRANCH  12  14
ATOM     14  C   UNL     1      36.137  42.230  45.163  0.00  0.00    +0.000 A 
ATOM     15  C   UNL     1      36.537  41.513  44.024  0.00  0.00    +0.000 A 
ATOM     16  C   UNL     1      36.106  41.896  42.759  0.00  0.00    +0.000 A 
ATOM     17  C   UNL     1      35.262  42.994  42.619  0.00  0.00    +0.000 A 
ATOM     18  C   UNL     1      34.818  43.713  43.739  0.00  0.00    +0.000 A 
ATOM     19  C   UNL     1      33.944  44.800  43.571  0.00  0.00    +0.000 A 
ATOM     20  C   UNL     1      33.460  45.510  44.668  0.00  0.00    +0.000 A 
ATOM     21  C   UNL     1      33.836  45.134  45.950  0.00  0.00    +0.000 A 
ATOM     22  C   UNL     1      34.705  44.058  46.133  0.00  0.00    +0.000 A 
ATOM     23  C   UNL     1      35.239  43.333  45.039  0.00  0.00    +0.000 A 
ENDBRANCH  12  14
BRANCH   1  27
ATOM     24  N   UNL     1      32.362  38.340  48.439  0.00  0.00    +0.000 N 
ATOM     25  C   UNL     1      33.210  38.710  47.419  0.00  0.00    +0.000 C 
ATOM     26  O   UNL     1      33.261  38.247  46.283  0.00  0.00    +0.000 OA
ATOM     27  N   UNL     1      34.082  39.714  47.834  0.00  0.00    +0.000 N 
ATOM     28  H   UNL     1      32.592  38.715  49.347  0.00  0.00    +0.000 HD
ATOM     29  H   UNL     1      33.666  40.446  48.410  0.00  0.00    +0.000 HD
BRANCH  24  35
ATOM     30  C   UNL     1      30.230  34.425  50.518  0.00  0.00    +0.000 C 
ATOM     31  C   UNL     1      30.245  35.475  49.446  0.00  0.00    +0.000 A 
ATOM     32  C   UNL     1      29.275  35.472  48.440  0.00  0.00    +0.000 A 
ATOM     33  C   UNL     1      29.311  36.431  47.430  0.00  0.00    +0.000 A 
ATOM     34  C   UNL     1      30.322  37.395  47.407  0.00  0.00    +0.000 A 
ATOM     35  C   UNL     1      31.311  37.403  48.390  0.00  0.00    +0.000 A 
ATOM     36  C   UNL     1      31.265  36.437  49.407  0.00  0.00    +0.000 A 
ENDBRANCH  24  35
ENDBRANCH   1  27
TORSDOF 3
ENDMDL
MODEL 3
REMARK VINA RESULT:      -6.7      1.133      2.287
REMARK  Name = 
REMARK  4 active torsions:
REMARK  status: ('A' for Active; 'I' for Inactive)
REMARK    1  A    between atoms: C_1  and  C_2
REMARK    2  A    between atoms: C_6  and  N_7
REMARK    3  A    between atoms: N_10  and  N_11
REMARK    4  A    between atoms: N_22  and  C_23
REMARK                            x       y       z     vdW  Elec       q    Type
REMARK                         _______ _______ _______ _____ _____    ______ ____
ROOT
ATOM      1  N   UNL     1      27.024  32.909  47.342  0.00  0.00    +0.000 N 
ATOM      2  C   UNL     1      27.999  33.835  47.695  0.00  0.00    +0.000 A 
ATOM      3  N   UNL     1      28.581  33.697  48.859  0.00  0.00    +0.000 NA
ATOM      4  C   UNL     1      29.525  34.641  49.270  0.00  0.00    +0.000 A 
ATOM      5  C   UNL     1      30.165  34.458  50.499  0.00  0.00    +0.000 A 
ATOM      6  C   UNL     1      31.101  35.388  50.963  0.00  0.00    +0.000 A 
ATOM      7  C   UNL     1      31.403  36.512  50.198  0.00  0.00    +0.000 A 
ATOM      8  C   UNL     1      30.771  36.705  48.970  0.00  0.00    +0.000 A 
ATOM      9  C   UNL     1      29.836  35.766  48.515  0.00  0.00    +0.000 A 
ATOM     10  C   UNL     1      29.165  35.930  47.216  0.00  0.00    +0.000 A 
ATOM     11  O   UNL     1      29.415  36.939  46.557  0.00  0.00    +0.000 OA
ATOM     12  N   UNL     1      28.307  34.895  46.830  0.00  0.00    +0.000 N 
ATOM     13  H   UNL     1      26.304  33.255  46.698  0.00  0.00    +0.000 HD
ENDROOT
BRANCH  12  14
ATOM     14  C   UNL     1      27.696  34.987  45.536  0.00  0.00    +0.000 A 
ATOM     15  C   UNL     1      28.299  34.294  44.474  0.00  0.00    +0.000 A 
ATOM     16  C   UNL     1      27.799  34.405  43.181  0.00  0.00    +0.000 A 
ATOM     17  C   UNL     1      26.686  35.205  42.937  0.00  0.00    +0.000 A 
ATOM     18  C   UNL     1      26.041  35.885  43.980  0.00  0.00    +0.000 A 
ATOM     19  C   UNL     1      24.903  36.663  43.710  0.00  0.00    +0.000 A 
ATOM     20  C   UNL     1      24.222  37.321  44.732  0.00  0.00    +0.000 A 
ATOM     21  C   UNL     1      24.665  37.202  46.041  0.00  0.00    +0.000 A 
ATOM     22  C   UNL     1      25.796  36.436  46.325  0.00  0.00    +0.000 A 
ATOM     23  C   UNL     1      26.530  35.777  45.307  0.00  0.00    +0.000 A 
ENDBRANCH  12  14
BRANCH   1  27
ATOM     24  N   UNL     1      25.028  32.310  50.244  0.00  0.00    +0.000 N 
ATOM     25  C   UNL     1      25.409  32.929  49.073  0.00  0.00    +0.000 C 
ATOM     26  O   UNL     1      24.937  33.947  48.577  0.00  0.00    +0.000 OA
ATOM     27  N   UNL     1      26.440  32.227  48.450  0.00  0.00    +0.000 N 
ATOM     28  H   UNL     1      25.418  31.391  50.391  0.00  0.00    +0.000 HD
ATOM     29  H   UNL     1      27.167  31.872  49.071  0.00  0.00    +0.000 HD
BRANCH  24  35
ATOM     30  C   UNL     1      24.091  33.648  54.883  0.00  0.00    +0.000 C 
ATOM     31  C   UNL     1      23.616  33.433  53.476  0.00  0.00    +0.000 A 
ATOM     32  C   UNL     1      22.271  33.624  53.147  0.00  0.00    +0.000 A 
ATOM     33  C   UNL     1      21.829  33.393  51.845  0.00  0.00    +0.000 A 
ATOM     34  C   UNL     1      22.723  32.960  50.862  0.00  0.00    +0.000 A 
ATOM     35  C   UNL     1      24.065  32.745  51.175  0.00  0.00    +0.000 A 
ATOM     36  C   UNL     1      24.503  32.983  52.487  0.00  0.00    +0.000 A 
ENDBRANCH  24  35
ENDBRANCH   1  27
TORSDOF 3
ENDMDL
