MODEL 1
REMARK VINA RESULT:      -6.2      0.000      0.000
REMARK  Name = 
REMARK  6 active torsions:
REMARK  status: ('A' for Active; 'I' for Inactive)
REMARK    1  A    between atoms: C_2  and  C_16
REMARK    2  A    between atoms: N_3  and  C_4
REMARK    3  A    between atoms: C_4  and  C_5
REMARK    4  A    between atoms: C_5  and  C_6
REMARK    5  A    between atoms: C_12  and  O_13
REMARK    6  A    between atoms: C_19  and  O_20
REMARK                            x       y       z     vdW  Elec       q    Type
REMARK                         _______ _______ _______ _____ _____    ______ ____
ROOT
ATOM      1  C   UNL     1      39.700  74.197  72.141  0.00  0.00    +0.000 C 
ENDROOT
BRANCH   1   4
ATOM      2  O   UNL     1      42.360  74.712  71.357  0.00  0.00    +0.000 OA
ATOM      3  C   UNL     1      41.504  75.563  71.155  0.00  0.00    +0.000 C 
ATOM      4  N   UNL     1      40.173  75.401  71.478  0.00  0.00    +0.000 N 
ATOM      5  H   UNL     1      39.566  76.208  71.488  0.00  0.00    +0.000 HD
BRANCH   3   6
ATOM      6  C   UNL     1      41.880  76.880  70.571  0.00  0.00    +0.000 A 
ATOM      7  C   UNL     1      43.066  77.487  71.003  0.00  0.00    +0.000 A 
ATOM      8  C   UNL     1      43.448  78.723  70.480  0.00  0.00    +0.000 A 
ATOM      9  C   UNL     1      42.652  79.340  69.521  0.00  0.00    +0.000 A 
ATOM     10  C   UNL     1      41.480  78.742  69.069  0.00  0.00    +0.000 A 
ATOM     11  C   UNL     1      41.092  77.506  69.594  0.00  0.00    +0.000 A 
BRANCH   9  12
ATOM     12  O   UNL     1      43.066  80.545  69.036  0.00  0.00    +0.000 OA
ATOM     13  H   UNL     1      42.468  81.238  69.360  0.00  0.00    +0.000 HD
ENDBRANCH   9  12
ENDBRANCH   3   6
ENDBRANCH   1   4
BRANCH   1  14
ATOM     14  C   UNL     1      38.998  74.497  73.468  0.00  0.00    +0.000 C 
BRANCH  14  15
ATOM     15  C   UNL     1      39.761  73.972  74.643  0.00  0.00    +0.000 A 
ATOM     16  C   UNL     1      40.838  73.110  74.598  0.00  0.00    +0.000 A 
ATOM     17  N   UNL     1      41.252  72.868  75.880  0.00  0.00    +0.000 N 
ATOM     18  C   UNL     1      40.462  73.555  76.771  0.00  0.00    +0.000 A 
ATOM     19  C   UNL     1      40.513  73.605  78.171  0.00  0.00    +0.000 A 
ATOM     20  C   UNL     1      39.570  74.402  78.828  0.00  0.00    +0.000 A 
ATOM     21  C   UNL     1      38.623  75.113  78.101  0.00  0.00    +0.000 A 
ATOM     22  C   UNL     1      38.577  75.057  76.708  0.00  0.00    +0.000 A 
ATOM     23  C   UNL     1      39.518  74.260  76.024  0.00  0.00    +0.000 A 
ATOM     24  H   UNL     1      42.026  72.272  76.138  0.00  0.00    +0.000 HD
BRANCH  21  25
ATOM     25  O   UNL     1      37.697  75.900  78.727  0.00  0.00    +0.000 OA
ATOM     26  H   UNL     1      36.824  75.485  78.627  0.00  0.00    +0.000 HD
ENDBRANCH  21  25
ENDBRANCH  14  15
ENDBRANCH   1  14
TORSDOF 6
ENDMDL
MODEL 2
REMARK VINA RESULT:      -5.9      1.927      8.239
REMARK  Name = 
REMARK  6 active torsions:
REMARK  status: ('A' for Active; 'I' for Inactive)
REMARK    1  A    between atoms: C_2  and  C_16
REMARK    2  A    between atoms: N_3  and  C_4
REMARK    3  A    between atoms: C_4  and  C_5
REMARK    4  A    between atoms: C_5  and  C_6
REMARK    5  A    between atoms: C_12  and  O_13
REMARK    6  A    between atoms: C_19  and  O_20
REMARK                            x       y       z     vdW  Elec       q    Type
REMARK                         _______ _______ _______ _____ _____    ______ ____
ROOT
ATOM      1  C   UNL     1      42.837  74.078  72.710  0.00  0.00    +0.000 C 
ENDROOT
BRANCH   1   4
ATOM      2  O   UNL     1      42.683  71.981  74.590  0.00  0.00    +0.000 OA
ATOM      3  C   UNL     1      42.277  73.093  74.903  0.00  0.00    +0.000 C 
ATOM      4  N   UNL     1      42.330  74.189  74.067  0.00  0.00    +0.000 N 
ATOM      5  H   UNL     1      41.790  75.011  74.297  0.00  0.00    +0.000 HD
BRANCH   3   6
ATOM      6  C   UNL     1      41.645  73.314  76.232  0.00  0.00    +0.000 A 
ATOM      7  C   UNL     1      41.316  74.623  76.604  0.00  0.00    +0.000 A 
ATOM      8  C   UNL     1      40.725  74.869  77.844  0.00  0.00    +0.000 A 
ATOM      9  C   UNL     1      40.454  73.807  78.700  0.00  0.00    +0.000 A 
ATOM     10  C   UNL     1      40.758  72.498  78.337  0.00  0.00    +0.000 A 
ATOM     11  C   UNL     1      41.354  72.249  77.098  0.00  0.00    +0.000 A 
BRANCH   9  12
ATOM     12  O   UNL     1      39.873  74.094  79.899  0.00  0.00    +0.000 OA
ATOM     13  H   UNL     1      38.942  73.818  79.872  0.00  0.00    +0.000 HD
ENDBRANCH   9  12
ENDBRANCH   3   6
ENDBRANCH   1   4
BRANCH   1  14
ATOM     14  C   UNL     1      43.182  75.438  72.100  0.00  0.00    +0.000 C 
BRANCH  14  15
ATOM     15  C   UNL     1      42.125  75.920  71.157  0.00  0.00    +0.000 A 
ATOM     16  C   UNL     1      40.978  75.239  70.799  0.00  0.00    +0.000 A 
ATOM     17  N   UNL     1      40.274  76.012  69.916  0.00  0.00    +0.000 N 
ATOM     18  C   UNL     1      40.940  77.192  69.683  0.00  0.00    +0.000 A 
ATOM     19  C   UNL     1      40.601  78.273  68.858  0.00  0.00    +0.000 A 
ATOM     20  C   UNL     1      41.479  79.360  68.816  0.00  0.00    +0.000 A 
ATOM     21  C   UNL     1      42.644  79.352  69.574  0.00  0.00    +0.000 A 
ATOM     22  C   UNL     1      42.975  78.272  70.392  0.00  0.00    +0.000 A 
ATOM     23  C   UNL     1      42.105  77.164  70.450  0.00  0.00    +0.000 A 
ATOM     24  H   UNL     1      39.392  75.758  69.496  0.00  0.00    +0.000 HD
BRANCH  21  25
ATOM     25  O   UNL     1      43.511  80.408  69.548  0.00  0.00    +0.000 OA
ATOM     26  H   UNL     1      42.998  81.224  69.430  0.00  0.00    +0.000 HD
ENDBRANCH  21  25
ENDBRANCH  14  15
ENDBRANCH   1  14
TORSDOF 6
ENDMDL
MODEL 3
REMARK VINA RESULT:      -5.8      1.835      7.717
REMARK  Name = 
REMARK  6 active torsions:
REMARK  status: ('A' for Active; 'I' for Inactive)
REMARK    1  A    between atoms: C_2  and  C_16
REMARK    2  A    between atoms: N_3  and  C_4
REMARK    3  A    between atoms: C_4  and  C_5
REMARK    4  A    between atoms: C_5  and  C_6
REMARK    5  A    between atoms: C_12  and  O_13
REMARK    6  A    between atoms: C_19  and  O_20
REMARK                            x       y       z     vdW  Elec       q    Type
REMARK                         _______ _______ _______ _____ _____    ______ ____
ROOT
ATOM      1  C   UNL     1      39.458  74.930  70.951  0.00  0.00    +0.000 C 
ENDROOT
BRANCH   1   4
ATOM      2  O   UNL     1      38.716  73.052  72.921  0.00  0.00    +0.000 OA
ATOM      3  C   UNL     1      38.865  74.224  73.241  0.00  0.00    +0.000 C 
ATOM      4  N   UNL     1      39.250  75.214  72.361  0.00  0.00    +0.000 N 
ATOM      5  H   UNL     1      39.146  76.182  72.631  0.00  0.00    +0.000 HD
BRANCH   3   6
ATOM      6  C   UNL     1      38.587  74.661  74.636  0.00  0.00    +0.000 A 
ATOM      7  C   UNL     1      37.418  75.393  74.885  0.00  0.00    +0.000 A 
ATOM      8  C   UNL     1      37.126  75.823  76.180  0.00  0.00    +0.000 A 
ATOM      9  C   UNL     1      37.993  75.511  77.221  0.00  0.00    +0.000 A 
ATOM     10  C   UNL     1      39.149  74.769  76.993  0.00  0.00    +0.000 A 
ATOM     11  C   UNL     1      39.447  74.341  75.696  0.00  0.00    +0.000 A 
BRANCH   9  12
ATOM     12  O   UNL     1      37.666  75.948  78.470  0.00  0.00    +0.000 OA
ATOM     13  H   UNL     1      36.698  75.989  78.545  0.00  0.00    +0.000 HD
ENDBRANCH   9  12
ENDBRANCH   3   6
ENDBRANCH   1   4
BRANCH   1  14
ATOM     14  C   UNL     1      40.909  74.558  70.637  0.00  0.00    +0.000 C 
BRANCH  14  15
ATOM     15  C   UNL     1      41.847  75.702  70.861  0.00  0.00    +0.000 A 
ATOM     16  C   UNL     1      42.886  75.740  71.769  0.00  0.00    +0.000 A 
ATOM     17  N   UNL     1      43.502  76.958  71.670  0.00  0.00    +0.000 N 
ATOM     18  C   UNL     1      42.883  77.727  70.712  0.00  0.00    +0.000 A 
ATOM     19  C   UNL     1      43.166  79.029  70.277  0.00  0.00    +0.000 A 
ATOM     20  C   UNL     1      42.360  79.568  69.270  0.00  0.00    +0.000 A 
ATOM     21  C   UNL     1      41.318  78.822  68.730  0.00  0.00    +0.000 A 
ATOM     22  C   UNL     1      41.041  77.528  69.170  0.00  0.00    +0.000 A 
ATOM     23  C   UNL     1      41.841  76.963  70.184  0.00  0.00    +0.000 A 
ATOM     24  H   UNL     1      44.297  77.254  72.218  0.00  0.00    +0.000 HD
BRANCH  21  25
ATOM     25  O   UNL     1      40.522  79.332  67.743  0.00  0.00    +0.000 OA
ATOM     26  H   UNL     1      41.042  79.381  66.924  0.00  0.00    +0.000 HD
ENDBRANCH  21  25
ENDBRANCH  14  15
ENDBRANCH   1  14
TORSDOF 6
ENDMDL
