MODEL 1
REMARK VINA RESULT:      -5.4      0.000      0.000
REMARK  Name = 
REMARK  4 active torsions:
REMARK  status: ('A' for Active; 'I' for Inactive)
REMARK    1  A    between atoms: C_1  and  C_2
REMARK    2  A    between atoms: N_4  and  C_5
REMARK    3  A    between atoms: C_10  and  N_11
REMARK    4  A    between atoms: C_15  and  C_17
REMARK                            x       y       z     vdW  Elec       q    Type
REMARK                         _______ _______ _______ _____ _____    ______ ____
ROOT
ATOM      1  N   UNL     1      48.739  83.435  65.022  0.00  0.00    +0.000 N 
ATOM      2  C   UNL     1      47.827  84.328  65.792  0.00  0.00    +0.000 C 
ATOM      3  C   UNL     1      47.473  85.623  65.047  0.00  0.00    +0.000 C 
ATOM      4  N   UNL     1      48.673  86.378  64.662  0.00  0.00    +0.000 N 
ATOM      5  C   UNL     1      48.509  87.712  64.293  0.00  0.00    +0.000 C 
ATOM      6  O   UNL     1      47.391  88.214  64.202  0.00  0.00    +0.000 OA
ATOM      7  C   UNL     1      49.843  85.563  64.299  0.00  0.00    +0.000 C 
ATOM      8  C   UNL     1      49.458  84.122  63.914  0.00  0.00    +0.000 C 
ENDROOT
BRANCH   5   9
ATOM      9  C   UNL     1      49.707  88.487  64.045  0.00  0.00    +0.000 A 
ATOM     10  C   UNL     1      50.248  88.857  62.826  0.00  0.00    +0.000 A 
ATOM     11  C   UNL     1      51.417  89.629  63.067  0.00  0.00    +0.000 A 
ATOM     12  C   UNL     1      52.375  90.243  62.239  0.00  0.00    +0.000 A 
ATOM     13  C   UNL     1      53.429  90.954  62.824  0.00  0.00    +0.000 A 
ATOM     14  C   UNL     1      53.532  91.062  64.209  0.00  0.00    +0.000 A 
ATOM     15  C   UNL     1      52.589  90.464  65.051  0.00  0.00    +0.000 A 
ATOM     16  C   UNL     1      51.546  89.752  64.449  0.00  0.00    +0.000 A 
ATOM     17  N   UNL     1      50.485  89.083  65.012  0.00  0.00    +0.000 N 
ATOM     18  H   UNL     1      50.290  89.051  66.002  0.00  0.00    +0.000 HD
ENDBRANCH   5   9
BRANCH   1  24
ATOM     19  C   UNL     1      48.457  81.040  64.650  0.00  0.00    +0.000 A 
ATOM     20  C   UNL     1      47.776  79.994  64.035  0.00  0.00    +0.000 A 
ATOM     21  C   UNL     1      46.665  80.275  63.244  0.00  0.00    +0.000 A 
ATOM     22  C   UNL     1      46.276  81.595  63.097  0.00  0.00    +0.000 A 
ATOM     23  N   UNL     1      46.914  82.639  63.671  0.00  0.00    +0.000 NA
ATOM     24  C   UNL     1      47.994  82.359  64.435  0.00  0.00    +0.000 A 
BRANCH  19  28
ATOM     25  C   UNL     1      51.678  80.201  66.431  0.00  0.00    +0.000 C 
ATOM     26  C   UNL     1      50.736  80.182  65.254  0.00  0.00    +0.000 C 
ATOM     27  O   UNL     1      51.026  79.580  64.226  0.00  0.00    +0.000 OA
ATOM     28  N   UNL     1      49.573  80.876  65.500  0.00  0.00    +0.000 N 
ATOM     29  H   UNL     1      49.438  81.313  66.409  0.00  0.00    +0.000 HD
ENDBRANCH  19  28
ENDBRANCH   1  24
TORSDOF 3
ENDMDL
MODEL 2
REMARK VINA RESULT:      -5.1     14.975     18.389
REMARK  Name = 
REMARK  4 active torsions:
REMARK  status: ('A' for Active; 'I' for Inactive)
REMARK    1  A    between atoms: C_1  and  C_2
REMARK    2  A    between atoms: N_4  and  C_5
REMARK    3  A    between atoms: C_10  and  N_11
REMARK    4  A    between atoms: C_15  and  C_17
REMARK                            x       y       z     vdW  Elec       q    Type
REMARK                         _______ _______ _______ _____ _____    ______ ____
ROOT
ATOM      1  N   UNL     1      40.797  72.751  76.588  0.00  0.00    +0.000 N 
ATOM      2  C   UNL     1      39.715  72.254  75.692  0.00  0.00    +0.000 C 
ATOM      3  C   UNL     1      40.171  72.058  74.240  0.00  0.00    +0.000 C 
ATOM      4  N   UNL     1      40.736  73.290  73.673  0.00  0.00    +0.000 N 
ATOM      5  C   UNL     1      40.873  73.363  72.287  0.00  0.00    +0.000 C 
ATOM      6  O   UNL     1      40.618  72.397  71.571  0.00  0.00    +0.000 OA
ATOM      7  C   UNL     1      41.481  74.137  74.617  0.00  0.00    +0.000 C 
ATOM      8  C   UNL     1      41.947  73.358  75.862  0.00  0.00    +0.000 C 
ENDROOT
BRANCH   5   9
ATOM      9  C   UNL     1      41.304  74.627  71.726  0.00  0.00    +0.000 A 
ATOM     10  C   UNL     1      42.499  75.291  71.936  0.00  0.00    +0.000 A 
ATOM     11  C   UNL     1      42.493  76.485  71.164  0.00  0.00    +0.000 A 
ATOM     12  C   UNL     1      43.399  77.548  70.994  0.00  0.00    +0.000 A 
ATOM     13  C   UNL     1      43.071  78.593  70.124  0.00  0.00    +0.000 A 
ATOM     14  C   UNL     1      41.865  78.587  69.426  0.00  0.00    +0.000 A 
ATOM     15  C   UNL     1      40.952  77.539  69.576  0.00  0.00    +0.000 A 
ATOM     16  C   UNL     1      41.294  76.505  70.455  0.00  0.00    +0.000 A 
ATOM     17  N   UNL     1      40.612  75.358  70.787  0.00  0.00    +0.000 N 
ATOM     18  H   UNL     1      39.731  75.078  70.381  0.00  0.00    +0.000 HD
ENDBRANCH   5   9
BRANCH   1  24
ATOM     19  C   UNL     1      41.107  71.709  78.773  0.00  0.00    +0.000 A 
ATOM     20  C   UNL     1      41.663  70.698  79.551  0.00  0.00    +0.000 A 
ATOM     21  C   UNL     1      42.394  69.686  78.934  0.00  0.00    +0.000 A 
ATOM     22  C   UNL     1      42.542  69.723  77.559  0.00  0.00    +0.000 A 
ATOM     23  N   UNL     1      42.025  70.690  76.769  0.00  0.00    +0.000 NA
ATOM     24  C   UNL     1      41.320  71.672  77.375  0.00  0.00    +0.000 A 
BRANCH  19  28
ATOM     25  C   UNL     1      38.482  74.121  80.014  0.00  0.00    +0.000 C 
ATOM     26  C   UNL     1      38.963  72.786  79.505  0.00  0.00    +0.000 C 
ATOM     27  O   UNL     1      38.177  71.864  79.317  0.00  0.00    +0.000 OA
ATOM     28  N   UNL     1      40.321  72.766  79.280  0.00  0.00    +0.000 N 
ATOM     29  H   UNL     1      40.865  73.609  79.451  0.00  0.00    +0.000 HD
ENDBRANCH  19  28
ENDBRANCH   1  24
TORSDOF 3
ENDMDL
MODEL 3
REMARK VINA RESULT:      -5.1      6.509      9.627
REMARK  Name = 
REMARK  4 active torsions:
REMARK  status: ('A' for Active; 'I' for Inactive)
REMARK    1  A    between atoms: C_1  and  C_2
REMARK    2  A    between atoms: N_4  and  C_5
REMARK    3  A    between atoms: C_10  and  N_11
REMARK    4  A    between atoms: C_15  and  C_17
REMARK                            x       y       z     vdW  Elec       q    Type
REMARK                         _______ _______ _______ _____ _____    ______ ____
ROOT
ATOM      1  N   UNL     1      41.998  78.183  66.790  0.00  0.00    +0.000 N 
ATOM      2  C   UNL     1      42.279  77.442  65.528  0.00  0.00    +0.000 C 
ATOM      3  C   UNL     1      43.776  77.349  65.200  0.00  0.00    +0.000 C 
ATOM      4  N   UNL     1      44.404  78.675  65.130  0.00  0.00    +0.000 N 
ATOM      5  C   UNL     1      45.652  78.770  64.516  0.00  0.00    +0.000 C 
ATOM      6  O   UNL     1      46.249  77.767  64.130  0.00  0.00    +0.000 OA
ATOM      7  C   UNL     1      43.871  79.677  66.066  0.00  0.00    +0.000 C 
ATOM      8  C   UNL     1      43.127  79.036  67.252  0.00  0.00    +0.000 C 
ENDROOT
BRANCH   5   9
ATOM      9  C   UNL     1      46.205  80.096  64.330  0.00  0.00    +0.000 A 
ATOM     10  C   UNL     1      46.003  80.965  63.272  0.00  0.00    +0.000 A 
ATOM     11  C   UNL     1      46.728  82.161  63.526  0.00  0.00    +0.000 A 
ATOM     12  C   UNL     1      46.920  83.360  62.817  0.00  0.00    +0.000 A 
ATOM     13  C   UNL     1      47.714  84.367  63.378  0.00  0.00    +0.000 A 
ATOM     14  C   UNL     1      48.306  84.192  64.628  0.00  0.00    +0.000 A 
ATOM     15  C   UNL     1      48.125  83.010  65.352  0.00  0.00    +0.000 A 
ATOM     16  C   UNL     1      47.333  82.013  64.772  0.00  0.00    +0.000 A 
ATOM     17  N   UNL     1      46.974  80.773  65.248  0.00  0.00    +0.000 N 
ATOM     18  H   UNL     1      47.224  80.416  66.159  0.00  0.00    +0.000 HD
ENDBRANCH   5   9
BRANCH   1  24
ATOM     19  C   UNL     1      40.864  77.695  68.896  0.00  0.00    +0.000 A 
ATOM     20  C   UNL     1      40.628  76.827  69.958  0.00  0.00    +0.000 A 
ATOM     21  C   UNL     1      41.216  75.565  69.950  0.00  0.00    +0.000 A 
ATOM     22  C   UNL     1      42.019  75.217  68.879  0.00  0.00    +0.000 A 
ATOM     23  N   UNL     1      42.280  76.033  67.833  0.00  0.00    +0.000 NA
ATOM     24  C   UNL     1      41.709  77.259  67.849  0.00  0.00    +0.000 A 
BRANCH  19  28
ATOM     25  C   UNL     1      38.799  80.811  68.369  0.00  0.00    +0.000 C 
ATOM     26  C   UNL     1      39.009  79.319  68.433  0.00  0.00    +0.000 C 
ATOM     27  O   UNL     1      38.094  78.544  68.177  0.00  0.00    +0.000 OA
ATOM     28  N   UNL     1      40.299  78.984  68.777  0.00  0.00    +0.000 N 
ATOM     29  H   UNL     1      40.977  79.724  68.939  0.00  0.00    +0.000 HD
ENDBRANCH  19  28
ENDBRANCH   1  24
TORSDOF 3
ENDMDL
