MODEL 1
REMARK VINA RESULT:      -6.5      0.000      0.000
REMARK  Name = 
REMARK  4 active torsions:
REMARK  status: ('A' for Active; 'I' for Inactive)
REMARK    1  A    between atoms: C_1  and  N_2
REMARK    2  A    between atoms: C_6  and  N_7
REMARK    3  A    between atoms: C_9  and  C_10
REMARK    4  A    between atoms: C_10  and  C_11
REMARK                            x       y       z     vdW  Elec       q    Type
REMARK                         _______ _______ _______ _____ _____    ______ ____
ROOT
ATOM      1  N   UNL     1      22.567  33.691  52.887  0.00  0.00    +0.000 N 
ATOM      2  N   UNL     1      21.877  34.253  51.841  0.00  0.00    +0.000 NA
ATOM      3  C   UNL     1      22.483  34.523  50.726  0.00  0.00    +0.000 A 
ATOM      4  C   UNL     1      23.921  34.244  50.516  0.00  0.00    +0.000 A 
ATOM      5  C   UNL     1      24.595  34.553  49.325  0.00  0.00    +0.000 A 
ATOM      6  C   UNL     1      25.955  34.251  49.193  0.00  0.00    +0.000 A 
ATOM      7  C   UNL     1      26.645  33.642  50.241  0.00  0.00    +0.000 A 
ATOM      8  C   UNL     1      25.975  33.334  51.426  0.00  0.00    +0.000 A 
ATOM      9  C   UNL     1      24.612  33.637  51.560  0.00  0.00    +0.000 A 
ATOM     10  C   UNL     1      23.903  33.303  52.810  0.00  0.00    +0.000 A 
ATOM     11  O   UNL     1      24.511  32.715  53.701  0.00  0.00    +0.000 OA
ENDROOT
BRANCH   1  17
ATOM     12  C   UNL     1      19.346  32.983  57.703  0.00  0.00    +0.000 C 
ATOM     13  N   UNL     1      19.886  33.220  56.361  0.00  0.00    +0.000 NA
ATOM     14  C   UNL     1      18.842  33.738  55.472  0.00  0.00    +0.000 C 
ATOM     15  C   UNL     1      19.214  33.805  53.982  0.00  0.00    +0.000 C 
ATOM     16  C   UNL     1      20.347  32.852  53.584  0.00  0.00    +0.000 C 
ATOM     17  C   UNL     1      21.751  33.299  54.060  0.00  0.00    +0.000 C 
ATOM     18  C   UNL     1      21.752  34.420  55.117  0.00  0.00    +0.000 C 
ATOM     19  C   UNL     1      21.094  34.043  56.444  0.00  0.00    +0.000 C 
ENDBRANCH   1  17
BRANCH   3  20
ATOM     20  C   UNL     1      21.684  35.146  49.583  0.00  0.00    +0.000 C 
BRANCH  20  21
ATOM     21  C   UNL     1      20.399  35.826  50.001  0.00  0.00    +0.000 A 
ATOM     22  C   UNL     1      20.352  36.590  51.178  0.00  0.00    +0.000 A 
ATOM     23  C   UNL     1      19.179  37.252  51.546  0.00  0.00    +0.000 A 
ATOM     24  C   UNL     1      18.048  37.156  50.738  0.00  0.00    +0.000 A 
ATOM     25 CL   UNL     1      16.605  37.976  51.188  0.00  0.00    +0.000 Cl
ATOM     26  C   UNL     1      18.079  36.403  49.565  0.00  0.00    +0.000 A 
ATOM     27  C   UNL     1      19.254  35.743  49.196  0.00  0.00    +0.000 A 
ENDBRANCH  20  21
ENDBRANCH   3  20
TORSDOF 3
ENDMDL
MODEL 2
REMARK VINA RESULT:      -6.4      5.749      8.871
REMARK  Name = 
REMARK  4 active torsions:
REMARK  status: ('A' for Active; 'I' for Inactive)
REMARK    1  A    between atoms: C_1  and  N_2
REMARK    2  A    between atoms: C_6  and  N_7
REMARK    3  A    between atoms: C_9  and  C_10
REMARK    4  A    between atoms: C_10  and  C_11
REMARK                            x       y       z     vdW  Elec       q    Type
REMARK                         _______ _______ _______ _____ _____    ______ ____
ROOT
ATOM      1  N   UNL     1      27.904  35.263  47.072  0.00  0.00    +0.000 N 
ATOM      2  N   UNL     1      27.475  34.129  47.718  0.00  0.00    +0.000 NA
ATOM      3  C   UNL     1      28.090  33.708  48.780  0.00  0.00    +0.000 A 
ATOM      4  C   UNL     1      29.261  34.410  49.351  0.00  0.00    +0.000 A 
ATOM      5  C   UNL     1      29.950  33.954  50.484  0.00  0.00    +0.000 A 
ATOM      6  C   UNL     1      31.043  34.676  50.975  0.00  0.00    +0.000 A 
ATOM      7  C   UNL     1      31.452  35.850  50.343  0.00  0.00    +0.000 A 
ATOM      8  C   UNL     1      30.766  36.305  49.216  0.00  0.00    +0.000 A 
ATOM      9  C   UNL     1      29.670  35.582  48.722  0.00  0.00    +0.000 A 
ATOM     10  C   UNL     1      28.942  36.069  47.536  0.00  0.00    +0.000 A 
ATOM     11  O   UNL     1      29.278  37.135  47.025  0.00  0.00    +0.000 OA
ENDROOT
BRANCH   1  17
ATOM     12  C   UNL     1      24.261  36.286  42.628  0.00  0.00    +0.000 C 
ATOM     13  N   UNL     1      24.928  36.075  43.917  0.00  0.00    +0.000 NA
ATOM     14  C   UNL     1      23.943  36.030  45.002  0.00  0.00    +0.000 C 
ATOM     15  C   UNL     1      24.526  36.051  46.425  0.00  0.00    +0.000 C 
ATOM     16  C   UNL     1      25.935  36.649  46.508  0.00  0.00    +0.000 C 
ATOM     17  C   UNL     1      27.050  35.729  45.954  0.00  0.00    +0.000 C 
ATOM     18  C   UNL     1      26.551  34.531  45.122  0.00  0.00    +0.000 C 
ATOM     19  C   UNL     1      25.815  34.914  43.838  0.00  0.00    +0.000 C 
ENDBRANCH   1  17
BRANCH   3  20
ATOM     20  C   UNL     1      27.586  32.445  49.475  0.00  0.00    +0.000 C 
BRANCH  20  21
ATOM     21  C   UNL     1      26.474  32.670  50.476  0.00  0.00    +0.000 A 
ATOM     22  C   UNL     1      25.607  31.621  50.820  0.00  0.00    +0.000 A 
ATOM     23  C   UNL     1      24.606  31.815  51.775  0.00  0.00    +0.000 A 
ATOM     24  C   UNL     1      24.468  33.057  52.390  0.00  0.00    +0.000 A 
ATOM     25 CL   UNL     1      23.238  33.293  53.569  0.00  0.00    +0.000 Cl
ATOM     26  C   UNL     1      25.322  34.107  52.061  0.00  0.00    +0.000 A 
ATOM     27  C   UNL     1      26.326  33.913  51.109  0.00  0.00    +0.000 A 
ENDBRANCH  20  21
ENDBRANCH   3  20
TORSDOF 3
ENDMDL
MODEL 3
REMARK VINA RESULT:      -6.3      5.306      8.893
REMARK  Name = 
REMARK  4 active torsions:
REMARK  status: ('A' for Active; 'I' for Inactive)
REMARK    1  A    between atoms: C_1  and  N_2
REMARK    2  A    between atoms: C_6  and  N_7
REMARK    3  A    between atoms: C_9  and  C_10
REMARK    4  A    between atoms: C_10  and  C_11
REMARK                            x       y       z     vdW  Elec       q    Type
REMARK                         _______ _______ _______ _____ _____    ______ ____
ROOT
ATOM      1  N   UNL     1      28.032  35.743  47.225  0.00  0.00    +0.000 N 
ATOM      2  N   UNL     1      27.402  34.627  47.720  0.00  0.00    +0.000 NA
ATOM      3  C   UNL     1      27.909  33.982  48.725  0.00  0.00    +0.000 A 
ATOM      4  C   UNL     1      29.164  34.401  49.387  0.00  0.00    +0.000 A 
ATOM      5  C   UNL     1      29.737  33.699  50.458  0.00  0.00    +0.000 A 
ATOM      6  C   UNL     1      30.921  34.161  51.043  0.00  0.00    +0.000 A 
ATOM      7  C   UNL     1      31.537  35.318  50.566  0.00  0.00    +0.000 A 
ATOM      8  C   UNL     1      30.967  36.017  49.501  0.00  0.00    +0.000 A 
ATOM      9  C   UNL     1      29.780  35.555  48.913  0.00  0.00    +0.000 A 
ATOM     10  C   UNL     1      29.175  36.300  47.793  0.00  0.00    +0.000 A 
ATOM     11  O   UNL     1      29.699  37.348  47.422  0.00  0.00    +0.000 OA
ENDROOT
BRANCH   1  17
ATOM     12  C   UNL     1      25.134  37.900  42.640  0.00  0.00    +0.000 C 
ATOM     13  N   UNL     1      25.584  37.273  43.886  0.00  0.00    +0.000 NA
ATOM     14  C   UNL     1      24.477  36.558  44.529  0.00  0.00    +0.000 C 
ATOM     15  C   UNL     1      24.753  36.057  45.956  0.00  0.00    +0.000 C 
ATOM     16  C   UNL     1      25.873  36.819  46.674  0.00  0.00    +0.000 C 
ATOM     17  C   UNL     1      27.298  36.480  46.169  0.00  0.00    +0.000 C 
ATOM     18  C   UNL     1      27.348  35.707  44.838  0.00  0.00    +0.000 C 
ATOM     19  C   UNL     1      26.781  36.468  43.639  0.00  0.00    +0.000 C 
ENDBRANCH   1  17
BRANCH   3  20
ATOM     20  C   UNL     1      27.183  32.746  49.252  0.00  0.00    +0.000 C 
BRANCH  20  21
ATOM     21  C   UNL     1      25.972  33.038  50.111  0.00  0.00    +0.000 A 
ATOM     22  C   UNL     1      24.713  33.229  49.520  0.00  0.00    +0.000 A 
ATOM     23  C   UNL     1      23.586  33.458  50.313  0.00  0.00    +0.000 A 
ATOM     24  C   UNL     1      23.712  33.496  51.699  0.00  0.00    +0.000 A 
ATOM     25 CL   UNL     1      22.323  33.773  52.675  0.00  0.00    +0.000 Cl
ATOM     26  C   UNL     1      24.954  33.305  52.302  0.00  0.00    +0.000 A 
ATOM     27  C   UNL     1      26.081  33.073  51.509  0.00  0.00    +0.000 A 
ENDBRANCH  20  21
ENDBRANCH   3  20
TORSDOF 3
ENDMDL
