MODEL 1
REMARK VINA RESULT:      -5.9      0.000      0.000
REMARK  Name = 
REMARK  5 active torsions:
REMARK  status: ('A' for Active; 'I' for Inactive)
REMARK    1  A    between atoms: C_1  and  C_2
REMARK    2  A    between atoms: C_4  and  C_5
REMARK    3  A    between atoms: C_17  and  C_18
REMARK    4  A    between atoms: C_19  and  N_20
REMARK    5  A    between atoms: C_21  and  C_23
REMARK                            x       y       z     vdW  Elec       q    Type
REMARK                         _______ _______ _______ _____ _____    ______ ____
ROOT
ATOM      1  C   UNL     1      49.404  80.884  63.554  0.00  0.00    +0.000 C 
ATOM      2  C   UNL     1      48.994  81.988  64.462  0.00  0.00    +0.000 A 
ATOM      3  N   UNL     1      49.885  82.969  64.807  0.00  0.00    +0.000 N 
ATOM      4  C   UNL     1      49.305  83.884  65.644  0.00  0.00    +0.000 A 
ATOM      5  C   UNL     1      47.987  83.465  65.852  0.00  0.00    +0.000 A 
ATOM      6  C   UNL     1      46.981  84.179  66.690  0.00  0.00    +0.000 C 
ATOM      7  C   UNL     1      47.796  82.257  65.101  0.00  0.00    +0.000 A 
ATOM      8  H   UNL     1      50.848  82.996  64.483  0.00  0.00    +0.000 HD
ENDROOT
BRANCH   4   9
ATOM      9  C   UNL     1      50.021  85.022  66.123  0.00  0.00    +0.000 C 
ATOM     10  C   UNL     1      49.812  86.330  65.897  0.00  0.00    +0.000 C 
ATOM     11  C   UNL     1      48.769  87.043  65.068  0.00  0.00    +0.000 C 
ATOM     12  O   UNL     1      47.848  86.564  64.432  0.00  0.00    +0.000 OA
ATOM     13  N   UNL     1      49.061  88.392  65.183  0.00  0.00    +0.000 N 
ATOM     14  C   UNL     1      50.158  88.607  66.005  0.00  0.00    +0.000 A 
ATOM     15  C   UNL     1      50.705  89.830  66.344  0.00  0.00    +0.000 A 
ATOM     16  C   UNL     1      51.805  89.819  67.202  0.00  0.00    +0.000 A 
ATOM     17  C   UNL     1      52.316  88.604  67.680  0.00  0.00    +0.000 A 
ATOM     18  F   UNL     1      53.370  88.624  68.507  0.00  0.00    +0.000 F 
ATOM     19  C   UNL     1      51.756  87.377  67.326  0.00  0.00    +0.000 A 
ATOM     20  C   UNL     1      50.663  87.391  66.477  0.00  0.00    +0.000 A 
ATOM     21  H   UNL     1      48.515  89.106  64.724  0.00  0.00    +0.000 HD
ENDBRANCH   4   9
BRANCH   7  22
ATOM     22  N   UNL     1      46.711  81.414  64.912  0.00  0.00    +0.000 N 
ATOM     23  C   UNL     1      45.904  81.256  63.809  0.00  0.00    +0.000 C 
ATOM     24  O   UNL     1      45.945  81.894  62.760  0.00  0.00    +0.000 OA
ATOM     25  H   UNL     1      46.491  80.817  65.709  0.00  0.00    +0.000 HD
BRANCH  23  26
ATOM     26  C   UNL     1      44.870  80.130  63.951  0.00  0.00    +0.000 C 
ATOM     27  C   UNL     1      45.269  78.903  63.123  0.00  0.00    +0.000 C 
ATOM     28  C   UNL     1      46.385  78.070  63.762  0.00  0.00    +0.000 C 
ATOM     29  N   UNL     1      46.501  78.258  65.215  0.00  0.00    +0.000 NA
ATOM     30  C   UNL     1      45.189  78.426  65.832  0.00  0.00    +0.000 C 
ATOM     31  C   UNL     1      44.583  79.767  65.418  0.00  0.00    +0.000 C 
ATOM     32  H   UNL     1      46.957  77.431  65.611  0.00  0.00    +0.000 HD
ENDBRANCH  23  26
ENDBRANCH   7  22
TORSDOF 3
ENDMDL
MODEL 2
REMARK VINA RESULT:      -5.8      3.284      8.848
REMARK  Name = 
REMARK  5 active torsions:
REMARK  status: ('A' for Active; 'I' for Inactive)
REMARK    1  A    between atoms: C_1  and  C_2
REMARK    2  A    between atoms: C_4  and  C_5
REMARK    3  A    between atoms: C_17  and  C_18
REMARK    4  A    between atoms: C_19  and  N_20
REMARK    5  A    between atoms: C_21  and  C_23
REMARK                            x       y       z     vdW  Elec       q    Type
REMARK                         _______ _______ _______ _____ _____    ______ ____
ROOT
ATOM      1  C   UNL     1      53.877  85.169  63.863  0.00  0.00    +0.000 C 
ATOM      2  C   UNL     1      52.501  85.059  64.414  0.00  0.00    +0.000 A 
ATOM      3  N   UNL     1      51.751  83.936  64.189  0.00  0.00    +0.000 N 
ATOM      4  C   UNL     1      50.522  84.041  64.783  0.00  0.00    +0.000 A 
ATOM      5  C   UNL     1      50.480  85.291  65.410  0.00  0.00    +0.000 A 
ATOM      6  C   UNL     1      49.328  85.819  66.197  0.00  0.00    +0.000 C 
ATOM      7  C   UNL     1      51.739  85.936  65.168  0.00  0.00    +0.000 A 
ATOM      8  H   UNL     1      52.073  83.142  63.643  0.00  0.00    +0.000 HD
ENDROOT
BRANCH   4   9
ATOM      9  C   UNL     1      49.564  82.985  64.718  0.00  0.00    +0.000 C 
ATOM     10  C   UNL     1      48.402  82.915  64.048  0.00  0.00    +0.000 C 
ATOM     11  C   UNL     1      47.709  83.913  63.149  0.00  0.00    +0.000 C 
ATOM     12  O   UNL     1      48.089  85.019  62.808  0.00  0.00    +0.000 OA
ATOM     13  N   UNL     1      46.526  83.306  62.762  0.00  0.00    +0.000 N 
ATOM     14  C   UNL     1      46.406  82.034  63.302  0.00  0.00    +0.000 A 
ATOM     15  C   UNL     1      45.360  81.152  63.106  0.00  0.00    +0.000 A 
ATOM     16  C   UNL     1      45.449  79.910  63.735  0.00  0.00    +0.000 A 
ATOM     17  C   UNL     1      46.560  79.599  64.530  0.00  0.00    +0.000 A 
ATOM     18  F   UNL     1      46.622  78.397  65.118  0.00  0.00    +0.000 F 
ATOM     19  C   UNL     1      47.607  80.501  64.722  0.00  0.00    +0.000 A 
ATOM     20  C   UNL     1      47.518  81.731  64.094  0.00  0.00    +0.000 A 
ATOM     21  H   UNL     1      45.861  83.756  62.151  0.00  0.00    +0.000 HD
ENDBRANCH   4   9
BRANCH   7  22
ATOM     22  N   UNL     1      52.272  87.159  65.548  0.00  0.00    +0.000 N 
ATOM     23  C   UNL     1      51.950  88.427  65.120  0.00  0.00    +0.000 C 
ATOM     24  O   UNL     1      51.145  88.734  64.246  0.00  0.00    +0.000 OA
ATOM     25  H   UNL     1      53.003  87.104  66.257  0.00  0.00    +0.000 HD
BRANCH  23  26
ATOM     26  C   UNL     1      52.693  89.542  65.870  0.00  0.00    +0.000 C 
ATOM     27  C   UNL     1      51.774  90.236  66.883  0.00  0.00    +0.000 C 
ATOM     28  C   UNL     1      51.545  89.419  68.160  0.00  0.00    +0.000 C 
ATOM     29  N   UNL     1      52.600  88.429  68.422  0.00  0.00    +0.000 NA
ATOM     30  C   UNL     1      53.911  88.940  68.037  0.00  0.00    +0.000 C 
ATOM     31  C   UNL     1      54.001  89.057  66.515  0.00  0.00    +0.000 C 
ATOM     32  H   UNL     1      52.600  88.218  69.424  0.00  0.00    +0.000 HD
ENDBRANCH  23  26
ENDBRANCH   7  22
TORSDOF 3
ENDMDL
MODEL 3
REMARK VINA RESULT:      -5.8      3.634      9.089
REMARK  Name = 
REMARK  5 active torsions:
REMARK  status: ('A' for Active; 'I' for Inactive)
REMARK    1  A    between atoms: C_1  and  C_2
REMARK    2  A    between atoms: C_4  and  C_5
REMARK    3  A    between atoms: C_17  and  C_18
REMARK    4  A    between atoms: C_19  and  N_20
REMARK    5  A    between atoms: C_21  and  C_23
REMARK                            x       y       z     vdW  Elec       q    Type
REMARK                         _______ _______ _______ _____ _____    ______ ____
ROOT
ATOM      1  C   UNL     1      50.424  87.572  66.982  0.00  0.00    +0.000 C 
ATOM      2  C   UNL     1      50.649  86.161  66.571  0.00  0.00    +0.000 A 
ATOM      3  N   UNL     1      49.590  85.348  66.271  0.00  0.00    +0.000 N 
ATOM      4  C   UNL     1      50.018  84.096  65.917  0.00  0.00    +0.000 A 
ATOM      5  C   UNL     1      51.414  84.106  66.004  0.00  0.00    +0.000 A 
ATOM      6  C   UNL     1      52.302  82.950  65.689  0.00  0.00    +0.000 C 
ATOM      7  C   UNL     1      51.810  85.420  66.424  0.00  0.00    +0.000 A 
ATOM      8  H   UNL     1      48.619  85.645  66.317  0.00  0.00    +0.000 HD
ENDROOT
BRANCH   4   9
ATOM      9  C   UNL     1      49.103  83.071  65.530  0.00  0.00    +0.000 C 
ATOM     10  C   UNL     1      48.181  83.063  64.552  0.00  0.00    +0.000 C 
ATOM     11  C   UNL     1      47.792  84.118  63.542  0.00  0.00    +0.000 C 
ATOM     12  O   UNL     1      48.271  85.225  63.378  0.00  0.00    +0.000 OA
ATOM     13  N   UNL     1      46.760  83.562  62.804  0.00  0.00    +0.000 N 
ATOM     14  C   UNL     1      46.470  82.272  63.225  0.00  0.00    +0.000 A 
ATOM     15  C   UNL     1      45.510  81.430  62.696  0.00  0.00    +0.000 A 
ATOM     16  C   UNL     1      45.395  80.160  63.263  0.00  0.00    +0.000 A 
ATOM     17  C   UNL     1      46.227  79.784  64.327  0.00  0.00    +0.000 A 
ATOM     18  F   UNL     1      46.098  78.557  64.849  0.00  0.00    +0.000 F 
ATOM     19  C   UNL     1      47.189  80.647  64.854  0.00  0.00    +0.000 A 
ATOM     20  C   UNL     1      47.303  81.904  64.287  0.00  0.00    +0.000 A 
ATOM     21  H   UNL     1      46.306  84.056  62.051  0.00  0.00    +0.000 HD
ENDBRANCH   4   9
BRANCH   7  22
ATOM     22  N   UNL     1      53.040  86.015  66.661  0.00  0.00    +0.000 N 
ATOM     23  C   UNL     1      53.855  86.717  65.802  0.00  0.00    +0.000 C 
ATOM     24  O   UNL     1      53.678  86.912  64.603  0.00  0.00    +0.000 OA
ATOM     25  H   UNL     1      53.382  85.923  67.617  0.00  0.00    +0.000 HD
BRANCH  23  26
ATOM     26  C   UNL     1      55.094  87.322  66.477  0.00  0.00    +0.000 C 
ATOM     27  C   UNL     1      54.975  88.846  66.592  0.00  0.00    +0.000 C 
ATOM     28  C   UNL     1      54.040  89.304  67.717  0.00  0.00    +0.000 C 
ATOM     29  N   UNL     1      53.854  88.298  68.773  0.00  0.00    +0.000 NA
ATOM     30  C   UNL     1      55.089  87.561  69.024  0.00  0.00    +0.000 C 
ATOM     31  C   UNL     1      55.416  86.664  67.830  0.00  0.00    +0.000 C 
ATOM     32  H   UNL     1      53.569  88.781  69.630  0.00  0.00    +0.000 HD
ENDBRANCH  23  26
ENDBRANCH   7  22
TORSDOF 3
ENDMDL
