MODEL 1
REMARK VINA RESULT:    -5.267      0.000      0.000
REMARK INTER + INTRA:           3.491
REMARK INTER:                  -6.499
REMARK INTRA:                   9.990
REMARK UNBOUND:                 9.990
REMARK  Name = 
REMARK  5 active torsions:
REMARK  status: ('A' for Active; 'I' for Inactive)
REMARK    1  A    between atoms: C_1  and  C_2
REMARK    2  A    between atoms: C_2  and  N_3
REMARK    3  A    between atoms: C_8  and  S_9
REMARK    4  A    between atoms: S_9  and  N_12
REMARK    5  A    between atoms: N_19  and  C_20
REMARK                            x       y       z     vdW  Elec       q    Type
REMARK                         _______ _______ _______ _____ _____    ______ ____
ROOT
ATOM      1  N   UNL     1      41.224  76.575  67.658  0.00  0.00    +0.000 NA
ATOM      2  C   UNL     1      40.762  77.462  66.581  0.00  0.00    +0.000 C 
ATOM      3  C   UNL     1      39.243  77.465  66.545  0.00  0.00    +0.000 C 
ATOM      4  C   UNL     1      38.705  77.963  67.877  0.00  0.00    +0.000 C 
ATOM      5  N   UNL     1      39.192  79.328  68.123  0.00  0.00    +0.000 N 
ATOM      6  C   UNL     1      38.235  80.431  68.288  0.00  0.00    +0.000 C 
ATOM      7  O   UNL     1      38.656  81.612  68.501  0.00  0.00    +0.000 OA
ATOM      8  N   UNL     1      36.791  80.170  68.209  0.00  0.00    +0.000 N 
ATOM      9  C   UNL     1      40.637  79.590  68.202  0.00  0.00    +0.000 C 
ATOM     10  C   UNL     1      40.737  75.210  67.412  0.00  0.00    +0.000 C 
ATOM     11  H   UNL     1      36.127  80.935  68.325  0.00  0.00    +0.000 HD
ENDROOT
BRANCH   8  12
ATOM     12  C   UNL     1      36.303  78.805  67.963  0.00  0.00    +0.000 A 
ATOM     13  C   UNL     1      35.925  77.965  69.071  0.00  0.00    +0.000 A 
ATOM     14  C   UNL     1      36.026  78.463  70.419  0.00  0.00    +0.000 A 
ATOM     15  C   UNL     1      35.648  77.623  71.526  0.00  0.00    +0.000 A 
ATOM     16  C   UNL     1      35.748  78.121  72.874  0.00  0.00    +0.000 A 
ATOM     17  C   UNL     1      36.203  78.308  66.616  0.00  0.00    +0.000 A 
ATOM     18  F   UNL     1      36.552  79.083  65.592  0.00  0.00    +0.000 F 
ENDBRANCH   8  12
BRANCH   1  19
ATOM     19  S   UNL     1      40.602  77.151  69.200  0.00  0.00    +0.000 S 
ATOM     20  O   UNL     1      39.083  76.974  69.236  0.00  0.00    +0.000 OA
ATOM     21  O   UNL     1      40.948  78.633  69.367  0.00  0.00    +0.000 OA
BRANCH  19  27
ATOM     22  N   UNL     1      40.440  73.463  72.964  0.00  0.00    +0.000 N 
ATOM     23  C   UNL     1      41.181  74.438  72.303  0.00  0.00    +0.000 A 
ATOM     24  C   UNL     1      42.545  74.691  72.690  0.00  0.00    +0.000 A 
ATOM     25  C   UNL     1      43.312  75.700  72.005  0.00  0.00    +0.000 A 
ATOM     26  C   UNL     1      42.715  76.456  70.934  0.00  0.00    +0.000 A 
ATOM     27  C   UNL     1      41.352  76.202  70.547  0.00  0.00    +0.000 A 
ATOM     28  C   UNL     1      40.586  75.193  71.231  0.00  0.00    +0.000 A 
ATOM     29  C   UNL     1      41.181  74.438  72.303  0.00  0.00    +0.000 A 
ATOM     30  C   UNL     1      39.121  73.218  72.589  0.00  0.00    +0.000 A 
BRANCH  22  32
ATOM     31  C   UNL     1      40.454  73.138  75.384  0.00  0.00    +0.000 C 
ATOM     32  C   UNL     1      41.048  72.692  74.057  0.00  0.00    +0.000 C 
ENDBRANCH  22  32
ENDBRANCH  19  27
ENDBRANCH   1  19
TORSDOF 4
ENDMDL
