MODEL 1
REMARK VINA RESULT:      -5.8      0.000      0.000
REMARK  Name = 
REMARK  5 active torsions:
REMARK  status: ('A' for Active; 'I' for Inactive)
REMARK    1  A    between atoms: C_1  and  C_2
REMARK    2  A    between atoms: C_2  and  N_3
REMARK    3  A    between atoms: N_3  and  C_4
REMARK    4  A    between atoms: C_9  and  N_10
REMARK    5  A    between atoms: C_14  and  C_16
REMARK                            x       y       z     vdW  Elec       q    Type
REMARK                         _______ _______ _______ _____ _____    ______ ____
ROOT
ATOM      1  N   UNL     1      41.110  72.137  75.438  0.00  0.00    +0.000 N 
ATOM      2  C   UNL     1      41.904  73.364  75.204  0.00  0.00    +0.000 C 
ATOM      3  C   UNL     1      41.331  74.132  73.999  0.00  0.00    +0.000 C 
ATOM      4  N   UNL     1      41.233  73.288  72.793  0.00  0.00    +0.000 N 
ATOM      5  C   UNL     1      41.099  73.831  71.514  0.00  0.00    +0.000 C 
ATOM      6  O   UNL     1      40.498  73.273  70.599  0.00  0.00    +0.000 OA
ATOM      7  C   UNL     1      40.593  71.984  73.020  0.00  0.00    +0.000 C 
ATOM      8  C   UNL     1      41.156  71.247  74.249  0.00  0.00    +0.000 C 
ENDROOT
BRANCH   5   9
ATOM      9  C   UNL     1      41.735  75.136  71.225  0.00  0.00    +0.000 A 
ATOM     10  C   UNL     1      42.927  75.464  71.870  0.00  0.00    +0.000 A 
ATOM     11  C   UNL     1      43.529  76.699  71.623  0.00  0.00    +0.000 A 
ATOM     12  C   UNL     1      42.936  77.621  70.743  0.00  0.00    +0.000 A 
ATOM     13  C   UNL     1      43.531  78.867  70.484  0.00  0.00    +0.000 A 
ATOM     14  C   UNL     1      42.930  79.778  69.614  0.00  0.00    +0.000 A 
ATOM     15  C   UNL     1      41.724  79.458  68.995  0.00  0.00    +0.000 A 
ATOM     16  C   UNL     1      41.119  78.224  69.242  0.00  0.00    +0.000 A 
ATOM     17  C   UNL     1      41.713  77.295  70.111  0.00  0.00    +0.000 A 
ATOM     18  C   UNL     1      41.115  76.052  70.368  0.00  0.00    +0.000 A 
ENDBRANCH   5   9
BRANCH   1  24
ATOM     19  C   UNL     1      40.977  71.664  77.831  0.00  0.00    +0.000 A 
ATOM     20  C   UNL     1      41.401  70.899  78.918  0.00  0.00    +0.000 A 
ATOM     21  C   UNL     1      42.436  69.983  78.761  0.00  0.00    +0.000 A 
ATOM     22  C   UNL     1      43.009  69.846  77.510  0.00  0.00    +0.000 A 
ATOM     23  N   UNL     1      42.613  70.535  76.419  0.00  0.00    +0.000 NA
ATOM     24  C   UNL     1      41.593  71.411  76.570  0.00  0.00    +0.000 A 
BRANCH  19  25
ATOM     25  N   UNL     1      39.911  72.591  77.913  0.00  0.00    +0.000 N 
ATOM     26  H   UNL     1      39.544  72.678  76.959  0.00  0.00    +0.000 HD
BRANCH  25  28
ATOM     27  C   UNL     1      39.714  75.003  77.602  0.00  0.00    +0.000 C 
ATOM     28  C   UNL     1      40.160  73.887  78.532  0.00  0.00    +0.000 C 
ENDBRANCH  25  28
ENDBRANCH  19  25
ENDBRANCH   1  24
TORSDOF 4
ENDMDL
MODEL 2
REMARK VINA RESULT:      -5.6     12.744     16.968
REMARK  Name = 
REMARK  5 active torsions:
REMARK  status: ('A' for Active; 'I' for Inactive)
REMARK    1  A    between atoms: C_1  and  C_2
REMARK    2  A    between atoms: C_2  and  N_3
REMARK    3  A    between atoms: N_3  and  C_4
REMARK    4  A    between atoms: C_9  and  N_10
REMARK    5  A    between atoms: C_14  and  C_16
REMARK                            x       y       z     vdW  Elec       q    Type
REMARK                         _______ _______ _______ _____ _____    ______ ____
ROOT
ATOM      1  N   UNL     1      48.936  83.393  65.133  0.00  0.00    +0.000 N 
ATOM      2  C   UNL     1      49.790  84.130  66.091  0.00  0.00    +0.000 C 
ATOM      3  C   UNL     1      49.498  85.639  65.992  0.00  0.00    +0.000 C 
ATOM      4  N   UNL     1      49.633  86.146  64.613  0.00  0.00    +0.000 N 
ATOM      5  C   UNL     1      49.780  87.505  64.332  0.00  0.00    +0.000 C 
ATOM      6  O   UNL     1      49.369  88.034  63.301  0.00  0.00    +0.000 OA
ATOM      7  C   UNL     1      48.929  85.342  63.604  0.00  0.00    +0.000 C 
ATOM      8  C   UNL     1      49.207  83.833  63.740  0.00  0.00    +0.000 C 
ENDROOT
BRANCH   5   9
ATOM      9  C   UNL     1      50.493  88.360  65.307  0.00  0.00    +0.000 A 
ATOM     10  C   UNL     1      49.750  89.162  66.173  0.00  0.00    +0.000 A 
ATOM     11  C   UNL     1      50.408  89.988  67.085  0.00  0.00    +0.000 A 
ATOM     12  C   UNL     1      51.812  90.033  67.128  0.00  0.00    +0.000 A 
ATOM     13  C   UNL     1      52.487  90.859  68.041  0.00  0.00    +0.000 A 
ATOM     14  C   UNL     1      53.882  90.900  68.069  0.00  0.00    +0.000 A 
ATOM     15  C   UNL     1      54.620  90.120  67.183  0.00  0.00    +0.000 A 
ATOM     16  C   UNL     1      53.965  89.294  66.268  0.00  0.00    +0.000 A 
ATOM     17  C   UNL     1      52.562  89.237  66.229  0.00  0.00    +0.000 A 
ATOM     18  C   UNL     1      51.892  88.412  65.316  0.00  0.00    +0.000 A 
ENDBRANCH   5   9
BRANCH   1  24
ATOM     19  C   UNL     1      48.015  81.131  65.169  0.00  0.00    +0.000 A 
ATOM     20  C   UNL     1      48.241  79.753  65.175  0.00  0.00    +0.000 A 
ATOM     21  C   UNL     1      49.536  79.263  65.295  0.00  0.00    +0.000 A 
ATOM     22  C   UNL     1      50.577  80.169  65.389  0.00  0.00    +0.000 A 
ATOM     23  N   UNL     1      50.417  81.509  65.353  0.00  0.00    +0.000 NA
ATOM     24  C   UNL     1      49.157  81.983  65.217  0.00  0.00    +0.000 A 
BRANCH  19  25
ATOM     25  N   UNL     1      46.727  81.697  65.019  0.00  0.00    +0.000 N 
ATOM     26  H   UNL     1      46.334  81.748  65.965  0.00  0.00    +0.000 HD
BRANCH  25  28
ATOM     27  C   UNL     1      44.681  80.382  64.810  0.00  0.00    +0.000 C 
ATOM     28  C   UNL     1      45.804  81.088  64.068  0.00  0.00    +0.000 C 
ENDBRANCH  25  28
ENDBRANCH  19  25
ENDBRANCH   1  24
TORSDOF 4
ENDMDL
MODEL 3
REMARK VINA RESULT:      -5.6      2.041      3.113
REMARK  Name = 
REMARK  5 active torsions:
REMARK  status: ('A' for Active; 'I' for Inactive)
REMARK    1  A    between atoms: C_1  and  C_2
REMARK    2  A    between atoms: C_2  and  N_3
REMARK    3  A    between atoms: N_3  and  C_4
REMARK    4  A    between atoms: C_9  and  N_10
REMARK    5  A    between atoms: C_14  and  C_16
REMARK                            x       y       z     vdW  Elec       q    Type
REMARK                         _______ _______ _______ _____ _____    ______ ____
ROOT
ATOM      1  N   UNL     1      40.110  73.062  76.018  0.00  0.00    +0.000 N 
ATOM      2  C   UNL     1      39.721  74.259  75.239  0.00  0.00    +0.000 C 
ATOM      3  C   UNL     1      40.287  74.154  73.811  0.00  0.00    +0.000 C 
ATOM      4  N   UNL     1      41.744  73.927  73.801  0.00  0.00    +0.000 N 
ATOM      5  C   UNL     1      42.525  74.161  72.668  0.00  0.00    +0.000 C 
ATOM      6  O   UNL     1      43.546  73.528  72.405  0.00  0.00    +0.000 OA
ATOM      7  C   UNL     1      42.192  72.848  74.693  0.00  0.00    +0.000 C 
ATOM      8  C   UNL     1      41.589  72.950  76.106  0.00  0.00    +0.000 C 
ENDROOT
BRANCH   5   9
ATOM      9  C   UNL     1      42.129  75.245  71.742  0.00  0.00    +0.000 A 
ATOM     10  C   UNL     1      40.972  75.093  70.980  0.00  0.00    +0.000 A 
ATOM     11  C   UNL     1      40.596  76.098  70.088  0.00  0.00    +0.000 A 
ATOM     12  C   UNL     1      41.381  77.254  69.938  0.00  0.00    +0.000 A 
ATOM     13  C   UNL     1      41.014  78.274  69.045  0.00  0.00    +0.000 A 
ATOM     14  C   UNL     1      41.806  79.414  68.899  0.00  0.00    +0.000 A 
ATOM     15  C   UNL     1      42.976  79.548  69.641  0.00  0.00    +0.000 A 
ATOM     16  C   UNL     1      43.356  78.543  70.533  0.00  0.00    +0.000 A 
ATOM     17  C   UNL     1      42.569  77.392  70.694  0.00  0.00    +0.000 A 
ATOM     18  C   UNL     1      42.939  76.376  71.586  0.00  0.00    +0.000 A 
ENDBRANCH   5   9
BRANCH   1  24
ATOM     19  C   UNL     1      38.437  72.300  77.627  0.00  0.00    +0.000 A 
ATOM     20  C   UNL     1      37.967  72.290  78.941  0.00  0.00    +0.000 A 
ATOM     21  C   UNL     1      38.564  73.103  79.898  0.00  0.00    +0.000 A 
ATOM     22  C   UNL     1      39.632  73.894  79.515  0.00  0.00    +0.000 A 
ATOM     23  N   UNL     1      40.148  73.914  78.269  0.00  0.00    +0.000 NA
ATOM     24  C   UNL     1      39.577  73.108  77.344  0.00  0.00    +0.000 A 
BRANCH  19  25
ATOM     25  N   UNL     1      37.896  71.476  76.612  0.00  0.00    +0.000 N 
ATOM     26  H   UNL     1      38.445  71.677  75.769  0.00  0.00    +0.000 HD
BRANCH  25  28
ATOM     27  C   UNL     1      35.835  70.169  76.634  0.00  0.00    +0.000 C 
ATOM     28  C   UNL     1      36.460  71.528  76.364  0.00  0.00    +0.000 C 
ENDBRANCH  25  28
ENDBRANCH  19  25
ENDBRANCH   1  24
TORSDOF 4
ENDMDL
