MODEL 1
REMARK VINA RESULT:      -6.6      0.000      0.000
REMARK  Name = 
REMARK  6 active torsions:
REMARK  status: ('A' for Active; 'I' for Inactive)
REMARK    1  A    between atoms: C_1  and  C_19
REMARK    2  A    between atoms: C_2  and  C_3
REMARK    3  A    between atoms: N_11  and  C_12
REMARK    4  A    between atoms: C_12  and  C_13
REMARK    5  A    between atoms: N_27  and  C_28
REMARK    6  A    between atoms: C_28  and  C_29
REMARK                            x       y       z     vdW  Elec       q    Type
REMARK                         _______ _______ _______ _____ _____    ______ ____
ROOT
ATOM      1  C   UNL     1      23.970  33.348  51.453  0.00  0.00    +0.000 C 
ATOM      2  C   UNL     1      22.866  33.580  51.866  0.00  0.00    +0.000 C 
ENDROOT
BRANCH   2   3
ATOM      3  C   UNL     1      21.557  33.854  52.347  0.00  0.00    +0.000 A 
ATOM      4  N   UNL     1      21.139  33.185  53.447  0.00  0.00    +0.000 NA
ATOM      5  C   UNL     1      19.902  33.463  53.902  0.00  0.00    +0.000 A 
ATOM      6  N   UNL     1      19.004  34.335  53.399  0.00  0.00    +0.000 NA
ATOM      7  C   UNL     1      19.487  34.958  52.309  0.00  0.00    +0.000 A 
ATOM      8  C   UNL     1      20.733  34.785  51.723  0.00  0.00    +0.000 A 
ATOM      9  N   UNL     1      20.871  35.610  50.625  0.00  0.00    +0.000 NA
ATOM     10  C   UNL     1      19.731  36.262  50.542  0.00  0.00    +0.000 A 
ATOM     11  N   UNL     1      18.864  35.901  51.539  0.00  0.00    +0.000 N 
BRANCH  11  12
ATOM     12  C   UNL     1      17.546  36.459  51.766  0.00  0.00    +0.000 C 
BRANCH  12  13
ATOM     13  C   UNL     1      17.609  37.680  52.647  0.00  0.00    +0.000 A 
ATOM     14  C   UNL     1      17.209  37.604  53.989  0.00  0.00    +0.000 A 
ATOM     15  C   UNL     1      17.251  38.734  54.805  0.00  0.00    +0.000 A 
ATOM     16  C   UNL     1      17.692  39.950  54.290  0.00  0.00    +0.000 A 
ATOM     17  C   UNL     1      18.091  40.039  52.959  0.00  0.00    +0.000 A 
ATOM     18  C   UNL     1      18.049  38.910  52.139  0.00  0.00    +0.000 A 
ENDBRANCH  12  13
ENDBRANCH  11  12
ENDBRANCH   2   3
BRANCH   1  19
ATOM     19  C   UNL     1      25.275  33.069  50.967  0.00  0.00    +0.000 A 
ATOM     20  N   UNL     1      25.995  32.120  51.608  0.00  0.00    +0.000 NA
ATOM     21  C   UNL     1      27.230  31.861  51.134  0.00  0.00    +0.000 A 
ATOM     22  N   UNL     1      27.860  32.435  50.088  0.00  0.00    +0.000 NA
ATOM     23  C   UNL     1      27.086  33.367  49.504  0.00  0.00    +0.000 A 
ATOM     24  C   UNL     1      25.801  33.745  49.870  0.00  0.00    +0.000 A 
ATOM     25  N   UNL     1      25.332  34.740  49.036  0.00  0.00    +0.000 NA
ATOM     26  C   UNL     1      26.309  34.954  48.179  0.00  0.00    +0.000 A 
ATOM     27  N   UNL     1      27.388  34.147  48.423  0.00  0.00    +0.000 N 
BRANCH  27  28
ATOM     28  C   UNL     1      28.643  34.163  47.700  0.00  0.00    +0.000 C 
BRANCH  28  29
ATOM     29  C   UNL     1      29.500  35.335  48.109  0.00  0.00    +0.000 A 
ATOM     30  C   UNL     1      29.533  36.496  47.322  0.00  0.00    +0.000 A 
ATOM     31  C   UNL     1      30.316  37.588  47.702  0.00  0.00    +0.000 A 
ATOM     32  C   UNL     1      31.071  37.531  48.871  0.00  0.00    +0.000 A 
ATOM     33  C   UNL     1      31.043  36.385  49.662  0.00  0.00    +0.000 A 
ATOM     34  C   UNL     1      30.262  35.291  49.285  0.00  0.00    +0.000 A 
ENDBRANCH  28  29
ENDBRANCH  27  28
ENDBRANCH   1  19
TORSDOF 6
ENDMDL
MODEL 2
REMARK VINA RESULT:      -6.6      0.390      1.232
REMARK  Name = 
REMARK  6 active torsions:
REMARK  status: ('A' for Active; 'I' for Inactive)
REMARK    1  A    between atoms: C_1  and  C_19
REMARK    2  A    between atoms: C_2  and  C_3
REMARK    3  A    between atoms: N_11  and  C_12
REMARK    4  A    between atoms: C_12  and  C_13
REMARK    5  A    between atoms: N_27  and  C_28
REMARK    6  A    between atoms: C_28  and  C_29
REMARK                            x       y       z     vdW  Elec       q    Type
REMARK                         _______ _______ _______ _____ _____    ______ ____
ROOT
ATOM      1  C   UNL     1      23.799  33.463  51.429  0.00  0.00    +0.000 C 
ATOM      2  C   UNL     1      22.696  33.724  51.828  0.00  0.00    +0.000 C 
ENDROOT
BRANCH   2   3
ATOM      3  C   UNL     1      21.395  34.032  52.308  0.00  0.00    +0.000 A 
ATOM      4  N   UNL     1      21.000  33.458  53.468  0.00  0.00    +0.000 NA
ATOM      5  C   UNL     1      19.769  33.769  53.919  0.00  0.00    +0.000 A 
ATOM      6  N   UNL     1      18.858  34.591  53.360  0.00  0.00    +0.000 NA
ATOM      7  C   UNL     1      19.318  35.121  52.213  0.00  0.00    +0.000 A 
ATOM      8  C   UNL     1      20.555  34.904  51.621  0.00  0.00    +0.000 A 
ATOM      9  N   UNL     1      20.669  35.633  50.455  0.00  0.00    +0.000 NA
ATOM     10  C   UNL     1      19.524  36.271  50.338  0.00  0.00    +0.000 A 
ATOM     11  N   UNL     1      18.677  35.993  51.377  0.00  0.00    +0.000 N 
BRANCH  11  12
ATOM     12  C   UNL     1      17.361  36.563  51.579  0.00  0.00    +0.000 C 
BRANCH  12  13
ATOM     13  C   UNL     1      17.444  37.937  52.192  0.00  0.00    +0.000 A 
ATOM     14  C   UNL     1      17.587  39.068  51.374  0.00  0.00    +0.000 A 
ATOM     15  C   UNL     1      17.679  40.341  51.937  0.00  0.00    +0.000 A 
ATOM     16  C   UNL     1      17.631  40.497  53.321  0.00  0.00    +0.000 A 
ATOM     17  C   UNL     1      17.490  39.382  54.143  0.00  0.00    +0.000 A 
ATOM     18  C   UNL     1      17.399  38.107  53.582  0.00  0.00    +0.000 A 
ENDBRANCH  12  13
ENDBRANCH  11  12
ENDBRANCH   2   3
BRANCH   1  19
ATOM     19  C   UNL     1      25.103  33.160  50.954  0.00  0.00    +0.000 A 
ATOM     20  N   UNL     1      25.802  32.203  51.604  0.00  0.00    +0.000 NA
ATOM     21  C   UNL     1      27.036  31.921  51.141  0.00  0.00    +0.000 A 
ATOM     22  N   UNL     1      27.684  32.480  50.097  0.00  0.00    +0.000 NA
ATOM     23  C   UNL     1      26.930  33.421  49.503  0.00  0.00    +0.000 A 
ATOM     24  C   UNL     1      25.648  33.822  49.858  0.00  0.00    +0.000 A 
ATOM     25  N   UNL     1      25.202  34.821  49.015  0.00  0.00    +0.000 NA
ATOM     26  C   UNL     1      26.189  35.015  48.165  0.00  0.00    +0.000 A 
ATOM     27  N   UNL     1      27.252  34.192  48.421  0.00  0.00    +0.000 N 
BRANCH  27  28
ATOM     28  C   UNL     1      28.513  34.183  47.708  0.00  0.00    +0.000 C 
BRANCH  28  29
ATOM     29  C   UNL     1      29.414  35.302  48.167  0.00  0.00    +0.000 A 
ATOM     30  C   UNL     1      30.181  35.161  49.333  0.00  0.00    +0.000 A 
ATOM     31  C   UNL     1      31.024  36.190  49.755  0.00  0.00    +0.000 A 
ATOM     32  C   UNL     1      31.112  37.368  49.017  0.00  0.00    +0.000 A 
ATOM     33  C   UNL     1      30.358  37.519  47.855  0.00  0.00    +0.000 A 
ATOM     34  C   UNL     1      29.512  36.491  47.430  0.00  0.00    +0.000 A 
ENDBRANCH  28  29
ENDBRANCH  27  28
ENDBRANCH   1  19
TORSDOF 6
ENDMDL
MODEL 3
REMARK VINA RESULT:      -6.6      1.278     10.684
REMARK  Name = 
REMARK  6 active torsions:
REMARK  status: ('A' for Active; 'I' for Inactive)
REMARK    1  A    between atoms: C_1  and  C_19
REMARK    2  A    between atoms: C_2  and  C_3
REMARK    3  A    between atoms: N_11  and  C_12
REMARK    4  A    between atoms: C_12  and  C_13
REMARK    5  A    between atoms: N_27  and  C_28
REMARK    6  A    between atoms: C_28  and  C_29
REMARK                            x       y       z     vdW  Elec       q    Type
REMARK                         _______ _______ _______ _____ _____    ______ ____
ROOT
ATOM      1  C   UNL     1      22.118  34.925  50.846  0.00  0.00    +0.000 C 
ATOM      2  C   UNL     1      23.008  34.886  50.040  0.00  0.00    +0.000 C 
ENDROOT
BRANCH   2   3
ATOM      3  C   UNL     1      24.057  34.836  49.083  0.00  0.00    +0.000 A 
ATOM      4  N   UNL     1      23.763  35.188  47.809  0.00  0.00    +0.000 NA
ATOM      5  C   UNL     1      24.769  35.149  46.914  0.00  0.00    +0.000 A 
ATOM      6  N   UNL     1      26.056  34.800  47.118  0.00  0.00    +0.000 NA
ATOM      7  C   UNL     1      26.271  34.462  48.402  0.00  0.00    +0.000 A 
ATOM      8  C   UNL     1      25.346  34.453  49.438  0.00  0.00    +0.000 A 
ATOM      9  N   UNL     1      25.944  34.059  50.618  0.00  0.00    +0.000 NA
ATOM     10  C   UNL     1      27.200  33.826  50.303  0.00  0.00    +0.000 A 
ATOM     11  N   UNL     1      27.445  34.056  48.976  0.00  0.00    +0.000 N 
BRANCH  11  12
ATOM     12  C   UNL     1      28.728  33.942  48.313  0.00  0.00    +0.000 C 
BRANCH  12  13
ATOM     13  C   UNL     1      29.550  35.193  48.485  0.00  0.00    +0.000 A 
ATOM     14  C   UNL     1      30.445  35.308  49.559  0.00  0.00    +0.000 A 
ATOM     15  C   UNL     1      31.198  36.469  49.731  0.00  0.00    +0.000 A 
ATOM     16  C   UNL     1      31.062  37.527  48.834  0.00  0.00    +0.000 A 
ATOM     17  C   UNL     1      30.176  37.425  47.765  0.00  0.00    +0.000 A 
ATOM     18  C   UNL     1      29.421  36.265  47.591  0.00  0.00    +0.000 A 
ENDBRANCH  12  13
ENDBRANCH  11  12
ENDBRANCH   2   3
BRANCH   1  19
ATOM     19  C   UNL     1      21.064  34.974  51.797  0.00  0.00    +0.000 A 
ATOM     20  N   UNL     1      21.222  34.281  52.947  0.00  0.00    +0.000 NA
ATOM     21  C   UNL     1      20.217  34.341  53.844  0.00  0.00    +0.000 A 
ATOM     22  N   UNL     1      19.048  35.008  53.745  0.00  0.00    +0.000 NA
ATOM     23  C   UNL     1      18.962  35.670  52.577  0.00  0.00    +0.000 A 
ATOM     24  C   UNL     1      19.906  35.709  51.559  0.00  0.00    +0.000 A 
ATOM     25  N   UNL     1      19.458  36.490  50.513  0.00  0.00    +0.000 NA
ATOM     26  C   UNL     1      18.272  36.919  50.892  0.00  0.00    +0.000 A 
ATOM     27  N   UNL     1      17.932  36.450  52.132  0.00  0.00    +0.000 N 
BRANCH  27  28
ATOM     28  C   UNL     1      16.680  36.691  52.819  0.00  0.00    +0.000 C 
BRANCH  28  29
ATOM     29  C   UNL     1      16.825  37.765  53.869  0.00  0.00    +0.000 A 
ATOM     30  C   UNL     1      16.816  37.429  55.231  0.00  0.00    +0.000 A 
ATOM     31  C   UNL     1      16.962  38.418  56.205  0.00  0.00    +0.000 A 
ATOM     32  C   UNL     1      17.119  39.750  55.830  0.00  0.00    +0.000 A 
ATOM     33  C   UNL     1      17.132  40.095  54.480  0.00  0.00    +0.000 A 
ATOM     34  C   UNL     1      16.987  39.108  53.502  0.00  0.00    +0.000 A 
ENDBRANCH  28  29
ENDBRANCH  27  28
ENDBRANCH   1  19
TORSDOF 6
ENDMDL
