MODEL 1
REMARK VINA RESULT:      -6.4      0.000      0.000
REMARK  Name = 
REMARK  6 active torsions:
REMARK  status: ('A' for Active; 'I' for Inactive)
REMARK    1  A    between atoms: C_2  and  O_3
REMARK    2  A    between atoms: C_2  and  C_4
REMARK    3  A    between atoms: N_6  and  C_7
REMARK    4  A    between atoms: C_7  and  C_8
REMARK    5  A    between atoms: C_17  and  C_18
REMARK    6  A    between atoms: C_18  and  C_19
REMARK                            x       y       z     vdW  Elec       q    Type
REMARK                         _______ _______ _______ _____ _____    ______ ____
ROOT
ATOM      1  C   UNL     1      42.408  78.244  69.825  0.00  0.00    +0.000 A 
ATOM      2  C   UNL     1      41.271  78.267  69.114  0.00  0.00    +0.000 A 
ATOM      3  N   UNL     1      40.218  77.364  69.200  0.00  0.00    +0.000 N 
ATOM      4  C   UNL     1      40.283  76.333  70.165  0.00  0.00    +0.000 A 
ATOM      5  C   UNL     1      39.243  75.422  70.409  0.00  0.00    +0.000 A 
ATOM      6  C   UNL     1      39.357  74.414  71.379  0.00  0.00    +0.000 A 
ATOM      7  C   UNL     1      40.518  74.281  72.145  0.00  0.00    +0.000 A 
ATOM      8  C   UNL     1      41.562  75.182  71.928  0.00  0.00    +0.000 A 
ATOM      9  C   UNL     1      41.444  76.194  70.958  0.00  0.00    +0.000 A 
ATOM     10  C   UNL     1      42.589  77.125  70.773  0.00  0.00    +0.000 A 
ATOM     11  O   UNL     1      43.641  76.931  71.373  0.00  0.00    +0.000 OA
ENDROOT
BRANCH   1  13
ATOM     12  O   UNL     1      43.491  80.335  70.256  0.00  0.00    +0.000 OA
ATOM     13  C   UNL     1      43.381  79.317  69.592  0.00  0.00    +0.000 C 
BRANCH  13  14
ATOM     14  O   UNL     1      44.231  79.059  68.587  0.00  0.00    +0.000 OA
ATOM     15  H   UNL     1      45.121  79.209  68.966  0.00  0.00    +0.000 HD
ENDBRANCH  13  14
ENDBRANCH   1  13
BRANCH   3  16
ATOM     16  C   UNL     1      39.064  77.482  68.285  0.00  0.00    +0.000 C 
BRANCH  16  17
ATOM     17  C   UNL     1      38.048  78.505  68.754  0.00  0.00    +0.000 A 
ATOM     18  C   UNL     1      36.909  78.084  69.460  0.00  0.00    +0.000 A 
ATOM     19  C   UNL     1      35.975  79.012  69.927  0.00  0.00    +0.000 A 
ATOM     20  C   UNL     1      36.169  80.372  69.699  0.00  0.00    +0.000 A 
ATOM     21  C   UNL     1      37.298  80.806  69.008  0.00  0.00    +0.000 A 
ATOM     22  C   UNL     1      38.232  79.880  68.542  0.00  0.00    +0.000 A 
ENDBRANCH  16  17
ENDBRANCH   3  16
BRANCH   7  23
ATOM     23  C   UNL     1      40.643  73.189  73.183  0.00  0.00    +0.000 C 
BRANCH  23  24
ATOM     24  C   UNL     1      40.614  73.694  74.608  0.00  0.00    +0.000 A 
ATOM     25  C   UNL     1      41.804  73.837  75.336  0.00  0.00    +0.000 A 
ATOM     26  C   UNL     1      41.778  74.300  76.653  0.00  0.00    +0.000 A 
ATOM     27  C   UNL     1      40.564  74.627  77.253  0.00  0.00    +0.000 A 
ATOM     28  C   UNL     1      39.375  74.491  76.540  0.00  0.00    +0.000 A 
ATOM     29  C   UNL     1      39.399  74.028  75.223  0.00  0.00    +0.000 A 
ENDBRANCH  23  24
ENDBRANCH   7  23
TORSDOF 6
ENDMDL
MODEL 2
REMARK VINA RESULT:      -6.3      0.480      1.373
REMARK  Name = 
REMARK  6 active torsions:
REMARK  status: ('A' for Active; 'I' for Inactive)
REMARK    1  A    between atoms: C_2  and  O_3
REMARK    2  A    between atoms: C_2  and  C_4
REMARK    3  A    between atoms: N_6  and  C_7
REMARK    4  A    between atoms: C_7  and  C_8
REMARK    5  A    between atoms: C_17  and  C_18
REMARK    6  A    between atoms: C_18  and  C_19
REMARK                            x       y       z     vdW  Elec       q    Type
REMARK                         _______ _______ _______ _____ _____    ______ ____
ROOT
ATOM      1  C   UNL     1      42.143  78.578  69.641  0.00  0.00    +0.000 A 
ATOM      2  C   UNL     1      40.958  78.553  69.013  0.00  0.00    +0.000 A 
ATOM      3  N   UNL     1      39.977  77.573  69.125  0.00  0.00    +0.000 N 
ATOM      4  C   UNL     1      40.183  76.506  70.028  0.00  0.00    +0.000 A 
ATOM      5  C   UNL     1      39.229  75.511  70.296  0.00  0.00    +0.000 A 
ATOM      6  C   UNL     1      39.481  74.469  71.202  0.00  0.00    +0.000 A 
ATOM      7  C   UNL     1      40.702  74.384  71.877  0.00  0.00    +0.000 A 
ATOM      8  C   UNL     1      41.663  75.367  71.634  0.00  0.00    +0.000 A 
ATOM      9  C   UNL     1      41.406  76.412  70.730  0.00  0.00    +0.000 A 
ATOM     10  C   UNL     1      42.468  77.431  70.514  0.00  0.00    +0.000 A 
ATOM     11  O   UNL     1      43.572  77.285  71.029  0.00  0.00    +0.000 OA
ENDROOT
BRANCH   1  13
ATOM     12  O   UNL     1      43.534  80.426  70.256  0.00  0.00    +0.000 OA
ATOM     13  C   UNL     1      43.021  79.728  69.396  0.00  0.00    +0.000 C 
BRANCH  13  14
ATOM     14  O   UNL     1      43.290  79.929  68.099  0.00  0.00    +0.000 OA
ATOM     15  H   UNL     1      43.553  79.051  67.756  0.00  0.00    +0.000 HD
ENDBRANCH  13  14
ENDBRANCH   1  13
BRANCH   3  16
ATOM     16  C   UNL     1      38.755  77.652  68.300  0.00  0.00    +0.000 C 
BRANCH  16  17
ATOM     17  C   UNL     1      37.693  78.545  68.912  0.00  0.00    +0.000 A 
ATOM     18  C   UNL     1      37.725  79.930  68.676  0.00  0.00    +0.000 A 
ATOM     19  C   UNL     1      36.741  80.767  69.206  0.00  0.00    +0.000 A 
ATOM     20  C   UNL     1      35.709  80.233  69.974  0.00  0.00    +0.000 A 
ATOM     21  C   UNL     1      35.658  78.861  70.209  0.00  0.00    +0.000 A 
ATOM     22  C   UNL     1      36.641  78.023  69.679  0.00  0.00    +0.000 A 
ENDBRANCH  16  17
ENDBRANCH   3  16
BRANCH   7  23
ATOM     23  C   UNL     1      40.977  73.256  72.845  0.00  0.00    +0.000 C 
BRANCH  23  24
ATOM     24  C   UNL     1      40.909  73.668  74.298  0.00  0.00    +0.000 A 
ATOM     25  C   UNL     1      39.670  73.846  74.930  0.00  0.00    +0.000 A 
ATOM     26  C   UNL     1      39.608  74.229  76.272  0.00  0.00    +0.000 A 
ATOM     27  C   UNL     1      40.781  74.434  76.994  0.00  0.00    +0.000 A 
ATOM     28  C   UNL     1      42.018  74.258  76.378  0.00  0.00    +0.000 A 
ATOM     29  C   UNL     1      42.084  73.876  75.036  0.00  0.00    +0.000 A 
ENDBRANCH  23  24
ENDBRANCH   7  23
TORSDOF 6
ENDMDL
MODEL 3
REMARK VINA RESULT:      -5.8      0.897      1.017
REMARK  Name = 
REMARK  6 active torsions:
REMARK  status: ('A' for Active; 'I' for Inactive)
REMARK    1  A    between atoms: C_2  and  O_3
REMARK    2  A    between atoms: C_2  and  C_4
REMARK    3  A    between atoms: N_6  and  C_7
REMARK    4  A    between atoms: C_7  and  C_8
REMARK    5  A    between atoms: C_17  and  C_18
REMARK    6  A    between atoms: C_18  and  C_19
REMARK                            x       y       z     vdW  Elec       q    Type
REMARK                         _______ _______ _______ _____ _____    ______ ____
ROOT
ATOM      1  C   UNL     1      42.490  77.907  69.878  0.00  0.00    +0.000 A 
ATOM      2  C   UNL     1      41.486  77.617  69.038  0.00  0.00    +0.000 A 
ATOM      3  N   UNL     1      40.600  76.549  69.136  0.00  0.00    +0.000 N 
ATOM      4  C   UNL     1      40.694  75.689  70.253  0.00  0.00    +0.000 A 
ATOM      5  C   UNL     1      39.800  74.638  70.510  0.00  0.00    +0.000 A 
ATOM      6  C   UNL     1      39.937  73.809  71.635  0.00  0.00    +0.000 A 
ATOM      7  C   UNL     1      40.975  74.005  72.550  0.00  0.00    +0.000 A 
ATOM      8  C   UNL     1      41.871  75.050  72.321  0.00  0.00    +0.000 A 
ATOM      9  C   UNL     1      41.729  75.881  71.195  0.00  0.00    +0.000 A 
ATOM     10  C   UNL     1      42.714  76.981  71.007  0.00  0.00    +0.000 A 
ATOM     11  O   UNL     1      43.681  77.073  71.755  0.00  0.00    +0.000 OA
ENDROOT
BRANCH   1  13
ATOM     12  O   UNL     1      43.315  80.118  70.277  0.00  0.00    +0.000 OA
ATOM     13  C   UNL     1      43.290  79.105  69.597  0.00  0.00    +0.000 C 
BRANCH  13  14
ATOM     14  O   UNL     1      44.085  78.978  68.525  0.00  0.00    +0.000 OA
ATOM     15  H   UNL     1      44.487  79.862  68.404  0.00  0.00    +0.000 HD
ENDBRANCH  13  14
ENDBRANCH   1  13
BRANCH   3  16
ATOM     16  C   UNL     1      39.594  76.321  68.078  0.00  0.00    +0.000 C 
BRANCH  16  17
ATOM     17  C   UNL     1      38.428  77.288  68.163  0.00  0.00    +0.000 A 
ATOM     18  C   UNL     1      37.745  77.453  69.378  0.00  0.00    +0.000 A 
ATOM     19  C   UNL     1      36.688  78.358  69.486  0.00  0.00    +0.000 A 
ATOM     20  C   UNL     1      36.302  79.115  68.382  0.00  0.00    +0.000 A 
ATOM     21  C   UNL     1      36.975  78.970  67.171  0.00  0.00    +0.000 A 
ATOM     22  C   UNL     1      38.033  78.065  67.063  0.00  0.00    +0.000 A 
ENDBRANCH  16  17
ENDBRANCH   3  16
BRANCH   7  23
ATOM     23  C   UNL     1      41.127  73.106  73.755  0.00  0.00    +0.000 C 
BRANCH  23  24
ATOM     24  C   UNL     1      40.825  73.790  75.069  0.00  0.00    +0.000 A 
ATOM     25  C   UNL     1      41.861  74.118  75.956  0.00  0.00    +0.000 A 
ATOM     26  C   UNL     1      41.582  74.746  77.171  0.00  0.00    +0.000 A 
ATOM     27  C   UNL     1      40.267  75.057  77.510  0.00  0.00    +0.000 A 
ATOM     28  C   UNL     1      39.229  74.739  76.637  0.00  0.00    +0.000 A 
ATOM     29  C   UNL     1      39.505  74.109  75.421  0.00  0.00    +0.000 A 
ENDBRANCH  23  24
ENDBRANCH   7  23
TORSDOF 6
ENDMDL
