MODEL 1
REMARK VINA RESULT:      -6.4      0.000      0.000
REMARK  Name = 
REMARK  4 active torsions:
REMARK  status: ('A' for Active; 'I' for Inactive)
REMARK    1  A    between atoms: C_2  and  C_3
REMARK    2  A    between atoms: C_3  and  N_4
REMARK    3  A    between atoms: C_6  and  C_7
REMARK    4  A    between atoms: N_23  and  C_24
REMARK                            x       y       z     vdW  Elec       q    Type
REMARK                         _______ _______ _______ _____ _____    ______ ____
ROOT
ATOM      1  N   UNL     1      42.422  72.221  75.284  0.00  0.00    +0.000 N 
ATOM      2  N   UNL     1      41.406  73.132  75.158  0.00  0.00    +0.000 NA
ATOM      3  C   UNL     1      40.313  72.988  75.845  0.00  0.00    +0.000 A 
ATOM      4  C   UNL     1      40.110  71.851  76.771  0.00  0.00    +0.000 A 
ATOM      5  C   UNL     1      38.981  71.630  77.540  0.00  0.00    +0.000 A 
ATOM      6  N   UNL     1      38.824  70.572  78.373  0.00  0.00    +0.000 NA
ATOM      7  C   UNL     1      39.841  69.690  78.454  0.00  0.00    +0.000 A 
ATOM      8  C   UNL     1      41.011  69.820  77.736  0.00  0.00    +0.000 A 
ATOM      9  C   UNL     1      41.136  70.923  76.887  0.00  0.00    +0.000 A 
ATOM     10  C   UNL     1      42.371  71.112  76.113  0.00  0.00    +0.000 A 
ATOM     11  O   UNL     1      43.306  70.325  76.253  0.00  0.00    +0.000 OA
ENDROOT
BRANCH   3  12
ATOM     12  C   UNL     1      39.242  74.069  75.613  0.00  0.00    +0.000 C 
ATOM     13  C   UNL     1      37.937  73.490  75.058  0.00  0.00    +0.000 C 
ATOM     14  C   UNL     1      36.918  74.575  74.691  0.00  0.00    +0.000 C 
ATOM     15  C   UNL     1      37.022  75.824  75.558  0.00  0.00    +0.000 C 
ATOM     16  F   UNL     1      37.791  76.744  74.921  0.00  0.00    +0.000 F 
ATOM     17  F   UNL     1      35.794  76.380  75.696  0.00  0.00    +0.000 F 
ATOM     18  C   UNL     1      37.623  75.554  76.926  0.00  0.00    +0.000 C 
ATOM     19  C   UNL     1      39.049  75.015  76.809  0.00  0.00    +0.000 C 
ENDBRANCH   3  12
BRANCH   1  20
ATOM     20  C   UNL     1      43.593  72.443  74.432  0.00  0.00    +0.000 C 
BRANCH  20  22
ATOM     21  O   UNL     1      43.169  72.389  72.052  0.00  0.00    +0.000 OA
ATOM     22  C   UNL     1      43.256  73.067  73.075  0.00  0.00    +0.000 C 
ATOM     23  N   UNL     1      43.212  74.447  73.049  0.00  0.00    +0.000 N 
ATOM     24  H   UNL     1      43.666  74.922  73.829  0.00  0.00    +0.000 HD
BRANCH  23  25
ATOM     25  C   UNL     1      43.089  75.176  71.798  0.00  0.00    +0.000 C 
ATOM     26  C   UNL     1      43.724  76.584  71.854  0.00  0.00    +0.000 C 
ATOM     27  C   UNL     1      42.887  77.333  70.864  0.00  0.00    +0.000 A 
ATOM     28  C   UNL     1      43.155  78.559  70.280  0.00  0.00    +0.000 A 
ATOM     29  C   UNL     1      42.211  79.095  69.401  0.00  0.00    +0.000 A 
ATOM     30  C   UNL     1      41.016  78.410  69.130  0.00  0.00    +0.000 A 
ATOM     31  C   UNL     1      40.750  77.180  69.733  0.00  0.00    +0.000 A 
ATOM     32  C   UNL     1      41.696  76.651  70.594  0.00  0.00    +0.000 A 
ATOM     33  C   UNL     1      41.618  75.376  71.375  0.00  0.00    +0.000 C 
ENDBRANCH  23  25
ENDBRANCH  20  22
ENDBRANCH   1  20
TORSDOF 4
ENDMDL
MODEL 2
REMARK VINA RESULT:      -5.9     14.929     17.893
REMARK  Name = 
REMARK  4 active torsions:
REMARK  status: ('A' for Active; 'I' for Inactive)
REMARK    1  A    between atoms: C_2  and  C_3
REMARK    2  A    between atoms: C_3  and  N_4
REMARK    3  A    between atoms: C_6  and  C_7
REMARK    4  A    between atoms: N_23  and  C_24
REMARK                            x       y       z     vdW  Elec       q    Type
REMARK                         _______ _______ _______ _____ _____    ______ ____
ROOT
ATOM      1  N   UNL     1      53.100  85.653  66.704  0.00  0.00    +0.000 N 
ATOM      2  N   UNL     1      51.899  85.403  66.093  0.00  0.00    +0.000 NA
ATOM      3  C   UNL     1      50.989  86.328  66.042  0.00  0.00    +0.000 A 
ATOM      4  C   UNL     1      51.194  87.667  66.639  0.00  0.00    +0.000 A 
ATOM      5  C   UNL     1      50.279  88.705  66.623  0.00  0.00    +0.000 A 
ATOM      6  N   UNL     1      50.496  89.919  67.186  0.00  0.00    +0.000 NA
ATOM      7  C   UNL     1      51.684  90.117  67.793  0.00  0.00    +0.000 A 
ATOM      8  C   UNL     1      52.668  89.153  67.860  0.00  0.00    +0.000 A 
ATOM      9  C   UNL     1      52.406  87.913  67.268  0.00  0.00    +0.000 A 
ATOM     10  C   UNL     1      53.430  86.859  67.301  0.00  0.00    +0.000 A 
ATOM     11  O   UNL     1      54.527  87.088  67.807  0.00  0.00    +0.000 OA
ENDROOT
BRANCH   3  12
ATOM     12  C   UNL     1      49.680  85.926  65.339  0.00  0.00    +0.000 C 
ATOM     13  C   UNL     1      49.885  85.610  63.854  0.00  0.00    +0.000 C 
ATOM     14  C   UNL     1      48.566  85.347  63.118  0.00  0.00    +0.000 C 
ATOM     15  C   UNL     1      47.488  84.733  64.003  0.00  0.00    +0.000 C 
ATOM     16  F   UNL     1      46.687  85.721  64.477  0.00  0.00    +0.000 F 
ATOM     17  F   UNL     1      46.699  83.925  63.255  0.00  0.00    +0.000 F 
ATOM     18  C   UNL     1      48.052  83.958  65.180  0.00  0.00    +0.000 C 
ATOM     19  C   UNL     1      48.870  84.864  66.100  0.00  0.00    +0.000 C 
ENDBRANCH   3  12
BRANCH   1  20
ATOM     20  C   UNL     1      54.042  84.532  66.752  0.00  0.00    +0.000 C 
BRANCH  20  22
ATOM     21  O   UNL     1      54.169  83.227  64.721  0.00  0.00    +0.000 OA
ATOM     22  C   UNL     1      53.661  83.369  65.832  0.00  0.00    +0.000 C 
ATOM     23  N   UNL     1      52.608  82.588  66.265  0.00  0.00    +0.000 N 
ATOM     24  H   UNL     1      52.014  83.001  66.984  0.00  0.00    +0.000 HD
BRANCH  23  25
ATOM     25  C   UNL     1      52.020  81.571  65.410  0.00  0.00    +0.000 C 
ATOM     26  C   UNL     1      50.913  82.125  64.484  0.00  0.00    +0.000 C 
ATOM     27  C   UNL     1      50.036  80.926  64.309  0.00  0.00    +0.000 A 
ATOM     28  C   UNL     1      49.044  80.729  63.362  0.00  0.00    +0.000 A 
ATOM     29  C   UNL     1      48.316  79.537  63.403  0.00  0.00    +0.000 A 
ATOM     30  C   UNL     1      48.580  78.571  64.387  0.00  0.00    +0.000 A 
ATOM     31  C   UNL     1      49.574  78.784  65.343  0.00  0.00    +0.000 A 
ATOM     32  C   UNL     1      50.297  79.963  65.289  0.00  0.00    +0.000 A 
ATOM     33  C   UNL     1      51.377  80.423  66.218  0.00  0.00    +0.000 C 
ENDBRANCH  23  25
ENDBRANCH  20  22
ENDBRANCH   1  20
TORSDOF 4
ENDMDL
MODEL 3
REMARK VINA RESULT:      -5.9     12.750     15.311
REMARK  Name = 
REMARK  4 active torsions:
REMARK  status: ('A' for Active; 'I' for Inactive)
REMARK    1  A    between atoms: C_2  and  C_3
REMARK    2  A    between atoms: C_3  and  N_4
REMARK    3  A    between atoms: C_6  and  C_7
REMARK    4  A    between atoms: N_23  and  C_24
REMARK                            x       y       z     vdW  Elec       q    Type
REMARK                         _______ _______ _______ _____ _____    ______ ____
ROOT
ATOM      1  N   UNL     1      49.929  79.939  64.957  0.00  0.00    +0.000 N 
ATOM      2  N   UNL     1      49.579  81.264  64.992  0.00  0.00    +0.000 NA
ATOM      3  C   UNL     1      48.333  81.612  64.870  0.00  0.00    +0.000 A 
ATOM      4  C   UNL     1      47.254  80.616  64.683  0.00  0.00    +0.000 A 
ATOM      5  C   UNL     1      45.906  80.905  64.551  0.00  0.00    +0.000 A 
ATOM      6  N   UNL     1      44.942  79.968  64.373  0.00  0.00    +0.000 NA
ATOM      7  C   UNL     1      45.332  78.678  64.327  0.00  0.00    +0.000 A 
ATOM      8  C   UNL     1      46.647  78.282  64.454  0.00  0.00    +0.000 A 
ATOM      9  C   UNL     1      47.613  79.277  64.636  0.00  0.00    +0.000 A 
ATOM     10  C   UNL     1      49.026  78.902  64.791  0.00  0.00    +0.000 A 
ATOM     11  O   UNL     1      49.344  77.714  64.806  0.00  0.00    +0.000 OA
ENDROOT
BRANCH   3  12
ATOM     12  C   UNL     1      48.065  83.127  64.915  0.00  0.00    +0.000 C 
ATOM     13  C   UNL     1      49.074  83.875  65.792  0.00  0.00    +0.000 C 
ATOM     14  C   UNL     1      48.729  85.360  65.954  0.00  0.00    +0.000 C 
ATOM     15  C   UNL     1      48.009  85.952  64.748  0.00  0.00    +0.000 C 
ATOM     16  F   UNL     1      46.670  85.919  64.969  0.00  0.00    +0.000 F 
ATOM     17  F   UNL     1      48.344  87.259  64.621  0.00  0.00    +0.000 F 
ATOM     18  C   UNL     1      48.306  85.215  63.454  0.00  0.00    +0.000 C 
ATOM     19  C   UNL     1      47.850  83.757  63.530  0.00  0.00    +0.000 C 
ENDBRANCH   3  12
BRANCH   1  20
ATOM     20  C   UNL     1      51.362  79.651  65.053  0.00  0.00    +0.000 C 
BRANCH  20  22
ATOM     21  O   UNL     1      52.667  81.062  66.521  0.00  0.00    +0.000 OA
ATOM     22  C   UNL     1      51.980  80.049  66.397  0.00  0.00    +0.000 C 
ATOM     23  N   UNL     1      51.846  79.122  67.411  0.00  0.00    +0.000 N 
ATOM     24  H   UNL     1      51.609  78.174  67.120  0.00  0.00    +0.000 HD
BRANCH  23  25
ATOM     25  C   UNL     1      52.540  79.282  68.678  0.00  0.00    +0.000 C 
ATOM     26  C   UNL     1      53.874  78.504  68.739  0.00  0.00    +0.000 C 
ATOM     27  C   UNL     1      53.987  78.212  70.203  0.00  0.00    +0.000 A 
ATOM     28  C   UNL     1      55.106  77.789  70.901  0.00  0.00    +0.000 A 
ATOM     29  C   UNL     1      54.979  77.541  72.269  0.00  0.00    +0.000 A 
ATOM     30  C   UNL     1      53.744  77.708  72.915  0.00  0.00    +0.000 A 
ATOM     31  C   UNL     1      52.619  78.124  72.200  0.00  0.00    +0.000 A 
ATOM     32  C   UNL     1      52.757  78.378  70.846  0.00  0.00    +0.000 A 
ATOM     33  C   UNL     1      51.696  78.797  69.877  0.00  0.00    +0.000 C 
ENDBRANCH  23  25
ENDBRANCH  20  22
ENDBRANCH   1  20
TORSDOF 4
ENDMDL
