MODEL 1
REMARK VINA RESULT:      -7.0      0.000      0.000
REMARK  Name = 
REMARK  6 active torsions:
REMARK  status: ('A' for Active; 'I' for Inactive)
REMARK    1  A    between atoms: C_1  and  C_2
REMARK    2  A    between atoms: C_17  and  O_18
REMARK    3  A    between atoms: C_21  and  C_22
REMARK    4  A    between atoms: C_26  and  C_27
REMARK    5  A    between atoms: C_28  and  O_29
REMARK    6  A    between atoms: C_30  and  C_31
REMARK                            x       y       z     vdW  Elec       q    Type
REMARK                         _______ _______ _______ _____ _____    ______ ____
ROOT
ATOM      1  C   UNL     1     -16.777  17.343 -15.585  0.00  0.00    +0.000 C 
ATOM      2  C   UNL     1     -16.269  16.415 -14.488  0.00  0.00    +0.000 C 
ATOM      3  C   UNL     1     -17.153  15.176 -14.358  0.00  0.00    +0.000 C 
ATOM      4  C   UNL     1     -16.597  14.280 -13.268  0.00  0.00    +0.000 C 
ATOM      5  C   UNL     1     -15.117  13.933 -13.479  0.00  0.00    +0.000 C 
ATOM      6  O   UNL     1     -14.320  15.077 -13.781  0.00  0.00    +0.000 OA
ATOM      7  C   UNL     1     -14.826  15.990 -14.749  0.00  0.00    +0.000 C 
ATOM      8  O   UNL     1     -14.627  13.478 -12.156  0.00  0.00    +0.000 OA
ATOM      9  C   UNL     1     -14.334  12.103 -12.315  0.00  0.00    +0.000 C 
ATOM     10  C   UNL     1     -13.357  11.358 -11.415  0.00  0.00    +0.000 C 
ATOM     11  C   UNL     1     -12.565  10.475 -12.414  0.00  0.00    +0.000 C 
ATOM     12  C   UNL     1     -12.150   9.051 -12.041  0.00  0.00    +0.000 C 
ATOM     13  C   UNL     1     -11.471   9.013 -10.663  0.00  0.00    +0.000 C 
ATOM     14  C   UNL     1     -10.634   7.797 -10.429  0.00  0.00    +0.000 C 
ATOM     15  C   UNL     1     -10.310   6.900 -11.376  0.00  0.00    +0.000 C 
ATOM     16  C   UNL     1      -9.338   5.781 -11.084  0.00  0.00    +0.000 C 
ATOM     17  C   UNL     1      -8.037   5.965 -11.883  0.00  0.00    +0.000 C 
ATOM     18  C   UNL     1      -8.233   6.769 -13.177  0.00  0.00    +0.000 C 
ATOM     19  C   UNL     1      -9.622   6.521 -13.772  0.00  0.00    +0.000 C 
ATOM     20  C   UNL     1     -10.780   7.001 -12.836  0.00  0.00    +0.000 C 
ATOM     21  C   UNL     1     -11.969   6.030 -13.024  0.00  0.00    +0.000 C 
ATOM     22  C   UNL     1     -11.196   8.492 -13.152  0.00  0.00    +0.000 C 
ATOM     23  C   UNL     1     -11.746   8.718 -14.593  0.00  0.00    +0.000 C 
ATOM     24  C   UNL     1     -12.328  10.123 -14.857  0.00  0.00    +0.000 C 
ATOM     25  C   UNL     1     -13.340  10.534 -13.776  0.00  0.00    +0.000 C 
ATOM     26  C   UNL     1     -14.573   9.600 -13.857  0.00  0.00    +0.000 C 
ATOM     27  C   UNL     1     -13.744  12.018 -13.723  0.00  0.00    +0.000 C 
ATOM     28  C   UNL     1     -14.877  12.712 -14.458  0.00  0.00    +0.000 C 
ATOM     29  C   UNL     1     -14.557  12.996 -15.915  0.00  0.00    +0.000 C 
ENDROOT
BRANCH  17  30
ATOM     30  O   UNL     1      -7.525   4.669 -12.203  0.00  0.00    +0.000 OA
ATOM     31  H   UNL     1      -8.273   4.129 -12.512  0.00  0.00    +0.000 HD
ENDBRANCH  17  30
BRANCH  27  32
ATOM     32  O   UNL     1     -12.552  12.823 -13.841  0.00  0.00    +0.000 OA
ATOM     33  H   UNL     1     -12.165  12.646 -14.725  0.00  0.00    +0.000 HD
ENDBRANCH  27  32
TORSDOF 2
ENDMDL
MODEL 2
REMARK VINA RESULT:      -6.7      1.858      3.054
REMARK  Name = 
REMARK  6 active torsions:
REMARK  status: ('A' for Active; 'I' for Inactive)
REMARK    1  A    between atoms: C_1  and  C_2
REMARK    2  A    between atoms: C_17  and  O_18
REMARK    3  A    between atoms: C_21  and  C_22
REMARK    4  A    between atoms: C_26  and  C_27
REMARK    5  A    between atoms: C_28  and  O_29
REMARK    6  A    between atoms: C_30  and  C_31
REMARK                            x       y       z     vdW  Elec       q    Type
REMARK                         _______ _______ _______ _____ _____    ______ ____
ROOT
ATOM      1  C   UNL     1     -15.820  15.344 -13.539  0.00  0.00    +0.000 C 
ATOM      2  C   UNL     1     -15.496  14.290 -12.484  0.00  0.00    +0.000 C 
ATOM      3  C   UNL     1     -16.257  12.993 -12.748  0.00  0.00    +0.000 C 
ATOM      4  C   UNL     1     -15.890  11.975 -11.684  0.00  0.00    +0.000 C 
ATOM      5  C   UNL     1     -14.375  11.760 -11.564  0.00  0.00    +0.000 C 
ATOM      6  O   UNL     1     -13.647  12.986 -11.500  0.00  0.00    +0.000 OA
ATOM      7  C   UNL     1     -13.997  14.003 -12.433  0.00  0.00    +0.000 C 
ATOM      8  O   UNL     1     -14.170  11.137 -10.235  0.00  0.00    +0.000 OA
ATOM      9  C   UNL     1     -13.712   9.825 -10.500  0.00  0.00    +0.000 C 
ATOM     10  C   UNL     1     -12.908   9.014  -9.493  0.00  0.00    +0.000 C 
ATOM     11  C   UNL     1     -11.817   8.348 -10.373  0.00  0.00    +0.000 C 
ATOM     12  C   UNL     1     -11.362   6.913 -10.104  0.00  0.00    +0.000 C 
ATOM     13  C   UNL     1     -11.029   6.705  -8.618  0.00  0.00    +0.000 C 
ATOM     14  C   UNL     1     -10.155   5.523  -8.349  0.00  0.00    +0.000 C 
ATOM     15  C   UNL     1      -9.527   4.806  -9.297  0.00  0.00    +0.000 C 
ATOM     16  C   UNL     1      -8.546   3.720  -8.926  0.00  0.00    +0.000 C 
ATOM     17  C   UNL     1      -7.118   4.107  -9.342  0.00  0.00    +0.000 C 
ATOM     18  C   UNL     1      -7.080   5.088 -10.524  0.00  0.00    +0.000 C 
ATOM     19  C   UNL     1      -8.257   4.849 -11.475  0.00  0.00    +0.000 C 
ATOM     20  C   UNL     1      -9.645   5.103 -10.800  0.00  0.00    +0.000 C 
ATOM     21  C   UNL     1     -10.653   4.099 -11.409  0.00  0.00    +0.000 C 
ATOM     22  C   UNL     1     -10.121   6.595 -11.006  0.00  0.00    +0.000 C 
ATOM     23  C   UNL     1     -10.333   7.006 -12.495  0.00  0.00    +0.000 C 
ATOM     24  C   UNL     1     -10.973   8.396 -12.704  0.00  0.00    +0.000 C 
ATOM     25  C   UNL     1     -12.248   8.569 -11.864  0.00  0.00    +0.000 C 
ATOM     26  C   UNL     1     -13.327   7.582 -12.376  0.00  0.00    +0.000 C 
ATOM     27  C   UNL     1     -12.799   9.998 -11.714  0.00  0.00    +0.000 C 
ATOM     28  C   UNL     1     -13.789  10.723 -12.609  0.00  0.00    +0.000 C 
ATOM     29  C   UNL     1     -13.162  11.250 -13.887  0.00  0.00    +0.000 C 
ENDROOT
BRANCH  17  30
ATOM     30  O   UNL     1      -6.418   2.912  -9.697  0.00  0.00    +0.000 OA
ATOM     31  H   UNL     1      -6.603   2.252  -9.007  0.00  0.00    +0.000 HD
ENDBRANCH  17  30
BRANCH  27  32
ATOM     32  O   UNL     1     -11.700  10.885 -11.421  0.00  0.00    +0.000 OA
ATOM     33  H   UNL     1     -11.494  10.792 -10.466  0.00  0.00    +0.000 HD
ENDBRANCH  27  32
TORSDOF 2
ENDMDL
MODEL 3
REMARK VINA RESULT:      -6.7      3.911      5.866
REMARK  Name = 
REMARK  6 active torsions:
REMARK  status: ('A' for Active; 'I' for Inactive)
REMARK    1  A    between atoms: C_1  and  C_2
REMARK    2  A    between atoms: C_17  and  O_18
REMARK    3  A    between atoms: C_21  and  C_22
REMARK    4  A    between atoms: C_26  and  C_27
REMARK    5  A    between atoms: C_28  and  O_29
REMARK    6  A    between atoms: C_30  and  C_31
REMARK                            x       y       z     vdW  Elec       q    Type
REMARK                         _______ _______ _______ _____ _____    ______ ____
ROOT
ATOM      1  C   UNL     1     -12.381  20.480 -18.803  0.00  0.00    +0.000 C 
ATOM      2  C   UNL     1     -13.423  19.800 -17.919  0.00  0.00    +0.000 C 
ATOM      3  C   UNL     1     -14.084  18.631 -18.645  0.00  0.00    +0.000 C 
ATOM      4  C   UNL     1     -15.097  17.981 -17.720  0.00  0.00    +0.000 C 
ATOM      5  C   UNL     1     -14.495  17.577 -16.368  0.00  0.00    +0.000 C 
ATOM      6  O   UNL     1     -13.722  18.618 -15.775  0.00  0.00    +0.000 OA
ATOM      7  C   UNL     1     -12.802  19.309 -16.614  0.00  0.00    +0.000 C 
ATOM      8  O   UNL     1     -15.652  17.408 -15.457  0.00  0.00    +0.000 OA
ATOM      9  C   UNL     1     -15.695  16.027 -15.153  0.00  0.00    +0.000 C 
ATOM     10  C   UNL     1     -16.364  15.479 -13.899  0.00  0.00    +0.000 C 
ATOM     11  C   UNL     1     -15.368  14.391 -13.419  0.00  0.00    +0.000 C 
ATOM     12  C   UNL     1     -15.873  13.074 -12.827  0.00  0.00    +0.000 C 
ATOM     13  C   UNL     1     -16.933  13.323 -11.743  0.00  0.00    +0.000 C 
ATOM     14  C   UNL     1     -17.130  12.173 -10.808  0.00  0.00    +0.000 C 
ATOM     15  C   UNL     1     -16.337  11.089 -10.753  0.00  0.00    +0.000 C 
ATOM     16  C   UNL     1     -16.523  10.046  -9.678  0.00  0.00    +0.000 C 
ATOM     17  C   UNL     1     -15.327  10.036  -8.712  0.00  0.00    +0.000 C 
ATOM     18  C   UNL     1     -14.029  10.546  -9.356  0.00  0.00    +0.000 C 
ATOM     19  C   UNL     1     -13.980  10.197 -10.846  0.00  0.00    +0.000 C 
ATOM     20  C   UNL     1     -15.120  10.883 -11.669  0.00  0.00    +0.000 C 
ATOM     21  C   UNL     1     -15.532   9.910 -12.800  0.00  0.00    +0.000 C 
ATOM     22  C   UNL     1     -14.654  12.277 -12.247  0.00  0.00    +0.000 C 
ATOM     23  C   UNL     1     -13.455  12.197 -13.241  0.00  0.00    +0.000 C 
ATOM     24  C   UNL     1     -13.108  13.521 -13.954  0.00  0.00    +0.000 C 
ATOM     25  C   UNL     1     -14.349  14.168 -14.590  0.00  0.00    +0.000 C 
ATOM     26  C   UNL     1     -14.867  13.255 -15.730  0.00  0.00    +0.000 C 
ATOM     27  C   UNL     1     -14.222  15.635 -15.039  0.00  0.00    +0.000 C 
ATOM     28  C   UNL     1     -13.766  16.170 -16.385  0.00  0.00    +0.000 C 
ATOM     29  C   UNL     1     -12.259  16.132 -16.562  0.00  0.00    +0.000 C 
ENDROOT
BRANCH  17  30
ATOM     30  O   UNL     1     -15.133   8.694  -8.257  0.00  0.00    +0.000 OA
ATOM     31  H   UNL     1     -15.802   8.140  -8.694  0.00  0.00    +0.000 HD
ENDBRANCH  17  30
BRANCH  27  32
ATOM     32  O   UNL     1     -13.561  16.378 -13.994  0.00  0.00    +0.000 OA
ATOM     33  H   UNL     1     -12.964  17.025 -14.428  0.00  0.00    +0.000 HD
ENDBRANCH  27  32
TORSDOF 2
ENDMDL
