MODEL 1
REMARK VINA RESULT:      -6.5      0.000      0.000
REMARK  Name = 
REMARK  8 active torsions:
REMARK  status: ('A' for Active; 'I' for Inactive)
REMARK    1  A    between atoms: C_1  and  C_2
REMARK    2  A    between atoms: C_2  and  C_3
REMARK    3  A    between atoms: C_3  and  C_4
REMARK    4  A    between atoms: C_16  and  C_17
REMARK    5  A    between atoms: C_16  and  C_18
REMARK    6  A    between atoms: C_22  and  C_23
REMARK    7  A    between atoms: C_22  and  C_24
REMARK    8  A    between atoms: C_25  and  C_26
REMARK                            x       y       z     vdW  Elec       q    Type
REMARK                         _______ _______ _______ _____ _____    ______ ____
ROOT
ATOM      1  C   UNL     1      20.083  34.667  55.183  0.00  0.00    +0.000 A 
ATOM      2  C   UNL     1      20.668  34.052  56.223  0.00  0.00    +0.000 A 
ATOM      3  C   UNL     1      21.967  33.384  56.159  0.00  0.00    +0.000 A 
ATOM      4  O   UNL     1      22.458  32.864  57.153  0.00  0.00    +0.000 OA
ATOM      5  O   UNL     1      22.578  33.391  54.926  0.00  0.00    +0.000 OA
ATOM      6  C   UNL     1      22.009  33.994  53.779  0.00  0.00    +0.000 A 
ATOM      7  C   UNL     1      22.749  33.914  52.584  0.00  0.00    +0.000 A 
ATOM      8  C   UNL     1      22.257  34.520  51.432  0.00  0.00    +0.000 A 
ATOM      9  C   UNL     1      21.032  35.210  51.476  0.00  0.00    +0.000 A 
ATOM     10  C   UNL     1      20.293  35.269  52.677  0.00  0.00    +0.000 A 
ATOM     11  C   UNL     1      20.772  34.662  53.863  0.00  0.00    +0.000 A 
ATOM     12  O   UNL     1      19.112  35.960  52.741  0.00  0.00    +0.000 OA
ATOM     13  C   UNL     1      18.414  36.325  51.536  0.00  0.00    +0.000 C 
ATOM     14  C   UNL     1      17.817  37.712  51.802  0.00  0.00    +0.000 C 
ATOM     15  C   UNL     1      17.286  35.309  51.329  0.00  0.00    +0.000 C 
ATOM     16  C   UNL     1      19.283  36.389  50.312  0.00  0.00    +0.000 C 
ATOM     17  C   UNL     1      20.516  35.879  50.281  0.00  0.00    +0.000 C 
ATOM     18  O   UNL     1      22.914  34.503  50.229  0.00  0.00    +0.000 OA
ATOM     19  C   UNL     1      23.971  33.541  50.052  0.00  0.00    +0.000 C 
ATOM     20  C   UNL     1      24.730  34.037  48.807  0.00  0.00    +0.000 C 
ATOM     21  C   UNL     1      23.352  32.173  49.714  0.00  0.00    +0.000 C 
ATOM     22  C   UNL     1      24.897  33.539  51.280  0.00  0.00    +0.000 C 
ATOM     23  C   UNL     1      26.095  32.593  51.178  0.00  0.00    +0.000 C 
ATOM     24  C   UNL     1      24.054  33.216  52.498  0.00  0.00    +0.000 C 
ATOM     25  O   UNL     1      24.430  32.438  53.367  0.00  0.00    +0.000 OA
ENDROOT
BRANCH   1  26
ATOM     26  C   UNL     1      18.729  35.302  55.417  0.00  0.00    +0.000 C 
BRANCH  26  28
ATOM     27  C   UNL     1      17.742  37.022  56.974  0.00  0.00    +0.000 C 
ATOM     28  C   UNL     1      18.518  35.717  56.877  0.00  0.00    +0.000 C 
ENDBRANCH  26  28
ENDBRANCH   1  26
TORSDOF 2
ENDMDL
MODEL 2
REMARK VINA RESULT:      -5.8      4.632      8.782
REMARK  Name = 
REMARK  8 active torsions:
REMARK  status: ('A' for Active; 'I' for Inactive)
REMARK    1  A    between atoms: C_1  and  C_2
REMARK    2  A    between atoms: C_2  and  C_3
REMARK    3  A    between atoms: C_3  and  C_4
REMARK    4  A    between atoms: C_16  and  C_17
REMARK    5  A    between atoms: C_16  and  C_18
REMARK    6  A    between atoms: C_22  and  C_23
REMARK    7  A    between atoms: C_22  and  C_24
REMARK    8  A    between atoms: C_25  and  C_26
REMARK                            x       y       z     vdW  Elec       q    Type
REMARK                         _______ _______ _______ _____ _____    ______ ____
ROOT
ATOM      1  C   UNL     1      24.629  35.058  47.623  0.00  0.00    +0.000 A 
ATOM      2  C   UNL     1      24.351  35.924  46.634  0.00  0.00    +0.000 A 
ATOM      3  C   UNL     1      25.363  36.657  45.874  0.00  0.00    +0.000 A 
ATOM      4  O   UNL     1      25.044  37.412  44.965  0.00  0.00    +0.000 OA
ATOM      5  O   UNL     1      26.667  36.432  46.251  0.00  0.00    +0.000 OA
ATOM      6  C   UNL     1      27.034  35.558  47.302  0.00  0.00    +0.000 A 
ATOM      7  C   UNL     1      28.409  35.435  47.578  0.00  0.00    +0.000 A 
ATOM      8  C   UNL     1      28.832  34.562  48.576  0.00  0.00    +0.000 A 
ATOM      9  C   UNL     1      27.884  33.809  49.292  0.00  0.00    +0.000 A 
ATOM     10  C   UNL     1      26.507  33.953  49.014  0.00  0.00    +0.000 A 
ATOM     11  C   UNL     1      26.051  34.833  48.004  0.00  0.00    +0.000 A 
ATOM     12  O   UNL     1      25.574  33.206  49.684  0.00  0.00    +0.000 OA
ATOM     13  C   UNL     1      25.919  32.542  50.914  0.00  0.00    +0.000 C 
ATOM     14  C   UNL     1      25.172  31.203  50.890  0.00  0.00    +0.000 C 
ATOM     15  C   UNL     1      25.395  33.403  52.069  0.00  0.00    +0.000 C 
ATOM     16  C   UNL     1      27.389  32.282  51.088  0.00  0.00    +0.000 C 
ATOM     17  C   UNL     1      28.314  32.864  50.323  0.00  0.00    +0.000 C 
ATOM     18  O   UNL     1      30.149  34.371  48.906  0.00  0.00    +0.000 OA
ATOM     19  C   UNL     1      31.105  35.349  48.454  0.00  0.00    +0.000 C 
ATOM     20  C   UNL     1      32.468  34.656  48.634  0.00  0.00    +0.000 C 
ATOM     21  C   UNL     1      31.063  36.564  49.398  0.00  0.00    +0.000 C 
ATOM     22  C   UNL     1      30.864  35.682  46.972  0.00  0.00    +0.000 C 
ATOM     23  C   UNL     1      31.861  36.671  46.366  0.00  0.00    +0.000 C 
ATOM     24  C   UNL     1      29.444  36.194  46.835  0.00  0.00    +0.000 C 
ATOM     25  O   UNL     1      29.161  37.165  46.143  0.00  0.00    +0.000 OA
ENDROOT
BRANCH   1  26
ATOM     26  C   UNL     1      23.461  34.390  48.316  0.00  0.00    +0.000 C 
BRANCH  26  28
ATOM     27  C   UNL     1      21.478  35.192  49.650  0.00  0.00    +0.000 C 
ATOM     28  C   UNL     1      22.996  35.157  49.559  0.00  0.00    +0.000 C 
ENDBRANCH  26  28
ENDBRANCH   1  26
TORSDOF 2
ENDMDL
MODEL 3
REMARK VINA RESULT:      -5.7      5.865      9.767
REMARK  Name = 
REMARK  8 active torsions:
REMARK  status: ('A' for Active; 'I' for Inactive)
REMARK    1  A    between atoms: C_1  and  C_2
REMARK    2  A    between atoms: C_2  and  C_3
REMARK    3  A    between atoms: C_3  and  C_4
REMARK    4  A    between atoms: C_16  and  C_17
REMARK    5  A    between atoms: C_16  and  C_18
REMARK    6  A    between atoms: C_22  and  C_23
REMARK    7  A    between atoms: C_22  and  C_24
REMARK    8  A    between atoms: C_25  and  C_26
REMARK                            x       y       z     vdW  Elec       q    Type
REMARK                         _______ _______ _______ _____ _____    ______ ____
ROOT
ATOM      1  C   UNL     1      27.124  35.753  46.062  0.00  0.00    +0.000 A 
ATOM      2  C   UNL     1      27.860  36.404  45.146  0.00  0.00    +0.000 A 
ATOM      3  C   UNL     1      29.312  36.560  45.218  0.00  0.00    +0.000 A 
ATOM      4  O   UNL     1      29.928  37.143  44.335  0.00  0.00    +0.000 OA
ATOM      5  O   UNL     1      29.914  36.011  46.327  0.00  0.00    +0.000 OA
ATOM      6  C   UNL     1      29.200  35.336  47.347  0.00  0.00    +0.000 A 
ATOM      7  C   UNL     1      29.952  34.833  48.424  0.00  0.00    +0.000 A 
ATOM      8  C   UNL     1      29.309  34.130  49.439  0.00  0.00    +0.000 A 
ATOM      9  C   UNL     1      27.920  33.923  49.372  0.00  0.00    +0.000 A 
ATOM     10  C   UNL     1      27.176  34.446  48.292  0.00  0.00    +0.000 A 
ATOM     11  C   UNL     1      27.805  35.165  47.248  0.00  0.00    +0.000 A 
ATOM     12  O   UNL     1      25.826  34.230  48.200  0.00  0.00    +0.000 OA
ATOM     13  C   UNL     1      25.076  33.798  49.350  0.00  0.00    +0.000 C 
ATOM     14  C   UNL     1      24.024  32.817  48.819  0.00  0.00    +0.000 C 
ATOM     15  C   UNL     1      24.381  35.029  49.940  0.00  0.00    +0.000 C 
ATOM     16  C   UNL     1      25.899  33.114  50.405  0.00  0.00    +0.000 C 
ATOM     17  C   UNL     1      27.233  33.159  50.413  0.00  0.00    +0.000 C 
ATOM     18  O   UNL     1      29.961  33.596  50.520  0.00  0.00    +0.000 OA
ATOM     19  C   UNL     1      31.293  34.065  50.803  0.00  0.00    +0.000 C 
ATOM     20  C   UNL     1      31.862  33.022  51.782  0.00  0.00    +0.000 C 
ATOM     21  C   UNL     1      31.202  35.411  51.545  0.00  0.00    +0.000 C 
ATOM     22  C   UNL     1      32.128  34.102  49.513  0.00  0.00    +0.000 C 
ATOM     23  C   UNL     1      33.584  34.532  49.703  0.00  0.00    +0.000 C 
ATOM     24  C   UNL     1      31.421  35.009  48.525  0.00  0.00    +0.000 C 
ATOM     25  O   UNL     1      32.022  35.827  47.840  0.00  0.00    +0.000 OA
ENDROOT
BRANCH   1  26
ATOM     26  C   UNL     1      25.627  35.692  45.841  0.00  0.00    +0.000 C 
BRANCH  26  28
ATOM     27  C   UNL     1      23.779  37.204  45.031  0.00  0.00    +0.000 C 
ATOM     28  C   UNL     1      24.954  37.062  45.987  0.00  0.00    +0.000 C 
ENDBRANCH  26  28
ENDBRANCH   1  26
TORSDOF 2
ENDMDL
