MODEL 1
REMARK VINA RESULT:      -5.3      0.000      0.000
REMARK  Name = 
REMARK  7 active torsions:
REMARK  status: ('A' for Active; 'I' for Inactive)
REMARK    1  A    between atoms: C_1  and  O_2
REMARK    2  A    between atoms: O_2  and  C_3
REMARK    3  A    between atoms: C_8  and  O_9
REMARK    4  A    between atoms: O_9  and  C_10
REMARK    5  A    between atoms: C_19  and  C_20
REMARK    6  A    between atoms: C_20  and  C_21
REMARK    7  A    between atoms: C_20  and  C_22
REMARK                            x       y       z     vdW  Elec       q    Type
REMARK                         _______ _______ _______ _____ _____    ______ ____
ROOT
ATOM      1  C   UNL     1      51.191  89.035  65.923  0.00  0.00    +0.000 A 
ATOM      2  C   UNL     1      50.227  88.619  64.999  0.00  0.00    +0.000 A 
ATOM      3  C   UNL     1      49.613  87.371  65.125  0.00  0.00    +0.000 A 
ATOM      4  C   UNL     1      49.933  86.526  66.192  0.00  0.00    +0.000 A 
ATOM      5  C   UNL     1      50.905  86.941  67.117  0.00  0.00    +0.000 A 
ATOM      6  C   UNL     1      51.544  88.180  66.984  0.00  0.00    +0.000 A 
ATOM      7  C   UNL     1      49.248  85.187  66.362  0.00  0.00    +0.000 C 
ATOM      8  C   UNL     1      50.143  84.022  65.977  0.00  0.00    +0.000 C 
ATOM      9  O   UNL     1      51.355  84.003  66.183  0.00  0.00    +0.000 OA
ATOM     10  C   UNL     1      49.492  82.830  65.399  0.00  0.00    +0.000 A 
ATOM     11  C   UNL     1      50.267  81.707  65.068  0.00  0.00    +0.000 A 
ATOM     12  C   UNL     1      49.678  80.552  64.547  0.00  0.00    +0.000 A 
ATOM     13  C   UNL     1      48.295  80.581  64.389  0.00  0.00    +0.000 A 
ATOM     14  O   UNL     1      47.537  79.559  63.908  0.00  0.00    +0.000 OA
ATOM     15  C   UNL     1      46.240  79.982  63.910  0.00  0.00    +0.000 A 
ATOM     16  C   UNL     1      46.166  81.273  64.390  0.00  0.00    +0.000 A 
ATOM     17  C   UNL     1      47.495  81.672  64.704  0.00  0.00    +0.000 A 
ATOM     18  C   UNL     1      48.103  82.836  65.212  0.00  0.00    +0.000 A 
ATOM     19  O   UNL     1      47.305  83.904  65.514  0.00  0.00    +0.000 OA
ATOM     20  C   UNL     1      47.962  85.172  65.543  0.00  0.00    +0.000 C 
ATOM     21  C   UNL     1      48.220  85.728  64.142  0.00  0.00    +0.000 C 
ATOM     22  O   UNL     1      48.673  87.083  64.173  0.00  0.00    +0.000 OA
ENDROOT
BRANCH  15  23
ATOM     23  C   UNL     1      45.211  79.017  63.421  0.00  0.00    +0.000 C 
ATOM     24  C   UNL     1      45.846  77.930  62.554  0.00  0.00    +0.000 C 
ATOM     25  C   UNL     1      44.435  78.403  64.585  0.00  0.00    +0.000 C 
ENDBRANCH  15  23
BRANCH   1  27
ATOM     26  C   UNL     1      52.278  90.703  64.603  0.00  0.00    +0.000 C 
ATOM     27  O   UNL     1      51.846  90.240  65.875  0.00  0.00    +0.000 OA
ENDBRANCH   1  27
BRANCH   6  28
ATOM     28  O   UNL     1      52.498  88.648  67.853  0.00  0.00    +0.000 OA
ATOM     29  C   UNL     1      53.754  87.979  67.850  0.00  0.00    +0.000 C 
ENDBRANCH   6  28
TORSDOF 3
ENDMDL
MODEL 2
REMARK VINA RESULT:      -5.3      1.084      1.425
REMARK  Name = 
REMARK  7 active torsions:
REMARK  status: ('A' for Active; 'I' for Inactive)
REMARK    1  A    between atoms: C_1  and  O_2
REMARK    2  A    between atoms: O_2  and  C_3
REMARK    3  A    between atoms: C_8  and  O_9
REMARK    4  A    between atoms: O_9  and  C_10
REMARK    5  A    between atoms: C_19  and  C_20
REMARK    6  A    between atoms: C_20  and  C_21
REMARK    7  A    between atoms: C_20  and  C_22
REMARK                            x       y       z     vdW  Elec       q    Type
REMARK                         _______ _______ _______ _____ _____    ______ ____
ROOT
ATOM      1  C   UNL     1      50.782  89.568  64.206  0.00  0.00    +0.000 A 
ATOM      2  C   UNL     1      50.003  88.783  63.350  0.00  0.00    +0.000 A 
ATOM      3  C   UNL     1      49.476  87.565  63.786  0.00  0.00    +0.000 A 
ATOM      4  C   UNL     1      49.696  87.122  65.094  0.00  0.00    +0.000 A 
ATOM      5  C   UNL     1      50.484  87.908  65.951  0.00  0.00    +0.000 A 
ATOM      6  C   UNL     1      51.037  89.118  65.515  0.00  0.00    +0.000 A 
ATOM      7  C   UNL     1      49.099  85.823  65.591  0.00  0.00    +0.000 C 
ATOM      8  C   UNL     1      50.130  84.713  65.698  0.00  0.00    +0.000 C 
ATOM      9  O   UNL     1      51.295  84.901  66.042  0.00  0.00    +0.000 OA
ATOM     10  C   UNL     1      49.667  83.333  65.448  0.00  0.00    +0.000 A 
ATOM     11  C   UNL     1      50.569  82.264  65.579  0.00  0.00    +0.000 A 
ATOM     12  C   UNL     1      50.156  80.944  65.379  0.00  0.00    +0.000 A 
ATOM     13  C   UNL     1      48.814  80.758  65.056  0.00  0.00    +0.000 A 
ATOM     14  O   UNL     1      48.219  79.556  64.832  0.00  0.00    +0.000 OA
ATOM     15  C   UNL     1      46.908  79.802  64.548  0.00  0.00    +0.000 A 
ATOM     16  C   UNL     1      46.662  81.158  64.588  0.00  0.00    +0.000 A 
ATOM     17  C   UNL     1      47.893  81.789  64.917  0.00  0.00    +0.000 A 
ATOM     18  C   UNL     1      48.326  83.116  65.105  0.00  0.00    +0.000 A 
ATOM     19  O   UNL     1      47.411  84.122  64.961  0.00  0.00    +0.000 OA
ATOM     20  C   UNL     1      47.957  85.410  64.670  0.00  0.00    +0.000 C 
ATOM     21  C   UNL     1      48.378  85.549  63.207  0.00  0.00    +0.000 C 
ATOM     22  O   UNL     1      48.715  86.895  62.866  0.00  0.00    +0.000 OA
ENDROOT
BRANCH  15  23
ATOM     23  C   UNL     1      46.042  78.618  64.265  0.00  0.00    +0.000 C 
ATOM     24  C   UNL     1      44.609  78.861  64.737  0.00  0.00    +0.000 C 
ATOM     25  C   UNL     1      46.074  78.255  62.782  0.00  0.00    +0.000 C 
ENDBRANCH  15  23
BRANCH   1  27
ATOM     26  C   UNL     1      51.953  90.873  62.583  0.00  0.00    +0.000 C 
ATOM     27  O   UNL     1      51.341  90.773  63.862  0.00  0.00    +0.000 OA
ENDBRANCH   1  27
BRANCH   6  28
ATOM     28  O   UNL     1      51.811  89.935  66.301  0.00  0.00    +0.000 OA
ATOM     29  C   UNL     1      53.013  89.379  66.819  0.00  0.00    +0.000 C 
ENDBRANCH   6  28
TORSDOF 3
ENDMDL
MODEL 3
REMARK VINA RESULT:      -5.3      1.419      1.665
REMARK  Name = 
REMARK  7 active torsions:
REMARK  status: ('A' for Active; 'I' for Inactive)
REMARK    1  A    between atoms: C_1  and  O_2
REMARK    2  A    between atoms: O_2  and  C_3
REMARK    3  A    between atoms: C_8  and  O_9
REMARK    4  A    between atoms: O_9  and  C_10
REMARK    5  A    between atoms: C_19  and  C_20
REMARK    6  A    between atoms: C_20  and  C_21
REMARK    7  A    between atoms: C_20  and  C_22
REMARK                            x       y       z     vdW  Elec       q    Type
REMARK                         _______ _______ _______ _____ _____    ______ ____
ROOT
ATOM      1  C   UNL     1      50.326  89.008  64.106  0.00  0.00    +0.000 A 
ATOM      2  C   UNL     1      49.567  88.147  63.306  0.00  0.00    +0.000 A 
ATOM      3  C   UNL     1      49.161  86.901  63.790  0.00  0.00    +0.000 A 
ATOM      4  C   UNL     1      49.483  86.504  65.091  0.00  0.00    +0.000 A 
ATOM      5  C   UNL     1      50.249  87.366  65.892  0.00  0.00    +0.000 A 
ATOM      6  C   UNL     1      50.683  88.606  65.406  0.00  0.00    +0.000 A 
ATOM      7  C   UNL     1      49.016  85.173  65.641  0.00  0.00    +0.000 C 
ATOM      8  C   UNL     1      50.136  84.149  65.712  0.00  0.00    +0.000 C 
ATOM      9  O   UNL     1      51.298  84.434  65.990  0.00  0.00    +0.000 OA
ATOM     10  C   UNL     1      49.770  82.732  65.510  0.00  0.00    +0.000 A 
ATOM     11  C   UNL     1      50.758  81.740  65.610  0.00  0.00    +0.000 A 
ATOM     12  C   UNL     1      50.440  80.387  65.455  0.00  0.00    +0.000 A 
ATOM     13  C   UNL     1      49.102  80.091  65.208  0.00  0.00    +0.000 A 
ATOM     14  O   UNL     1      48.593  78.842  65.036  0.00  0.00    +0.000 OA
ATOM     15  C   UNL     1      47.253  78.980  64.817  0.00  0.00    +0.000 A 
ATOM     16  C   UNL     1      46.904  80.314  64.848  0.00  0.00    +0.000 A 
ATOM     17  C   UNL     1      48.098  81.045  65.100  0.00  0.00    +0.000 A 
ATOM     18  C   UNL     1      48.434  82.405  65.242  0.00  0.00    +0.000 A 
ATOM     19  O   UNL     1      47.437  83.333  65.130  0.00  0.00    +0.000 OA
ATOM     20  C   UNL     1      47.864  84.653  64.789  0.00  0.00    +0.000 C 
ATOM     21  C   UNL     1      48.196  84.794  63.304  0.00  0.00    +0.000 C 
ATOM     22  O   UNL     1      48.408  86.155  62.923  0.00  0.00    +0.000 OA
ENDROOT
BRANCH  15  23
ATOM     23  C   UNL     1      46.470  77.726  64.601  0.00  0.00    +0.000 C 
ATOM     24  C   UNL     1      47.242  76.504  65.095  0.00  0.00    +0.000 C 
ATOM     25  C   UNL     1      45.099  77.813  65.271  0.00  0.00    +0.000 C 
ENDBRANCH  15  23
BRANCH   1  27
ATOM     26  C   UNL     1      51.549  90.318  62.526  0.00  0.00    +0.000 C 
ATOM     27  O   UNL     1      50.770  90.245  63.712  0.00  0.00    +0.000 OA
ENDBRANCH   1  27
BRANCH   6  28
ATOM     28  O   UNL     1      51.429  89.497  66.136  0.00  0.00    +0.000 OA
ATOM     29  C   UNL     1      50.822  90.043  67.301  0.00  0.00    +0.000 C 
ENDBRANCH   6  28
TORSDOF 3
ENDMDL
