MODEL 1
REMARK VINA RESULT:      -5.5      0.000      0.000
REMARK  Name = 
REMARK  6 active torsions:
REMARK  status: ('A' for Active; 'I' for Inactive)
REMARK    1  A    between atoms: C_2  and  C_3
REMARK    2  A    between atoms: C_2  and  C_12
REMARK    3  A    between atoms: C_16  and  O_17
REMARK    4  A    between atoms: O_17  and  C_18
REMARK    5  A    between atoms: C_18  and  C_19
REMARK    6  A    between atoms: C_19  and  N_20
REMARK                            x       y       z     vdW  Elec       q    Type
REMARK                         _______ _______ _______ _____ _____    ______ ____
ROOT
ATOM      1  C   UNL     1      42.747  74.502  72.560  0.00  0.00    +0.000 A 
ATOM      2  C   UNL     1      41.597  74.700  71.811  0.00  0.00    +0.000 A 
ATOM      3  C   UNL     1      41.732  75.919  71.094  0.00  0.00    +0.000 A 
ATOM      4  C   UNL     1      40.922  76.611  70.174  0.00  0.00    +0.000 A 
ATOM      5  C   UNL     1      41.357  77.832  69.641  0.00  0.00    +0.000 A 
ATOM      6  C   UNL     1      42.589  78.359  70.024  0.00  0.00    +0.000 A 
ATOM      7  C   UNL     1      43.413  77.690  70.941  0.00  0.00    +0.000 A 
ATOM      8  C   UNL     1      42.956  76.472  71.454  0.00  0.00    +0.000 A 
ATOM      9  N   UNL     1      43.535  75.617  72.363  0.00  0.00    +0.000 N 
ATOM     10  H   UNL     1      44.411  75.796  72.835  0.00  0.00    +0.000 HD
ENDROOT
BRANCH   1  12
ATOM     11  O   UNL     1      43.862  72.518  73.155  0.00  0.00    +0.000 OA
ATOM     12  C   UNL     1      43.054  73.392  73.445  0.00  0.00    +0.000 C 
BRANCH  12  13
ATOM     13  C   UNL     1      42.323  73.402  74.699  0.00  0.00    +0.000 A 
ATOM     14  C   UNL     1      41.612  72.366  75.279  0.00  0.00    +0.000 A 
ATOM     15  C   UNL     1      41.058  72.825  76.504  0.00  0.00    +0.000 A 
ATOM     16  C   UNL     1      40.241  72.242  77.491  0.00  0.00    +0.000 A 
ATOM     17  C   UNL     1      39.876  72.999  78.610  0.00  0.00    +0.000 A 
ATOM     18  C   UNL     1      40.315  74.313  78.754  0.00  0.00    +0.000 A 
ATOM     19  C   UNL     1      41.132  74.910  77.789  0.00  0.00    +0.000 A 
ATOM     20  C   UNL     1      41.483  74.141  76.674  0.00  0.00    +0.000 A 
ATOM     21  N   UNL     1      42.271  74.454  75.592  0.00  0.00    +0.000 N 
ATOM     22  H   UNL     1      42.762  75.331  75.482  0.00  0.00    +0.000 HD
ENDBRANCH  12  13
ENDBRANCH   1  12
BRANCH   5  23
ATOM     23  O   UNL     1      40.480  78.403  68.757  0.00  0.00    +0.000 OA
BRANCH  23  24
ATOM     24  C   UNL     1      40.985  78.739  67.459  0.00  0.00    +0.000 C 
BRANCH  24  25
ATOM     25  C   UNL     1      40.663  77.575  66.508  0.00  0.00    +0.000 C 
BRANCH  25  26
ATOM     26  N   UNL     1      41.795  77.112  65.683  0.00  0.00    +0.000 NA
ATOM     27  C   UNL     1      43.067  77.691  66.161  0.00  0.00    +0.000 C 
ATOM     28  C   UNL     1      44.080  76.684  66.721  0.00  0.00    +0.000 C 
ATOM     29  C   UNL     1      43.393  75.648  67.600  0.00  0.00    +0.000 C 
ATOM     30  C   UNL     1      42.265  74.939  66.849  0.00  0.00    +0.000 C 
ATOM     31  C   UNL     1      41.878  75.654  65.551  0.00  0.00    +0.000 C 
ENDBRANCH  25  26
ENDBRANCH  24  25
ENDBRANCH  23  24
ENDBRANCH   5  23
TORSDOF 6
ENDMDL
MODEL 2
REMARK VINA RESULT:      -5.1      2.636      9.029
REMARK  Name = 
REMARK  6 active torsions:
REMARK  status: ('A' for Active; 'I' for Inactive)
REMARK    1  A    between atoms: C_2  and  C_3
REMARK    2  A    between atoms: C_2  and  C_12
REMARK    3  A    between atoms: C_16  and  O_17
REMARK    4  A    between atoms: O_17  and  C_18
REMARK    5  A    between atoms: C_18  and  C_19
REMARK    6  A    between atoms: C_19  and  N_20
REMARK                            x       y       z     vdW  Elec       q    Type
REMARK                         _______ _______ _______ _____ _____    ______ ____
ROOT
ATOM      1  C   UNL     1      41.966  73.766  72.928  0.00  0.00    +0.000 A 
ATOM      2  C   UNL     1      41.970  72.872  73.987  0.00  0.00    +0.000 A 
ATOM      3  C   UNL     1      40.628  72.659  74.402  0.00  0.00    +0.000 A 
ATOM      4  C   UNL     1      40.020  71.857  75.386  0.00  0.00    +0.000 A 
ATOM      5  C   UNL     1      38.628  71.885  75.549  0.00  0.00    +0.000 A 
ATOM      6  C   UNL     1      37.849  72.708  74.736  0.00  0.00    +0.000 A 
ATOM      7  C   UNL     1      38.431  73.519  73.751  0.00  0.00    +0.000 A 
ATOM      8  C   UNL     1      39.821  73.469  73.608  0.00  0.00    +0.000 A 
ATOM      9  N   UNL     1      40.652  74.151  72.750  0.00  0.00    +0.000 N 
ATOM     10  H   UNL     1      40.340  74.853  72.093  0.00  0.00    +0.000 HD
ENDROOT
BRANCH   1  12
ATOM     11  O   UNL     1      44.185  73.698  72.152  0.00  0.00    +0.000 OA
ATOM     12  C   UNL     1      43.105  74.276  72.187  0.00  0.00    +0.000 C 
BRANCH  12  13
ATOM     13  C   UNL     1      42.861  75.528  71.492  0.00  0.00    +0.000 A 
ATOM     14  C   UNL     1      43.633  76.677  71.512  0.00  0.00    +0.000 A 
ATOM     15  C   UNL     1      43.013  77.653  70.687  0.00  0.00    +0.000 A 
ATOM     16  C   UNL     1      43.314  78.986  70.350  0.00  0.00    +0.000 A 
ATOM     17  C   UNL     1      42.466  79.678  69.477  0.00  0.00    +0.000 A 
ATOM     18  C   UNL     1      41.338  79.059  68.941  0.00  0.00    +0.000 A 
ATOM     19  C   UNL     1      41.023  77.735  69.259  0.00  0.00    +0.000 A 
ATOM     20  C   UNL     1      41.879  77.060  70.138  0.00  0.00    +0.000 A 
ATOM     21  N   UNL     1      41.828  75.770  70.609  0.00  0.00    +0.000 N 
ATOM     22  H   UNL     1      41.137  75.088  70.327  0.00  0.00    +0.000 HD
ENDBRANCH  12  13
ENDBRANCH   1  12
BRANCH   5  23
ATOM     23  O   UNL     1      38.162  71.058  76.536  0.00  0.00    +0.000 OA
BRANCH  23  24
ATOM     24  C   UNL     1      38.257  71.532  77.884  0.00  0.00    +0.000 C 
BRANCH  24  25
ATOM     25  C   UNL     1      37.413  72.812  77.998  0.00  0.00    +0.000 C 
BRANCH  25  26
ATOM     26  N   UNL     1      37.999  73.872  78.840  0.00  0.00    +0.000 NA
ATOM     27  C   UNL     1      39.423  73.595  79.120  0.00  0.00    +0.000 C 
ATOM     28  C   UNL     1      40.418  74.602  78.528  0.00  0.00    +0.000 C 
ATOM     29  C   UNL     1      40.032  74.981  77.105  0.00  0.00    +0.000 C 
ATOM     30  C   UNL     1      38.600  75.515  77.039  0.00  0.00    +0.000 C 
ATOM     31  C   UNL     1      37.803  75.227  78.315  0.00  0.00    +0.000 C 
ENDBRANCH  25  26
ENDBRANCH  24  25
ENDBRANCH  23  24
ENDBRANCH   5  23
TORSDOF 6
ENDMDL
MODEL 3
REMARK VINA RESULT:      -5.1      2.950      9.805
REMARK  Name = 
REMARK  6 active torsions:
REMARK  status: ('A' for Active; 'I' for Inactive)
REMARK    1  A    between atoms: C_2  and  C_3
REMARK    2  A    between atoms: C_2  and  C_12
REMARK    3  A    between atoms: C_16  and  O_17
REMARK    4  A    between atoms: O_17  and  C_18
REMARK    5  A    between atoms: C_18  and  C_19
REMARK    6  A    between atoms: C_19  and  N_20
REMARK                            x       y       z     vdW  Elec       q    Type
REMARK                         _______ _______ _______ _____ _____    ______ ____
ROOT
ATOM      1  C   UNL     1      40.390  74.108  73.288  0.00  0.00    +0.000 A 
ATOM      2  C   UNL     1      39.194  74.349  73.945  0.00  0.00    +0.000 A 
ATOM      3  C   UNL     1      39.434  74.311  75.345  0.00  0.00    +0.000 A 
ATOM      4  C   UNL     1      38.631  74.505  76.484  0.00  0.00    +0.000 A 
ATOM      5  C   UNL     1      39.192  74.384  77.764  0.00  0.00    +0.000 A 
ATOM      6  C   UNL     1      40.543  74.073  77.904  0.00  0.00    +0.000 A 
ATOM      7  C   UNL     1      41.364  73.873  76.784  0.00  0.00    +0.000 A 
ATOM      8  C   UNL     1      40.779  74.002  75.521  0.00  0.00    +0.000 A 
ATOM      9  N   UNL     1      41.327  73.852  74.268  0.00  0.00    +0.000 N 
ATOM     10  H   UNL     1      42.283  73.572  74.094  0.00  0.00    +0.000 HD
ENDROOT
BRANCH   1  12
ATOM     11  O   UNL     1      40.431  73.040  71.192  0.00  0.00    +0.000 OA
ATOM     12  C   UNL     1      40.625  74.051  71.856  0.00  0.00    +0.000 C 
BRANCH  12  13
ATOM     13  C   UNL     1      41.110  75.290  71.275  0.00  0.00    +0.000 A 
ATOM     14  C   UNL     1      42.348  75.886  71.451  0.00  0.00    +0.000 A 
ATOM     15  C   UNL     1      42.385  77.087  70.693  0.00  0.00    +0.000 A 
ATOM     16  C   UNL     1      43.345  78.099  70.507  0.00  0.00    +0.000 A 
ATOM     17  C   UNL     1      43.049  79.173  69.659  0.00  0.00    +0.000 A 
ATOM     18  C   UNL     1      41.822  79.244  69.002  0.00  0.00    +0.000 A 
ATOM     19  C   UNL     1      40.856  78.247  69.170  0.00  0.00    +0.000 A 
ATOM     20  C   UNL     1      41.167  77.183  70.025  0.00  0.00    +0.000 A 
ATOM     21  N   UNL     1      40.431  76.073  70.363  0.00  0.00    +0.000 N 
ATOM     22  H   UNL     1      39.522  75.853  69.976  0.00  0.00    +0.000 HD
ENDBRANCH  12  13
ENDBRANCH   1  12
BRANCH   5  23
ATOM     23  O   UNL     1      38.307  74.598  78.787  0.00  0.00    +0.000 OA
BRANCH  23  24
ATOM     24  C   UNL     1      37.151  73.753  78.840  0.00  0.00    +0.000 C 
BRANCH  24  25
ATOM     25  C   UNL     1      37.344  72.757  79.995  0.00  0.00    +0.000 C 
BRANCH  25  26
ATOM     26  N   UNL     1      37.205  71.336  79.624  0.00  0.00    +0.000 NA
ATOM     27  C   UNL     1      37.476  71.139  78.186  0.00  0.00    +0.000 C 
ATOM     28  C   UNL     1      38.713  70.292  77.859  0.00  0.00    +0.000 C 
ATOM     29  C   UNL     1      39.882  70.660  78.762  0.00  0.00    +0.000 C 
ATOM     30  C   UNL     1      39.506  70.543  80.239  0.00  0.00    +0.000 C 
ATOM     31  C   UNL     1      37.994  70.423  80.456  0.00  0.00    +0.000 C 
ENDBRANCH  25  26
ENDBRANCH  24  25
ENDBRANCH  23  24
ENDBRANCH   5  23
TORSDOF 6
ENDMDL
