MODEL 1
REMARK VINA RESULT:      -5.2      0.000      0.000
REMARK  Name = 
REMARK  5 active torsions:
REMARK  status: ('A' for Active; 'I' for Inactive)
REMARK    1  A    between atoms: C_1  and  C_2
REMARK    2  A    between atoms: C_2  and  N_3
REMARK    3  A    between atoms: N_3  and  C_4
REMARK    4  A    between atoms: C_9  and  N_10
REMARK    5  A    between atoms: C_14  and  C_16
REMARK                            x       y       z     vdW  Elec       q    Type
REMARK                         _______ _______ _______ _____ _____    ______ ____
ROOT
ATOM      1  N   UNL     1      48.717  83.468  65.634  0.00  0.00    +0.000 N 
ATOM      2  C   UNL     1      49.886  84.177  65.071  0.00  0.00    +0.000 C 
ATOM      3  C   UNL     1      49.527  85.378  64.173  0.00  0.00    +0.000 C 
ATOM      4  N   UNL     1      48.529  86.267  64.789  0.00  0.00    +0.000 N 
ATOM      5  C   UNL     1      48.305  87.544  64.268  0.00  0.00    +0.000 C 
ATOM      6  O   UNL     1      47.167  87.984  64.104  0.00  0.00    +0.000 OA
ATOM      7  C   UNL     1      47.345  85.549  65.268  0.00  0.00    +0.000 C 
ATOM      8  C   UNL     1      47.711  84.394  66.215  0.00  0.00    +0.000 C 
ENDROOT
BRANCH   5   9
ATOM      9  C   UNL     1      49.455  88.368  63.957  0.00  0.00    +0.000 A 
ATOM     10  C   UNL     1      50.027  88.754  62.756  0.00  0.00    +0.000 A 
ATOM     11  C   UNL     1      51.173  89.549  63.035  0.00  0.00    +0.000 A 
ATOM     12  C   UNL     1      52.121  90.219  62.238  0.00  0.00    +0.000 A 
ATOM     13  C   UNL     1      53.159  90.925  62.858  0.00  0.00    +0.000 A 
ATOM     14  C   UNL     1      53.263  90.962  64.247  0.00  0.00    +0.000 A 
ATOM     15  C   UNL     1      52.338  90.299  65.058  0.00  0.00    +0.000 A 
ATOM     16  C   UNL     1      51.304  89.602  64.421  0.00  0.00    +0.000 A 
ATOM     17  N   UNL     1      50.276  88.858  64.949  0.00  0.00    +0.000 N 
ATOM     18  H   UNL     1      50.127  88.682  65.934  0.00  0.00    +0.000 HD
ENDBRANCH   5   9
BRANCH   1  24
ATOM     19  C   UNL     1      48.455  81.167  64.858  0.00  0.00    +0.000 A 
ATOM     20  C   UNL     1      47.790  80.264  64.026  0.00  0.00    +0.000 A 
ATOM     21  C   UNL     1      46.897  80.729  63.067  0.00  0.00    +0.000 A 
ATOM     22  C   UNL     1      46.683  82.091  62.979  0.00  0.00    +0.000 A 
ATOM     23  N   UNL     1      47.269  83.001  63.784  0.00  0.00    +0.000 NA
ATOM     24  C   UNL     1      48.114  82.547  64.737  0.00  0.00    +0.000 A 
BRANCH  19  25
ATOM     25  N   UNL     1      49.372  80.756  65.852  0.00  0.00    +0.000 N 
ATOM     26  H   UNL     1      49.547  81.578  66.440  0.00  0.00    +0.000 HD
BRANCH  25  28
ATOM     27  C   UNL     1      51.835  80.807  66.002  0.00  0.00    +0.000 C 
ATOM     28  C   UNL     1      50.609  80.092  65.453  0.00  0.00    +0.000 C 
ENDBRANCH  25  28
ENDBRANCH  19  25
ENDBRANCH   1  24
TORSDOF 4
ENDMDL
MODEL 2
REMARK VINA RESULT:      -5.2      2.239      8.455
REMARK  Name = 
REMARK  5 active torsions:
REMARK  status: ('A' for Active; 'I' for Inactive)
REMARK    1  A    between atoms: C_1  and  C_2
REMARK    2  A    between atoms: C_2  and  N_3
REMARK    3  A    between atoms: N_3  and  C_4
REMARK    4  A    between atoms: C_9  and  N_10
REMARK    5  A    between atoms: C_14  and  C_16
REMARK                            x       y       z     vdW  Elec       q    Type
REMARK                         _______ _______ _______ _____ _____    ______ ____
ROOT
ATOM      1  N   UNL     1      48.483  86.487  65.357  0.00  0.00    +0.000 N 
ATOM      2  C   UNL     1      47.472  85.620  64.712  0.00  0.00    +0.000 C 
ATOM      3  C   UNL     1      48.045  84.327  64.099  0.00  0.00    +0.000 C 
ATOM      4  N   UNL     1      48.943  83.613  65.019  0.00  0.00    +0.000 N 
ATOM      5  C   UNL     1      49.314  82.291  64.758  0.00  0.00    +0.000 C 
ATOM      6  O   UNL     1      50.479  81.913  64.877  0.00  0.00    +0.000 OA
ATOM      7  C   UNL     1      49.984  84.476  65.584  0.00  0.00    +0.000 C 
ATOM      8  C   UNL     1      49.398  85.731  66.251  0.00  0.00    +0.000 C 
ENDROOT
BRANCH   5   9
ATOM      9  C   UNL     1      48.279  81.351  64.380  0.00  0.00    +0.000 A 
ATOM     10  C   UNL     1      48.017  80.679  63.197  0.00  0.00    +0.000 A 
ATOM     11  C   UNL     1      46.843  79.896  63.372  0.00  0.00    +0.000 A 
ATOM     12  C   UNL     1      46.121  79.012  62.547  0.00  0.00    +0.000 A 
ATOM     13  C   UNL     1      44.968  78.397  63.048  0.00  0.00    +0.000 A 
ATOM     14  C   UNL     1      44.531  78.655  64.346  0.00  0.00    +0.000 A 
ATOM     15  C   UNL     1      45.228  79.534  65.180  0.00  0.00    +0.000 A 
ATOM     16  C   UNL     1      46.380  80.138  64.664  0.00  0.00    +0.000 A 
ATOM     17  N   UNL     1      47.245  81.039  65.237  0.00  0.00    +0.000 N 
ATOM     18  H   UNL     1      47.149  81.433  66.163  0.00  0.00    +0.000 HD
ENDBRANCH   5   9
BRANCH   1  24
ATOM     19  C   UNL     1      49.578  88.614  64.869  0.00  0.00    +0.000 A 
ATOM     20  C   UNL     1      50.363  89.373  63.998  0.00  0.00    +0.000 A 
ATOM     21  C   UNL     1      50.683  88.876  62.739  0.00  0.00    +0.000 A 
ATOM     22  C   UNL     1      50.219  87.622  62.393  0.00  0.00    +0.000 A 
ATOM     23  N   UNL     1      49.492  86.834  63.212  0.00  0.00    +0.000 NA
ATOM     24  C   UNL     1      49.207  87.303  64.448  0.00  0.00    +0.000 A 
BRANCH  19  25
ATOM     25  N   UNL     1      49.221  89.064  66.161  0.00  0.00    +0.000 N 
ATOM     26  H   UNL     1      48.382  89.643  66.042  0.00  0.00    +0.000 HD
BRANCH  25  28
ATOM     27  C   UNL     1      51.202  88.712  67.590  0.00  0.00    +0.000 C 
ATOM     28  C   UNL     1      50.225  89.715  66.995  0.00  0.00    +0.000 C 
ENDBRANCH  25  28
ENDBRANCH  19  25
ENDBRANCH   1  24
TORSDOF 4
ENDMDL
MODEL 3
REMARK VINA RESULT:      -5.2      2.180      3.355
REMARK  Name = 
REMARK  5 active torsions:
REMARK  status: ('A' for Active; 'I' for Inactive)
REMARK    1  A    between atoms: C_1  and  C_2
REMARK    2  A    between atoms: C_2  and  N_3
REMARK    3  A    between atoms: N_3  and  C_4
REMARK    4  A    between atoms: C_9  and  N_10
REMARK    5  A    between atoms: C_14  and  C_16
REMARK                            x       y       z     vdW  Elec       q    Type
REMARK                         _______ _______ _______ _____ _____    ______ ____
ROOT
ATOM      1  N   UNL     1      47.590  83.390  65.095  0.00  0.00    +0.000 N 
ATOM      2  C   UNL     1      48.153  84.233  66.173  0.00  0.00    +0.000 C 
ATOM      3  C   UNL     1      49.462  84.955  65.794  0.00  0.00    +0.000 C 
ATOM      4  N   UNL     1      49.381  85.629  64.490  0.00  0.00    +0.000 N 
ATOM      5  C   UNL     1      50.346  86.569  64.120  0.00  0.00    +0.000 C 
ATOM      6  O   UNL     1      50.849  86.571  62.997  0.00  0.00    +0.000 OA
ATOM      7  C   UNL     1      48.895  84.750  63.423  0.00  0.00    +0.000 C 
ATOM      8  C   UNL     1      47.556  84.087  63.783  0.00  0.00    +0.000 C 
ENDROOT
BRANCH   5   9
ATOM      9  C   UNL     1      50.720  87.583  65.086  0.00  0.00    +0.000 A 
ATOM     10  C   UNL     1      49.982  88.535  65.770  0.00  0.00    +0.000 A 
ATOM     11  C   UNL     1      50.869  89.299  66.579  0.00  0.00    +0.000 A 
ATOM     12  C   UNL     1      50.699  90.365  67.483  0.00  0.00    +0.000 A 
ATOM     13  C   UNL     1      51.822  90.904  68.123  0.00  0.00    +0.000 A 
ATOM     14  C   UNL     1      53.096  90.399  67.868  0.00  0.00    +0.000 A 
ATOM     15  C   UNL     1      53.289  89.346  66.969  0.00  0.00    +0.000 A 
ATOM     16  C   UNL     1      52.154  88.817  66.342  0.00  0.00    +0.000 A 
ATOM     17  N   UNL     1      52.039  87.807  65.417  0.00  0.00    +0.000 N 
ATOM     18  H   UNL     1      52.810  87.286  65.021  0.00  0.00    +0.000 HD
ENDBRANCH   5   9
BRANCH   1  24
ATOM     19  C   UNL     1      47.352  80.971  64.858  0.00  0.00    +0.000 A 
ATOM     20  C   UNL     1      47.965  79.732  64.666  0.00  0.00    +0.000 A 
ATOM     21  C   UNL     1      49.352  79.631  64.687  0.00  0.00    +0.000 A 
ATOM     22  C   UNL     1      50.089  80.783  64.885  0.00  0.00    +0.000 A 
ATOM     23  N   UNL     1      49.546  82.009  65.037  0.00  0.00    +0.000 NA
ATOM     24  C   UNL     1      48.199  82.112  64.985  0.00  0.00    +0.000 A 
BRANCH  19  25
ATOM     25  N   UNL     1      45.949  81.138  64.846  0.00  0.00    +0.000 N 
ATOM     26  H   UNL     1      45.609  80.776  65.745  0.00  0.00    +0.000 HD
BRANCH  25  28
ATOM     27  C   UNL     1      45.492  81.372  62.433  0.00  0.00    +0.000 C 
ATOM     28  C   UNL     1      45.177  80.625  63.720  0.00  0.00    +0.000 C 
ENDBRANCH  25  28
ENDBRANCH  19  25
ENDBRANCH   1  24
TORSDOF 4
ENDMDL
