MODEL 1
REMARK VINA RESULT:      -7.0      0.000      0.000
REMARK  Name = 
REMARK  2 active torsions:
REMARK  status: ('A' for Active; 'I' for Inactive)
REMARK    1  A    between atoms: N_5  and  C_6
REMARK    2  A    between atoms: N_15  and  C_16
REMARK                            x       y       z     vdW  Elec       q    Type
REMARK                         _______ _______ _______ _____ _____    ______ ____
ROOT
ATOM      1  O   UNL     1      25.437  31.138  51.265  0.00  0.00    +0.000 OA
ATOM      2  C   UNL     1      26.452  31.716  50.908  0.00  0.00    +0.000 C 
ATOM      3  N   UNL     1      27.711  31.203  51.066  0.00  0.00    +0.000 N 
ATOM      4  C   UNL     1      28.742  32.041  50.573  0.00  0.00    +0.000 C 
ATOM      5  N   UNL     1      28.057  33.210  50.049  0.00  0.00    +0.000 N 
ATOM      6  C   UNL     1      26.576  33.093  50.225  0.00  0.00    +0.000 C 
ATOM      7  C   UNL     1      25.839  33.008  48.885  0.00  0.00    +0.000 C 
ATOM      8  C   UNL     1      24.324  33.138  49.045  0.00  0.00    +0.000 C 
ATOM      9  N   UNL     1      23.979  34.327  49.839  0.00  0.00    +0.000 NA
ATOM     10  C   UNL     1      24.498  34.188  51.206  0.00  0.00    +0.000 C 
ATOM     11  C   UNL     1      26.027  34.140  51.203  0.00  0.00    +0.000 C 
ATOM     12  H   UNL     1      27.857  30.301  51.494  0.00  0.00    +0.000 HD
ENDROOT
BRANCH   9  13
ATOM     13  C   UNL     1      22.528  34.626  49.760  0.00  0.00    +0.000 C 
ATOM     14  C   UNL     1      22.100  34.917  48.314  0.00  0.00    +0.000 C 
ATOM     15  C   UNL     1      20.574  34.921  48.198  0.00  0.00    +0.000 C 
ATOM     16  C   UNL     1      19.871  35.718  49.275  0.00  0.00    +0.000 A 
ATOM     17  C   UNL     1      18.509  36.054  49.151  0.00  0.00    +0.000 A 
ATOM     18 CL   UNL     1      17.578  35.589  47.770  0.00  0.00    +0.000 Cl
ATOM     19  C   UNL     1      17.852  36.772  50.154  0.00  0.00    +0.000 A 
ATOM     20  C   UNL     1      18.540  37.160  51.300  0.00  0.00    +0.000 A 
ATOM     21  C   UNL     1      19.883  36.822  51.447  0.00  0.00    +0.000 A 
ATOM     22  C   UNL     1      20.553  36.089  50.454  0.00  0.00    +0.000 A 
ATOM     23  C   UNL     1      22.019  35.770  50.664  0.00  0.00    +0.000 C 
ENDBRANCH   9  13
BRANCH   5  24
ATOM     24  C   UNL     1      28.772  34.250  49.483  0.00  0.00    +0.000 A 
ATOM     25  C   UNL     1      28.414  34.860  48.270  0.00  0.00    +0.000 A 
ATOM     26  C   UNL     1      29.145  35.915  47.705  0.00  0.00    +0.000 A 
ATOM     27  C   UNL     1      30.275  36.402  48.344  0.00  0.00    +0.000 A 
ATOM     28  C   UNL     1      30.667  35.832  49.545  0.00  0.00    +0.000 A 
ATOM     29  C   UNL     1      29.926  34.777  50.099  0.00  0.00    +0.000 A 
ENDBRANCH   5  24
TORSDOF 2
ENDMDL
MODEL 2
REMARK VINA RESULT:      -6.4      1.936      2.576
REMARK  Name = 
REMARK  2 active torsions:
REMARK  status: ('A' for Active; 'I' for Inactive)
REMARK    1  A    between atoms: N_5  and  C_6
REMARK    2  A    between atoms: N_15  and  C_16
REMARK                            x       y       z     vdW  Elec       q    Type
REMARK                         _______ _______ _______ _____ _____    ______ ____
ROOT
ATOM      1  O   UNL     1      26.319  32.365  45.759  0.00  0.00    +0.000 OA
ATOM      2  C   UNL     1      27.337  32.758  46.306  0.00  0.00    +0.000 C 
ATOM      3  N   UNL     1      28.598  32.481  45.850  0.00  0.00    +0.000 N 
ATOM      4  C   UNL     1      29.633  33.044  46.637  0.00  0.00    +0.000 C 
ATOM      5  N   UNL     1      28.950  33.751  47.707  0.00  0.00    +0.000 N 
ATOM      6  C   UNL     1      27.465  33.619  47.580  0.00  0.00    +0.000 C 
ATOM      7  C   UNL     1      26.787  34.963  47.294  0.00  0.00    +0.000 C 
ATOM      8  C   UNL     1      25.264  34.882  47.410  0.00  0.00    +0.000 C 
ATOM      9  N   UNL     1      24.865  34.273  48.688  0.00  0.00    +0.000 NA
ATOM     10  C   UNL     1      25.328  32.880  48.750  0.00  0.00    +0.000 C 
ATOM     11  C   UNL     1      26.857  32.817  48.738  0.00  0.00    +0.000 C 
ATOM     12  H   UNL     1      28.742  31.929  45.018  0.00  0.00    +0.000 HD
ENDROOT
BRANCH   9  13
ATOM     13  C   UNL     1      23.413  34.449  48.939  0.00  0.00    +0.000 C 
ATOM     14  C   UNL     1      22.669  34.821  47.648  0.00  0.00    +0.000 C 
ATOM     15  C   UNL     1      21.156  34.701  47.849  0.00  0.00    +0.000 C 
ATOM     16  C   UNL     1      20.646  35.340  49.122  0.00  0.00    +0.000 A 
ATOM     17  C   UNL     1      19.269  35.564  49.315  0.00  0.00    +0.000 A 
ATOM     18 CL   UNL     1      18.099  35.136  48.115  0.00  0.00    +0.000 Cl
ATOM     19  C   UNL     1      18.793  36.135  50.498  0.00  0.00    +0.000 A 
ATOM     20  C   UNL     1      19.681  36.484  51.511  0.00  0.00    +0.000 A 
ATOM     21  C   UNL     1      21.043  36.254  51.345  0.00  0.00    +0.000 A 
ATOM     22  C   UNL     1      21.536  35.669  50.167  0.00  0.00    +0.000 A 
ATOM     23  C   UNL     1      23.031  35.463  50.039  0.00  0.00    +0.000 C 
ENDBRANCH   9  13
BRANCH   5  24
ATOM     24  C   UNL     1      29.669  34.426  48.676  0.00  0.00    +0.000 A 
ATOM     25  C   UNL     1      30.143  35.738  48.510  0.00  0.00    +0.000 A 
ATOM     26  C   UNL     1      30.871  36.414  49.500  0.00  0.00    +0.000 A 
ATOM     27  C   UNL     1      31.152  35.791  50.707  0.00  0.00    +0.000 A 
ATOM     28  C   UNL     1      30.704  34.496  50.917  0.00  0.00    +0.000 A 
ATOM     29  C   UNL     1      29.977  33.833  49.918  0.00  0.00    +0.000 A 
ENDBRANCH   5  24
TORSDOF 2
ENDMDL
MODEL 3
REMARK VINA RESULT:      -6.4      2.175      2.937
REMARK  Name = 
REMARK  2 active torsions:
REMARK  status: ('A' for Active; 'I' for Inactive)
REMARK    1  A    between atoms: N_5  and  C_6
REMARK    2  A    between atoms: N_15  and  C_16
REMARK                            x       y       z     vdW  Elec       q    Type
REMARK                         _______ _______ _______ _____ _____    ______ ____
ROOT
ATOM      1  O   UNL     1      26.248  33.414  45.227  0.00  0.00    +0.000 OA
ATOM      2  C   UNL     1      27.268  33.700  45.834  0.00  0.00    +0.000 C 
ATOM      3  N   UNL     1      28.524  33.580  45.302  0.00  0.00    +0.000 N 
ATOM      4  C   UNL     1      29.563  33.975  46.181  0.00  0.00    +0.000 C 
ATOM      5  N   UNL     1      28.889  34.386  47.400  0.00  0.00    +0.000 N 
ATOM      6  C   UNL     1      27.405  34.239  47.272  0.00  0.00    +0.000 C 
ATOM      7  C   UNL     1      26.683  35.589  47.326  0.00  0.00    +0.000 C 
ATOM      8  C   UNL     1      25.167  35.434  47.446  0.00  0.00    +0.000 C 
ATOM      9  N   UNL     1      24.817  34.528  48.551  0.00  0.00    +0.000 NA
ATOM     10  C   UNL     1      25.320  33.176  48.272  0.00  0.00    +0.000 C 
ATOM     11  C   UNL     1      26.848  33.167  48.218  0.00  0.00    +0.000 C 
ATOM     12  H   UNL     1      28.662  33.244  44.361  0.00  0.00    +0.000 HD
ENDROOT
BRANCH   9  13
ATOM     13  C   UNL     1      23.368  34.592  48.863  0.00  0.00    +0.000 C 
ATOM     14  C   UNL     1      22.549  34.968  47.619  0.00  0.00    +0.000 C 
ATOM     15  C   UNL     1      21.058  34.734  47.870  0.00  0.00    +0.000 C 
ATOM     16  C   UNL     1      20.556  35.281  49.188  0.00  0.00    +0.000 A 
ATOM     17  C   UNL     1      19.176  35.400  49.442  0.00  0.00    +0.000 A 
ATOM     18 CL   UNL     1      17.991  34.946  48.267  0.00  0.00    +0.000 Cl
ATOM     19  C   UNL     1      18.710  35.885  50.667  0.00  0.00    +0.000 A 
ATOM     20  C   UNL     1      19.612  36.250  51.662  0.00  0.00    +0.000 A 
ATOM     21  C   UNL     1      20.979  36.121  51.436  0.00  0.00    +0.000 A 
ATOM     22  C   UNL     1      21.463  35.625  50.214  0.00  0.00    +0.000 A 
ATOM     23  C   UNL     1      22.962  35.528  50.022  0.00  0.00    +0.000 C 
ENDBRANCH   9  13
BRANCH   5  24
ATOM     24  C   UNL     1      29.613  34.836  48.488  0.00  0.00    +0.000 A 
ATOM     25  C   UNL     1      29.721  34.120  49.691  0.00  0.00    +0.000 A 
ATOM     26  C   UNL     1      30.458  34.585  50.790  0.00  0.00    +0.000 A 
ATOM     27  C   UNL     1      31.123  35.800  50.720  0.00  0.00    +0.000 A 
ATOM     28  C   UNL     1      31.045  36.544  49.552  0.00  0.00    +0.000 A 
ATOM     29  C   UNL     1      30.304  36.065  48.461  0.00  0.00    +0.000 A 
ENDBRANCH   5  24
TORSDOF 2
ENDMDL
