MODEL 1
REMARK VINA RESULT:      -6.6      0.000      0.000
REMARK  Name = 
REMARK  7 active torsions:
REMARK  status: ('A' for Active; 'I' for Inactive)
REMARK    1  A    between atoms: C_1  and  C_2
REMARK    2  A    between atoms: C_2  and  C_3
REMARK    3  A    between atoms: C_2  and  C_4
REMARK    4  A    between atoms: C_2  and  C_5
REMARK    5  A    between atoms: C_8  and  C_9
REMARK    6  A    between atoms: N_14  and  C_15
REMARK    7  A    between atoms: C_19  and  C_20
REMARK                            x       y       z     vdW  Elec       q    Type
REMARK                         _______ _______ _______ _____ _____    ______ ____
ROOT
ATOM      1  C   UNL     1      43.016  78.670  69.437  0.00  0.00    +0.000 C 
ATOM      2  O   UNL     1      42.607  79.785  69.740  0.00  0.00    +0.000 OA
ATOM      3  N   UNL     1      44.005  78.429  68.506  0.00  0.00    +0.000 N 
ATOM      4  C   UNL     1      43.935  78.964  67.233  0.00  0.00    +0.000 C 
ATOM      5  O   UNL     1      42.939  79.508  66.775  0.00  0.00    +0.000 OA
ATOM      6  N   UNL     1      45.120  78.730  66.552  0.00  0.00    +0.000 N 
ATOM      7  H   UNL     1      44.436  77.520  68.520  0.00  0.00    +0.000 HD
ATOM      8  H   UNL     1      45.924  78.546  67.136  0.00  0.00    +0.000 HD
ENDROOT
BRANCH   1  12
ATOM      9  C   UNL     1      41.731  75.248  71.744  0.00  0.00    +0.000 A 
ATOM     10  C   UNL     1      40.892  75.860  70.796  0.00  0.00    +0.000 A 
ATOM     11  C   UNL     1      41.320  76.963  70.049  0.00  0.00    +0.000 A 
ATOM     12  C   UNL     1      42.599  77.490  70.240  0.00  0.00    +0.000 A 
ATOM     13  C   UNL     1      43.461  76.885  71.157  0.00  0.00    +0.000 A 
ATOM     14  C   UNL     1      43.027  75.781  71.899  0.00  0.00    +0.000 A 
BRANCH   9  16
ATOM     15  C   UNL     1      41.455  72.679  71.846  0.00  0.00    +0.000 C 
ATOM     16  C   UNL     1      41.291  74.031  72.578  0.00  0.00    +0.000 C 
ATOM     17  C   UNL     1      39.799  74.163  72.955  0.00  0.00    +0.000 C 
ATOM     18  C   UNL     1      42.137  73.960  73.868  0.00  0.00    +0.000 C 
ENDBRANCH   9  16
ENDBRANCH   1  12
BRANCH   6  19
ATOM     19  C   UNL     1      45.390  78.988  65.193  0.00  0.00    +0.000 A 
ATOM     20  C   UNL     1      44.743  78.190  64.245  0.00  0.00    +0.000 A 
ATOM     21  C   UNL     1      44.958  78.395  62.881  0.00  0.00    +0.000 A 
ATOM     22  C   UNL     1      45.823  79.400  62.451  0.00  0.00    +0.000 A 
ATOM     23  C   UNL     1      46.477  80.218  63.380  0.00  0.00    +0.000 A 
ATOM     24  C   UNL     1      46.244  80.003  64.753  0.00  0.00    +0.000 A 
BRANCH  23  25
ATOM     25  C   UNL     1      47.445  81.311  62.963  0.00  0.00    +0.000 C 
ATOM     26  C   UNL     1      46.803  82.736  63.029  0.00  0.00    +0.000 C 
ATOM     27  N   UNL     1      47.441  83.266  64.213  0.00  0.00    +0.000 N 
ATOM     28  C   UNL     1      47.664  84.680  64.427  0.00  0.00    +0.000 C 
ATOM     29  C   UNL     1      48.636  84.757  65.616  0.00  0.00    +0.000 C 
ATOM     30  S   UNL     1      49.705  83.272  65.462  0.00  0.00    +0.000 S 
ATOM     31  C   UNL     1      48.551  82.505  64.425  0.00  0.00    +0.000 C 
ATOM     32  N   UNL     1      48.695  81.374  63.809  0.00  0.00    +0.000 NA
ENDBRANCH  23  25
ENDBRANCH   6  19
TORSDOF 4
ENDMDL
MODEL 2
REMARK VINA RESULT:      -6.5      6.533      7.752
REMARK  Name = 
REMARK  7 active torsions:
REMARK  status: ('A' for Active; 'I' for Inactive)
REMARK    1  A    between atoms: C_1  and  C_2
REMARK    2  A    between atoms: C_2  and  C_3
REMARK    3  A    between atoms: C_2  and  C_4
REMARK    4  A    between atoms: C_2  and  C_5
REMARK    5  A    between atoms: C_8  and  C_9
REMARK    6  A    between atoms: N_14  and  C_15
REMARK    7  A    between atoms: C_19  and  C_20
REMARK                            x       y       z     vdW  Elec       q    Type
REMARK                         _______ _______ _______ _____ _____    ______ ____
ROOT
ATOM      1  C   UNL     1      49.895  77.861  67.176  0.00  0.00    +0.000 C 
ATOM      2  O   UNL     1      49.578  76.852  66.555  0.00  0.00    +0.000 OA
ATOM      3  N   UNL     1      49.270  79.083  67.047  0.00  0.00    +0.000 N 
ATOM      4  C   UNL     1      49.089  79.667  65.806  0.00  0.00    +0.000 C 
ATOM      5  O   UNL     1      49.619  79.265  64.779  0.00  0.00    +0.000 OA
ATOM      6  N   UNL     1      48.287  80.792  65.922  0.00  0.00    +0.000 N 
ATOM      7  H   UNL     1      49.435  79.761  67.772  0.00  0.00    +0.000 HD
ATOM      8  H   UNL     1      47.702  80.822  66.745  0.00  0.00    +0.000 HD
ENDROOT
BRANCH   1  12
ATOM      9  C   UNL     1      52.692  77.498  70.451  0.00  0.00    +0.000 A 
ATOM     10  C   UNL     1      51.838  76.443  70.086  0.00  0.00    +0.000 A 
ATOM     11  C   UNL     1      50.940  76.568  69.020  0.00  0.00    +0.000 A 
ATOM     12  C   UNL     1      50.868  77.759  68.295  0.00  0.00    +0.000 A 
ATOM     13  C   UNL     1      51.723  78.815  68.621  0.00  0.00    +0.000 A 
ATOM     14  C   UNL     1      52.620  78.681  69.688  0.00  0.00    +0.000 A 
BRANCH   9  16
ATOM     15  C   UNL     1      55.042  78.095  71.348  0.00  0.00    +0.000 C 
ATOM     16  C   UNL     1      53.693  77.390  71.616  0.00  0.00    +0.000 C 
ATOM     17  C   UNL     1      54.007  75.906  71.904  0.00  0.00    +0.000 C 
ATOM     18  C   UNL     1      53.081  78.035  72.879  0.00  0.00    +0.000 C 
ENDBRANCH   9  16
ENDBRANCH   1  12
BRANCH   6  19
ATOM     19  C   UNL     1      47.989  81.736  64.919  0.00  0.00    +0.000 A 
ATOM     20  C   UNL     1      46.812  81.551  64.188  0.00  0.00    +0.000 A 
ATOM     21  C   UNL     1      46.451  82.452  63.184  0.00  0.00    +0.000 A 
ATOM     22  C   UNL     1      47.266  83.548  62.901  0.00  0.00    +0.000 A 
ATOM     23  C   UNL     1      48.446  83.760  63.623  0.00  0.00    +0.000 A 
ATOM     24  C   UNL     1      48.792  82.846  64.638  0.00  0.00    +0.000 A 
BRANCH  23  25
ATOM     25  C   UNL     1      49.376  84.926  63.338  0.00  0.00    +0.000 C 
ATOM     26  C   UNL     1      48.621  86.164  62.751  0.00  0.00    +0.000 C 
ATOM     27  N   UNL     1      48.620  87.048  63.896  0.00  0.00    +0.000 N 
ATOM     28  C   UNL     1      48.575  88.490  63.783  0.00  0.00    +0.000 C 
ATOM     29  C   UNL     1      48.919  89.013  65.187  0.00  0.00    +0.000 C 
ATOM     30  S   UNL     1      50.100  87.791  65.882  0.00  0.00    +0.000 S 
ATOM     31  C   UNL     1      49.601  86.601  64.728  0.00  0.00    +0.000 C 
ATOM     32  N   UNL     1      50.119  85.425  64.556  0.00  0.00    +0.000 NA
ENDBRANCH  23  25
ENDBRANCH   6  19
TORSDOF 4
ENDMDL
MODEL 3
REMARK VINA RESULT:      -6.3      0.516      1.322
REMARK  Name = 
REMARK  7 active torsions:
REMARK  status: ('A' for Active; 'I' for Inactive)
REMARK    1  A    between atoms: C_1  and  C_2
REMARK    2  A    between atoms: C_2  and  C_3
REMARK    3  A    between atoms: C_2  and  C_4
REMARK    4  A    between atoms: C_2  and  C_5
REMARK    5  A    between atoms: C_8  and  C_9
REMARK    6  A    between atoms: N_14  and  C_15
REMARK    7  A    between atoms: C_19  and  C_20
REMARK                            x       y       z     vdW  Elec       q    Type
REMARK                         _______ _______ _______ _____ _____    ______ ____
ROOT
ATOM      1  C   UNL     1      42.773  78.427  69.461  0.00  0.00    +0.000 C 
ATOM      2  O   UNL     1      42.209  79.494  69.675  0.00  0.00    +0.000 OA
ATOM      3  N   UNL     1      43.817  78.262  68.575  0.00  0.00    +0.000 N 
ATOM      4  C   UNL     1      43.721  78.698  67.266  0.00  0.00    +0.000 C 
ATOM      5  O   UNL     1      42.678  79.071  66.746  0.00  0.00    +0.000 OA
ATOM      6  N   UNL     1      44.949  78.581  66.634  0.00  0.00    +0.000 N 
ATOM      7  H   UNL     1      44.364  77.422  68.663  0.00  0.00    +0.000 HD
ATOM      8  H   UNL     1      45.750  78.547  67.249  0.00  0.00    +0.000 HD
ENDROOT
BRANCH   1  12
ATOM      9  C   UNL     1      42.021  75.023  72.017  0.00  0.00    +0.000 A 
ATOM     10  C   UNL     1      43.258  75.691  72.017  0.00  0.00    +0.000 A 
ATOM     11  C   UNL     1      43.490  76.796  71.190  0.00  0.00    +0.000 A 
ATOM     12  C   UNL     1      42.489  77.257  70.333  0.00  0.00    +0.000 A 
ATOM     13  C   UNL     1      41.242  76.627  70.331  0.00  0.00    +0.000 A 
ATOM     14  C   UNL     1      41.018  75.523  71.162  0.00  0.00    +0.000 A 
BRANCH   9  16
ATOM     15  C   UNL     1      42.066  74.042  74.408  0.00  0.00    +0.000 C 
ATOM     16  C   UNL     1      41.735  73.808  72.917  0.00  0.00    +0.000 C 
ATOM     17  C   UNL     1      42.576  72.599  72.452  0.00  0.00    +0.000 C 
ATOM     18  C   UNL     1      40.236  73.448  72.831  0.00  0.00    +0.000 C 
ENDBRANCH   9  16
ENDBRANCH   1  12
BRANCH   6  19
ATOM     19  C   UNL     1      45.230  78.784  65.267  0.00  0.00    +0.000 A 
ATOM     20  C   UNL     1      44.578  77.958  64.347  0.00  0.00    +0.000 A 
ATOM     21  C   UNL     1      44.803  78.108  62.977  0.00  0.00    +0.000 A 
ATOM     22  C   UNL     1      45.683  79.086  62.515  0.00  0.00    +0.000 A 
ATOM     23  C   UNL     1      46.343  79.930  63.415  0.00  0.00    +0.000 A 
ATOM     24  C   UNL     1      46.099  79.771  64.794  0.00  0.00    +0.000 A 
BRANCH  23  25
ATOM     25  C   UNL     1      47.326  80.994  62.962  0.00  0.00    +0.000 C 
ATOM     26  C   UNL     1      46.804  82.444  63.230  0.00  0.00    +0.000 C 
ATOM     27  N   UNL     1      47.628  82.824  64.357  0.00  0.00    +0.000 N 
ATOM     28  C   UNL     1      47.980  84.196  64.654  0.00  0.00    +0.000 C 
ATOM     29  C   UNL     1      49.100  84.104  65.703  0.00  0.00    +0.000 C 
ATOM     30  S   UNL     1      50.028  82.576  65.286  0.00  0.00    +0.000 S 
ATOM     31  C   UNL     1      48.696  81.980  64.355  0.00  0.00    +0.000 C 
ATOM     32  N   UNL     1      48.676  80.902  63.635  0.00  0.00    +0.000 NA
ENDBRANCH  23  25
ENDBRANCH   6  19
TORSDOF 4
ENDMDL
