MODEL 1
REMARK VINA RESULT:      -6.5      0.000      0.000
REMARK  Name = 
REMARK  3 active torsions:
REMARK  status: ('A' for Active; 'I' for Inactive)
REMARK    1  A    between atoms: C_2  and  C_3
REMARK    2  A    between atoms: C_2  and  C_13
REMARK    3  A    between atoms: C_15  and  O_16
REMARK                            x       y       z     vdW  Elec       q    Type
REMARK                         _______ _______ _______ _____ _____    ______ ____
ROOT
ATOM      1  O   UNL     1      25.414  32.157  52.341  0.00  0.00    +0.000 OA
ATOM      2  C   UNL     1      24.510  32.988  52.254  0.00  0.00    +0.000 C 
ENDROOT
BRANCH   2   3
ATOM      3  C   UNL     1      24.197  33.531  50.913  0.00  0.00    +0.000 A 
ATOM      4  C   UNL     1      23.013  33.145  50.304  0.00  0.00    +0.000 A 
ATOM      5  N   UNL     1      22.615  33.565  49.078  0.00  0.00    +0.000 NA
ATOM      6  C   UNL     1      23.431  34.393  48.400  0.00  0.00    +0.000 A 
ATOM      7  C   UNL     1      23.057  34.841  47.141  0.00  0.00    +0.000 A 
ATOM      8  C   UNL     1      23.871  35.696  46.394  0.00  0.00    +0.000 A 
ATOM      9  C   UNL     1      25.091  36.118  46.911  0.00  0.00    +0.000 A 
ATOM     10  C   UNL     1      25.492  35.683  48.172  0.00  0.00    +0.000 A 
ATOM     11  C   UNL     1      24.670  34.825  48.923  0.00  0.00    +0.000 A 
ATOM     12  C   UNL     1      25.047  34.372  50.197  0.00  0.00    +0.000 A 
ENDBRANCH   2   3
BRANCH   2  13
ATOM     13  C   UNL     1      23.743  33.417  53.462  0.00  0.00    +0.000 A 
ATOM     14  N   UNL     1      24.416  33.432  54.624  0.00  0.00    +0.000 NA
ATOM     15  C   UNL     1      23.687  33.784  55.684  0.00  0.00    +0.000 A 
ATOM     16  C   UNL     1      22.341  34.119  55.667  0.00  0.00    +0.000 A 
ATOM     17  C   UNL     1      21.585  34.491  56.802  0.00  0.00    +0.000 A 
ATOM     18  C   UNL     1      20.236  34.806  56.669  0.00  0.00    +0.000 A 
ATOM     19  C   UNL     1      19.643  34.750  55.413  0.00  0.00    +0.000 A 
ATOM     20  C   UNL     1      20.402  34.381  54.297  0.00  0.00    +0.000 A 
ATOM     21  C   UNL     1      21.750  34.063  54.401  0.00  0.00    +0.000 A 
ATOM     22  N   UNL     1      22.437  33.716  53.304  0.00  0.00    +0.000 NA
BRANCH  15  23
ATOM     23  O   UNL     1      24.402  33.789  56.842  0.00  0.00    +0.000 OA
ATOM     24  H   UNL     1      24.672  34.725  56.885  0.00  0.00    +0.000 HD
ENDBRANCH  15  23
ENDBRANCH   2  13
TORSDOF 3
ENDMDL
MODEL 2
REMARK VINA RESULT:      -6.2      3.673      5.267
REMARK  Name = 
REMARK  3 active torsions:
REMARK  status: ('A' for Active; 'I' for Inactive)
REMARK    1  A    between atoms: C_2  and  C_3
REMARK    2  A    between atoms: C_2  and  C_13
REMARK    3  A    between atoms: C_15  and  O_16
REMARK                            x       y       z     vdW  Elec       q    Type
REMARK                         _______ _______ _______ _____ _____    ______ ____
ROOT
ATOM      1  O   UNL     1      27.658  31.608  49.926  0.00  0.00    +0.000 OA
ATOM      2  C   UNL     1      27.355  32.788  50.105  0.00  0.00    +0.000 C 
ENDROOT
BRANCH   2   3
ATOM      3  C   UNL     1      28.356  33.820  49.755  0.00  0.00    +0.000 A 
ATOM      4  C   UNL     1      29.422  34.025  50.618  0.00  0.00    +0.000 A 
ATOM      5  N   UNL     1      30.399  34.942  50.415  0.00  0.00    +0.000 NA
ATOM      6  C   UNL     1      30.319  35.717  49.318  0.00  0.00    +0.000 A 
ATOM      7  C   UNL     1      31.301  36.668  49.080  0.00  0.00    +0.000 A 
ATOM      8  C   UNL     1      31.261  37.501  47.958  0.00  0.00    +0.000 A 
ATOM      9  C   UNL     1      30.216  37.386  47.049  0.00  0.00    +0.000 A 
ATOM     10  C   UNL     1      29.216  36.440  47.263  0.00  0.00    +0.000 A 
ATOM     11  C   UNL     1      29.261  35.602  48.391  0.00  0.00    +0.000 A 
ATOM     12  C   UNL     1      28.268  34.639  48.631  0.00  0.00    +0.000 A 
ENDBRANCH   2   3
BRANCH   2  13
ATOM     13  C   UNL     1      26.010  33.160  50.640  0.00  0.00    +0.000 A 
ATOM     14  N   UNL     1      25.718  32.731  51.879  0.00  0.00    +0.000 NA
ATOM     15  C   UNL     1      24.496  33.052  52.304  0.00  0.00    +0.000 A 
ATOM     16  C   UNL     1      23.549  33.767  51.586  0.00  0.00    +0.000 A 
ATOM     17  C   UNL     1      22.258  34.099  52.055  0.00  0.00    +0.000 A 
ATOM     18  C   UNL     1      21.385  34.820  51.247  0.00  0.00    +0.000 A 
ATOM     19  C   UNL     1      21.796  35.208  49.976  0.00  0.00    +0.000 A 
ATOM     20  C   UNL     1      23.077  34.874  49.523  0.00  0.00    +0.000 A 
ATOM     21  C   UNL     1      23.968  34.155  50.311  0.00  0.00    +0.000 A 
ATOM     22  N   UNL     1      25.185  33.860  49.834  0.00  0.00    +0.000 NA
BRANCH  15  23
ATOM     23  O   UNL     1      24.236  32.601  53.562  0.00  0.00    +0.000 OA
ATOM     24  H   UNL     1      24.330  31.639  53.433  0.00  0.00    +0.000 HD
ENDBRANCH  15  23
ENDBRANCH   2  13
TORSDOF 3
ENDMDL
MODEL 3
REMARK VINA RESULT:      -6.1      1.752      2.366
REMARK  Name = 
REMARK  3 active torsions:
REMARK  status: ('A' for Active; 'I' for Inactive)
REMARK    1  A    between atoms: C_2  and  C_3
REMARK    2  A    between atoms: C_2  and  C_13
REMARK    3  A    between atoms: C_15  and  O_16
REMARK                            x       y       z     vdW  Elec       q    Type
REMARK                         _______ _______ _______ _____ _____    ______ ____
ROOT
ATOM      1  O   UNL     1      26.184  32.155  51.576  0.00  0.00    +0.000 OA
ATOM      2  C   UNL     1      25.185  32.823  51.309  0.00  0.00    +0.000 C 
ENDROOT
BRANCH   2   3
ATOM      3  C   UNL     1      24.987  33.240  49.903  0.00  0.00    +0.000 A 
ATOM      4  C   UNL     1      24.537  32.297  48.992  0.00  0.00    +0.000 A 
ATOM      5  N   UNL     1      24.323  32.551  47.677  0.00  0.00    +0.000 NA
ATOM      6  C   UNL     1      24.583  33.791  47.224  0.00  0.00    +0.000 A 
ATOM      7  C   UNL     1      24.378  34.085  45.884  0.00  0.00    +0.000 A 
ATOM      8  C   UNL     1      24.639  35.356  45.362  0.00  0.00    +0.000 A 
ATOM      9  C   UNL     1      25.117  36.361  46.195  0.00  0.00    +0.000 A 
ATOM     10  C   UNL     1      25.333  36.093  47.545  0.00  0.00    +0.000 A 
ATOM     11  C   UNL     1      25.068  34.815  48.067  0.00  0.00    +0.000 A 
ATOM     12  C   UNL     1      25.274  34.517  49.424  0.00  0.00    +0.000 A 
ENDBRANCH   2   3
BRANCH   2  13
ATOM     13  C   UNL     1      24.197  33.182  52.371  0.00  0.00    +0.000 A 
ATOM     14  N   UNL     1      22.955  33.485  51.956  0.00  0.00    +0.000 NA
ATOM     15  C   UNL     1      22.114  33.836  52.929  0.00  0.00    +0.000 A 
ATOM     16  C   UNL     1      22.421  33.906  54.280  0.00  0.00    +0.000 A 
ATOM     17  C   UNL     1      21.515  34.280  55.298  0.00  0.00    +0.000 A 
ATOM     18  C   UNL     1      21.932  34.319  56.625  0.00  0.00    +0.000 A 
ATOM     19  C   UNL     1      23.247  33.990  56.936  0.00  0.00    +0.000 A 
ATOM     20  C   UNL     1      24.135  33.621  55.920  0.00  0.00    +0.000 A 
ATOM     21  C   UNL     1      23.743  33.573  54.587  0.00  0.00    +0.000 A 
ATOM     22  N   UNL     1      24.629  33.212  53.648  0.00  0.00    +0.000 NA
BRANCH  15  23
ATOM     23  O   UNL     1      20.867  34.134  52.472  0.00  0.00    +0.000 OA
ATOM     24  H   UNL     1      20.485  33.241  52.391  0.00  0.00    +0.000 HD
ENDBRANCH  15  23
ENDBRANCH   2  13
TORSDOF 3
ENDMDL
