MODEL 1
REMARK VINA RESULT:      -5.2      0.000      0.000
REMARK  Name = 
REMARK  1 active torsions:
REMARK  status: ('A' for Active; 'I' for Inactive)
REMARK    1  A    between atoms: C_12  and  C_13
REMARK                            x       y       z     vdW  Elec       q    Type
REMARK                         _______ _______ _______ _____ _____    ______ ____
ROOT
ATOM      1  C   UNL     1      42.593  79.568  69.190  0.00  0.00    +0.000 A 
ATOM      2  C   UNL     1      43.387  79.203  70.267  0.00  0.00    +0.000 A 
ATOM      3  C   UNL     1      43.150  77.996  70.927  0.00  0.00    +0.000 A 
ATOM      4  C   UNL     1      42.116  77.124  70.528  0.00  0.00    +0.000 A 
ATOM      5  C   UNL     1      41.294  77.514  69.450  0.00  0.00    +0.000 A 
ATOM      6  C   UNL     1      41.556  78.731  68.786  0.00  0.00    +0.000 A 
ATOM      7  C   UNL     1      40.140  76.678  68.943  0.00  0.00    +0.000 C 
ATOM      8  C   UNL     1      39.139  76.312  70.040  0.00  0.00    +0.000 C 
ATOM      9  C   UNL     1      39.500  75.015  70.748  0.00  0.00    +0.000 C 
ATOM     10  C   UNL     1      40.858  74.973  71.353  0.00  0.00    +0.000 A 
ATOM     11  N   UNL     1      41.180  73.892  72.149  0.00  0.00    +0.000 NA
ATOM     12  C   UNL     1      42.426  74.085  72.514  0.00  0.00    +0.000 A 
ATOM     13  N   UNL     1      42.915  75.242  71.983  0.00  0.00    +0.000 N 
ATOM     14  C   UNL     1      41.927  75.854  71.242  0.00  0.00    +0.000 A 
ATOM     15  H   UNL     1      43.864  75.556  72.119  0.00  0.00    +0.000 HD
ENDROOT
BRANCH  12  16
ATOM     16  C   UNL     1      43.278  73.158  73.413  0.00  0.00    +0.000 A 
ATOM     17  C   UNL     1      42.981  72.814  74.710  0.00  0.00    +0.000 A 
ATOM     18  N   UNL     1      44.001  71.991  75.095  0.00  0.00    +0.000 N 
ATOM     19  C   UNL     1      44.859  71.873  74.036  0.00  0.00    +0.000 A 
ATOM     20  N   UNL     1      44.450  72.570  73.000  0.00  0.00    +0.000 NA
ATOM     21  H   UNL     1      44.107  71.548  75.998  0.00  0.00    +0.000 HD
ENDBRANCH  12  16
TORSDOF 1
ENDMDL
MODEL 2
REMARK VINA RESULT:      -5.1      2.183      4.528
REMARK  Name = 
REMARK  1 active torsions:
REMARK  status: ('A' for Active; 'I' for Inactive)
REMARK    1  A    between atoms: C_12  and  C_13
REMARK                            x       y       z     vdW  Elec       q    Type
REMARK                         _______ _______ _______ _____ _____    ______ ____
ROOT
ATOM      1  C   UNL     1      42.577  79.557  69.172  0.00  0.00    +0.000 A 
ATOM      2  C   UNL     1      41.353  79.043  68.770  0.00  0.00    +0.000 A 
ATOM      3  C   UNL     1      40.875  77.861  69.339  0.00  0.00    +0.000 A 
ATOM      4  C   UNL     1      41.608  77.164  70.321  0.00  0.00    +0.000 A 
ATOM      5  C   UNL     1      42.865  77.676  70.705  0.00  0.00    +0.000 A 
ATOM      6  C   UNL     1      43.325  78.879  70.130  0.00  0.00    +0.000 A 
ATOM      7  C   UNL     1      43.754  77.007  71.730  0.00  0.00    +0.000 C 
ATOM      8  C   UNL     1      44.050  75.544  71.402  0.00  0.00    +0.000 C 
ATOM      9  C   UNL     1      43.014  74.594  71.985  0.00  0.00    +0.000 C 
ATOM     10  C   UNL     1      41.606  74.863  71.587  0.00  0.00    +0.000 A 
ATOM     11  N   UNL     1      40.643  73.941  71.946  0.00  0.00    +0.000 NA
ATOM     12  C   UNL     1      39.507  74.435  71.513  0.00  0.00    +0.000 A 
ATOM     13  N   UNL     1      39.701  75.634  70.894  0.00  0.00    +0.000 N 
ATOM     14  C   UNL     1      41.046  75.937  70.905  0.00  0.00    +0.000 A 
ATOM     15  H   UNL     1      38.949  76.192  70.518  0.00  0.00    +0.000 HD
ENDROOT
BRANCH  12  16
ATOM     16  C   UNL     1      38.106  73.795  71.662  0.00  0.00    +0.000 A 
ATOM     17  C   UNL     1      37.274  73.449  70.625  0.00  0.00    +0.000 A 
ATOM     18  N   UNL     1      36.164  72.927  71.227  0.00  0.00    +0.000 N 
ATOM     19  C   UNL     1      36.365  72.978  72.579  0.00  0.00    +0.000 A 
ATOM     20  N   UNL     1      37.534  73.500  72.877  0.00  0.00    +0.000 NA
ATOM     21  H   UNL     1      35.341  72.569  70.761  0.00  0.00    +0.000 HD
ENDBRANCH  12  16
TORSDOF 1
ENDMDL
MODEL 3
REMARK VINA RESULT:      -5.1      1.213      1.782
REMARK  Name = 
REMARK  1 active torsions:
REMARK  status: ('A' for Active; 'I' for Inactive)
REMARK    1  A    between atoms: C_12  and  C_13
REMARK                            x       y       z     vdW  Elec       q    Type
REMARK                         _______ _______ _______ _____ _____    ______ ____
ROOT
ATOM      1  C   UNL     1      42.151  78.628  69.732  0.00  0.00    +0.000 A 
ATOM      2  C   UNL     1      43.264  78.387  70.524  0.00  0.00    +0.000 A 
ATOM      3  C   UNL     1      43.375  77.179  71.216  0.00  0.00    +0.000 A 
ATOM      4  C   UNL     1      42.379  76.184  71.134  0.00  0.00    +0.000 A 
ATOM      5  C   UNL     1      41.237  76.448  70.350  0.00  0.00    +0.000 A 
ATOM      6  C   UNL     1      41.147  77.667  69.646  0.00  0.00    +0.000 A 
ATOM      7  C   UNL     1      40.091  75.471  70.201  0.00  0.00    +0.000 C 
ATOM      8  C   UNL     1      39.507  75.024  71.541  0.00  0.00    +0.000 C 
ATOM      9  C   UNL     1      40.210  73.797  72.103  0.00  0.00    +0.000 C 
ATOM     10  C   UNL     1      41.681  73.927  72.279  0.00  0.00    +0.000 A 
ATOM     11  N   UNL     1      42.348  72.914  72.938  0.00  0.00    +0.000 NA
ATOM     12  C   UNL     1      43.614  73.258  72.919  0.00  0.00    +0.000 A 
ATOM     13  N   UNL     1      43.786  74.447  72.276  0.00  0.00    +0.000 N 
ATOM     14  C   UNL     1      42.559  74.921  71.863  0.00  0.00    +0.000 A 
ATOM     15  H   UNL     1      44.689  74.871  72.127  0.00  0.00    +0.000 HD
ENDROOT
BRANCH  12  16
ATOM     16  C   UNL     1      44.796  72.460  73.520  0.00  0.00    +0.000 A 
ATOM     17  C   UNL     1      46.091  72.492  73.064  0.00  0.00    +0.000 A 
ATOM     18  N   UNL     1      46.773  71.642  73.889  0.00  0.00    +0.000 N 
ATOM     19  C   UNL     1      45.879  71.140  74.794  0.00  0.00    +0.000 A 
ATOM     20  N   UNL     1      44.669  71.615  74.598  0.00  0.00    +0.000 NA
ATOM     21  H   UNL     1      47.758  71.421  73.842  0.00  0.00    +0.000 HD
ENDBRANCH  12  16
TORSDOF 1
ENDMDL
