MODEL 1
REMARK VINA RESULT:      -6.2      0.000      0.000
REMARK  Name = 
REMARK  5 active torsions:
REMARK  status: ('A' for Active; 'I' for Inactive)
REMARK    1  A    between atoms: C_1  and  N_2
REMARK    2  A    between atoms: N_5  and  C_6
REMARK    3  A    between atoms: C_9  and  C_10
REMARK    4  A    between atoms: N_16  and  C_17
REMARK    5  A    between atoms: C_17  and  C_18
REMARK                            x       y       z     vdW  Elec       q    Type
REMARK                         _______ _______ _______ _____ _____    ______ ____
ROOT
ATOM      1  C   UNL     1     -10.369   7.951 -11.978  0.00  0.00    +0.000 A 
ATOM      2  C   UNL     1      -9.357   7.710 -12.904  0.00  0.00    +0.000 A 
ATOM      3  N   UNL     1      -8.440   6.721 -12.813  0.00  0.00    +0.000 NA
ATOM      4  C   UNL     1      -8.499   5.929 -11.725  0.00  0.00    +0.000 A 
ATOM      5  C   UNL     1      -9.444   6.086 -10.677  0.00  0.00    +0.000 A 
ATOM      6  C   UNL     1     -10.397   7.100 -10.862  0.00  0.00    +0.000 A 
ATOM      7  N   UNL     1      -9.517   5.204  -9.564  0.00  0.00    +0.000 N 
ATOM      8  C   UNL     1      -8.481   4.137  -9.580  0.00  0.00    +0.000 C 
ATOM      9  C   UNL     1      -8.050   3.742 -11.002  0.00  0.00    +0.000 C 
ATOM     10  N   UNL     1      -7.527   4.915 -11.682  0.00  0.00    +0.000 N 
ATOM     11  H   UNL     1      -7.176   4.801 -12.627  0.00  0.00    +0.000 HD
ENDROOT
BRANCH   1  15
ATOM     12  C   UNL     1     -13.241  11.060 -12.595  0.00  0.00    +0.000 A 
ATOM     13  C   UNL     1     -12.635  10.917 -11.348  0.00  0.00    +0.000 A 
ATOM     14  C   UNL     1     -11.697   9.901 -11.130  0.00  0.00    +0.000 A 
ATOM     15  C   UNL     1     -11.353   9.026 -12.161  0.00  0.00    +0.000 A 
ATOM     16  C   UNL     1     -12.000   9.248 -13.373  0.00  0.00    +0.000 A 
ATOM     17  N   UNL     1     -12.905  10.231 -13.607  0.00  0.00    +0.000 NA
BRANCH  12  22
ATOM     18  C   UNL     1     -16.345  15.343 -13.606  0.00  0.00    +0.000 C 
ATOM     19  N   UNL     1     -15.630  14.668 -12.529  0.00  0.00    +0.000 NA
ATOM     20  C   UNL     1     -16.208  13.327 -12.278  0.00  0.00    +0.000 C 
ATOM     21  C   UNL     1     -15.186  12.273 -11.798  0.00  0.00    +0.000 C 
ATOM     22  N   UNL     1     -14.154  12.081 -12.830  0.00  0.00    +0.000 N 
ATOM     23  C   UNL     1     -13.687  13.302 -13.505  0.00  0.00    +0.000 C 
ATOM     24  C   UNL     1     -14.179  14.586 -12.793  0.00  0.00    +0.000 C 
ENDBRANCH  12  22
ENDBRANCH   1  15
BRANCH   7  25
ATOM     25  C   UNL     1      -9.710   5.853  -8.255  0.00  0.00    +0.000 C 
BRANCH  25  26
ATOM     26  C   UNL     1     -10.725   5.108  -7.426  0.00  0.00    +0.000 A 
ATOM     27  C   UNL     1     -12.043   4.932  -7.876  0.00  0.00    +0.000 A 
ATOM     28  C   UNL     1     -12.962   4.252  -7.082  0.00  0.00    +0.000 A 
ATOM     29  F   UNL     1     -14.215   4.089  -7.524  0.00  0.00    +0.000 F 
ATOM     30  C   UNL     1     -12.601   3.739  -5.840  0.00  0.00    +0.000 A 
ATOM     31  C   UNL     1     -11.294   3.907  -5.384  0.00  0.00    +0.000 A 
ATOM     32  C   UNL     1     -10.369   4.586  -6.176  0.00  0.00    +0.000 A 
ATOM     33  F   UNL     1      -9.113   4.718  -5.727  0.00  0.00    +0.000 F 
ENDBRANCH  25  26
ENDBRANCH   7  25
TORSDOF 4
ENDMDL
MODEL 2
REMARK VINA RESULT:      -6.0      3.867     10.475
REMARK  Name = 
REMARK  5 active torsions:
REMARK  status: ('A' for Active; 'I' for Inactive)
REMARK    1  A    between atoms: C_1  and  N_2
REMARK    2  A    between atoms: N_5  and  C_6
REMARK    3  A    between atoms: C_9  and  C_10
REMARK    4  A    between atoms: N_16  and  C_17
REMARK    5  A    between atoms: C_17  and  C_18
REMARK                            x       y       z     vdW  Elec       q    Type
REMARK                         _______ _______ _______ _____ _____    ______ ____
ROOT
ATOM      1  C   UNL     1     -14.724   9.964 -10.266  0.00  0.00    +0.000 A 
ATOM      2  C   UNL     1     -15.949   9.789  -9.627  0.00  0.00    +0.000 A 
ATOM      3  N   UNL     1     -17.057  10.528  -9.857  0.00  0.00    +0.000 NA
ATOM      4  C   UNL     1     -16.954  11.527 -10.755  0.00  0.00    +0.000 A 
ATOM      5  C   UNL     1     -15.758  11.851 -11.447  0.00  0.00    +0.000 A 
ATOM      6  C   UNL     1     -14.660  11.012 -11.198  0.00  0.00    +0.000 A 
ATOM      7  N   UNL     1     -15.688  12.879 -12.428  0.00  0.00    +0.000 N 
ATOM      8  C   UNL     1     -16.970  13.606 -12.622  0.00  0.00    +0.000 C 
ATOM      9  C   UNL     1     -18.204  12.735 -12.330  0.00  0.00    +0.000 C 
ATOM     10  N   UNL     1     -18.134  12.259 -10.959  0.00  0.00    +0.000 N 
ATOM     11  H   UNL     1     -18.900  11.690 -10.613  0.00  0.00    +0.000 HD
ENDROOT
BRANCH   1  15
ATOM     12  C   UNL     1     -11.326   7.471  -9.535  0.00  0.00    +0.000 A 
ATOM     13  C   UNL     1     -12.433   7.397  -8.689  0.00  0.00    +0.000 A 
ATOM     14  C   UNL     1     -13.549   8.210  -8.914  0.00  0.00    +0.000 A 
ATOM     15  C   UNL     1     -13.570   9.098  -9.990  0.00  0.00    +0.000 A 
ATOM     16  C   UNL     1     -12.428   9.099 -10.786  0.00  0.00    +0.000 A 
ATOM     17  N   UNL     1     -11.340   8.313 -10.590  0.00  0.00    +0.000 NA
BRANCH  12  22
ATOM     18  C   UNL     1      -7.100   4.141  -9.299  0.00  0.00    +0.000 C 
ATOM     19  N   UNL     1      -8.549   4.176  -9.134  0.00  0.00    +0.000 NA
ATOM     20  C   UNL     1      -8.924   5.043  -7.992  0.00  0.00    +0.000 C 
ATOM     21  C   UNL     1     -10.279   5.766  -8.160  0.00  0.00    +0.000 C 
ATOM     22  N   UNL     1     -10.222   6.650  -9.336  0.00  0.00    +0.000 N 
ATOM     23  C   UNL     1      -9.530   6.106 -10.515  0.00  0.00    +0.000 C 
ATOM     24  C   UNL     1      -9.238   4.592 -10.372  0.00  0.00    +0.000 C 
ENDBRANCH  12  22
ENDBRANCH   1  15
BRANCH   7  25
ATOM     25  C   UNL     1     -14.496  13.742 -12.356  0.00  0.00    +0.000 C 
BRANCH  25  26
ATOM     26  C   UNL     1     -13.874  13.923 -13.717  0.00  0.00    +0.000 A 
ATOM     27  C   UNL     1     -13.026  12.947 -14.264  0.00  0.00    +0.000 A 
ATOM     28  C   UNL     1     -12.455  13.148 -15.517  0.00  0.00    +0.000 A 
ATOM     29  F   UNL     1     -11.649  12.208 -16.028  0.00  0.00    +0.000 F 
ATOM     30  C   UNL     1     -12.707  14.305 -16.247  0.00  0.00    +0.000 A 
ATOM     31  C   UNL     1     -13.551  15.280 -15.714  0.00  0.00    +0.000 A 
ATOM     32  C   UNL     1     -14.126  15.083 -14.460  0.00  0.00    +0.000 A 
ATOM     33  F   UNL     1     -14.949  16.024 -13.976  0.00  0.00    +0.000 F 
ENDBRANCH  25  26
ENDBRANCH   7  25
TORSDOF 4
ENDMDL
MODEL 3
REMARK VINA RESULT:      -5.9      5.232      7.902
REMARK  Name = 
REMARK  5 active torsions:
REMARK  status: ('A' for Active; 'I' for Inactive)
REMARK    1  A    between atoms: C_1  and  N_2
REMARK    2  A    between atoms: N_5  and  C_6
REMARK    3  A    between atoms: C_9  and  C_10
REMARK    4  A    between atoms: N_16  and  C_17
REMARK    5  A    between atoms: C_17  and  C_18
REMARK                            x       y       z     vdW  Elec       q    Type
REMARK                         _______ _______ _______ _____ _____    ______ ____
ROOT
ATOM      1  C   UNL     1     -17.272  12.522 -11.802  0.00  0.00    +0.000 A 
ATOM      2  C   UNL     1     -18.640  12.417 -11.564  0.00  0.00    +0.000 A 
ATOM      3  N   UNL     1     -19.216  11.533 -10.720  0.00  0.00    +0.000 NA
ATOM      4  C   UNL     1     -18.399  10.671 -10.084  0.00  0.00    +0.000 A 
ATOM      5  C   UNL     1     -16.992  10.629 -10.264  0.00  0.00    +0.000 A 
ATOM      6  C   UNL     1     -16.456  11.609 -11.115  0.00  0.00    +0.000 A 
ATOM      7  N   UNL     1     -16.146   9.743  -9.542  0.00  0.00    +0.000 N 
ATOM      8  C   UNL     1     -16.881   8.836  -8.620  0.00  0.00    +0.000 C 
ATOM      9  C   UNL     1     -18.188   9.450  -8.091  0.00  0.00    +0.000 C 
ATOM     10  N   UNL     1     -19.048   9.777  -9.216  0.00  0.00    +0.000 N 
ATOM     11  H   UNL     1     -19.963  10.168  -9.018  0.00  0.00    +0.000 HD
ENDROOT
BRANCH   1  15
ATOM     12  C   UNL     1     -15.568  15.457 -14.406  0.00  0.00    +0.000 A 
ATOM     13  C   UNL     1     -16.939  15.209 -14.447  0.00  0.00    +0.000 A 
ATOM     14  C   UNL     1     -17.510  14.248 -13.604  0.00  0.00    +0.000 A 
ATOM     15  C   UNL     1     -16.713  13.533 -12.709  0.00  0.00    +0.000 A 
ATOM     16  C   UNL     1     -15.358  13.852 -12.729  0.00  0.00    +0.000 A 
ATOM     17  N   UNL     1     -14.788  14.786 -13.532  0.00  0.00    +0.000 NA
BRANCH  12  22
ATOM     18  C   UNL     1     -12.854  19.015 -17.402  0.00  0.00    +0.000 C 
ATOM     19  N   UNL     1     -13.399  18.815 -16.064  0.00  0.00    +0.000 NA
ATOM     20  C   UNL     1     -14.877  18.722 -16.111  0.00  0.00    +0.000 C 
ATOM     21  C   UNL     1     -15.492  17.800 -15.034  0.00  0.00    +0.000 C 
ATOM     22  N   UNL     1     -14.995  16.427 -15.220  0.00  0.00    +0.000 N 
ATOM     23  C   UNL     1     -13.571  16.302 -15.567  0.00  0.00    +0.000 C 
ATOM     24  C   UNL     1     -12.808  17.639 -15.395  0.00  0.00    +0.000 C 
ENDBRANCH  12  22
ENDBRANCH   1  15
BRANCH   7  25
ATOM     25  C   UNL     1     -15.090   9.089 -10.335  0.00  0.00    +0.000 C 
BRANCH  25  26
ATOM     26  C   UNL     1     -13.755   9.753 -10.111  0.00  0.00    +0.000 A 
ATOM     27  C   UNL     1     -13.592  10.745  -9.132  0.00  0.00    +0.000 A 
ATOM     28  C   UNL     1     -12.351  11.350  -8.958  0.00  0.00    +0.000 A 
ATOM     29  F   UNL     1     -12.208  12.294  -8.018  0.00  0.00    +0.000 F 
ATOM     30  C   UNL     1     -11.258  10.991  -9.741  0.00  0.00    +0.000 A 
ATOM     31  C   UNL     1     -11.409  10.005 -10.715  0.00  0.00    +0.000 A 
ATOM     32  C   UNL     1     -12.649   9.395 -10.892  0.00  0.00    +0.000 A 
ATOM     33  F   UNL     1     -12.766   8.436 -11.821  0.00  0.00    +0.000 F 
ENDBRANCH  25  26
ENDBRANCH   7  25
TORSDOF 4
ENDMDL
