MODEL 1
REMARK VINA RESULT:      -6.3      0.000      0.000
REMARK  Name = 
REMARK  8 active torsions:
REMARK  status: ('A' for Active; 'I' for Inactive)
REMARK    1  A    between atoms: C_1  and  C_2
REMARK    2  A    between atoms: C_2  and  C_3
REMARK    3  A    between atoms: C_3  and  C_4
REMARK    4  A    between atoms: C_16  and  C_17
REMARK    5  A    between atoms: C_16  and  C_18
REMARK    6  A    between atoms: C_22  and  C_23
REMARK    7  A    between atoms: C_22  and  C_24
REMARK    8  A    between atoms: C_25  and  C_26
REMARK                            x       y       z     vdW  Elec       q    Type
REMARK                         _______ _______ _______ _____ _____    ______ ____
ROOT
ATOM      1  C   UNL     1     -14.610   9.949  -9.536  0.00  0.00    +0.000 A 
ATOM      2  C   UNL     1     -13.270   9.865  -9.562  0.00  0.00    +0.000 A 
ATOM      3  C   UNL     1     -12.408  10.724 -10.373  0.00  0.00    +0.000 A 
ATOM      4  O   UNL     1     -11.189  10.614 -10.330  0.00  0.00    +0.000 OA
ATOM      5  O   UNL     1     -13.059  11.643 -11.163  0.00  0.00    +0.000 OA
ATOM      6  C   UNL     1     -14.469  11.769 -11.210  0.00  0.00    +0.000 A 
ATOM      7  C   UNL     1     -14.991  12.751 -12.072  0.00  0.00    +0.000 A 
ATOM      8  C   UNL     1     -16.368  12.946 -12.133  0.00  0.00    +0.000 A 
ATOM      9  C   UNL     1     -17.219  12.167 -11.329  0.00  0.00    +0.000 A 
ATOM     10  C   UNL     1     -16.682  11.176 -10.479  0.00  0.00    +0.000 A 
ATOM     11  C   UNL     1     -15.286  10.958 -10.398  0.00  0.00    +0.000 A 
ATOM     12  O   UNL     1     -17.496  10.428  -9.671  0.00  0.00    +0.000 OA
ATOM     13  C   UNL     1     -18.913  10.365  -9.920  0.00  0.00    +0.000 C 
ATOM     14  C   UNL     1     -19.579  10.337  -8.540  0.00  0.00    +0.000 C 
ATOM     15  C   UNL     1     -19.196   9.051 -10.656  0.00  0.00    +0.000 C 
ATOM     16  C   UNL     1     -19.456  11.525 -10.705  0.00  0.00    +0.000 C 
ATOM     17  C   UNL     1     -18.666  12.380 -11.358  0.00  0.00    +0.000 C 
ATOM     18  O   UNL     1     -16.964  13.885 -12.935  0.00  0.00    +0.000 OA
ATOM     19  C   UNL     1     -16.183  14.452 -14.004  0.00  0.00    +0.000 C 
ATOM     20  C   UNL     1     -16.976  15.701 -14.430  0.00  0.00    +0.000 C 
ATOM     21  C   UNL     1     -16.171  13.471 -15.190  0.00  0.00    +0.000 C 
ATOM     22  C   UNL     1     -14.790  14.851 -13.489  0.00  0.00    +0.000 C 
ATOM     23  C   UNL     1     -13.889  15.520 -14.529  0.00  0.00    +0.000 C 
ATOM     24  C   UNL     1     -14.131  13.609 -12.921  0.00  0.00    +0.000 C 
ATOM     25  O   UNL     1     -12.956  13.335 -13.137  0.00  0.00    +0.000 OA
ENDROOT
BRANCH   1  26
ATOM     26  C   UNL     1     -15.355   8.976  -8.647  0.00  0.00    +0.000 C 
BRANCH  26  28
ATOM     27  C   UNL     1     -15.412   6.656  -7.662  0.00  0.00    +0.000 C 
ATOM     28  C   UNL     1     -14.566   7.686  -8.396  0.00  0.00    +0.000 C 
ENDBRANCH  26  28
ENDBRANCH   1  26
TORSDOF 2
ENDMDL
MODEL 2
REMARK VINA RESULT:      -6.0      9.569     13.477
REMARK  Name = 
REMARK  8 active torsions:
REMARK  status: ('A' for Active; 'I' for Inactive)
REMARK    1  A    between atoms: C_1  and  C_2
REMARK    2  A    between atoms: C_2  and  C_3
REMARK    3  A    between atoms: C_3  and  C_4
REMARK    4  A    between atoms: C_16  and  C_17
REMARK    5  A    between atoms: C_16  and  C_18
REMARK    6  A    between atoms: C_22  and  C_23
REMARK    7  A    between atoms: C_22  and  C_24
REMARK    8  A    between atoms: C_25  and  C_26
REMARK                            x       y       z     vdW  Elec       q    Type
REMARK                         _______ _______ _______ _____ _____    ______ ____
ROOT
ATOM      1  C   UNL     1     -23.877  16.195  -4.337  0.00  0.00    +0.000 A 
ATOM      2  C   UNL     1     -24.377  17.428  -4.153  0.00  0.00    +0.000 A 
ATOM      3  C   UNL     1     -24.206  18.209  -2.928  0.00  0.00    +0.000 A 
ATOM      4  O   UNL     1     -24.664  19.341  -2.833  0.00  0.00    +0.000 OA
ATOM      5  O   UNL     1     -23.505  17.587  -1.920  0.00  0.00    +0.000 OA
ATOM      6  C   UNL     1     -22.975  16.280  -2.032  0.00  0.00    +0.000 A 
ATOM      7  C   UNL     1     -22.287  15.773  -0.914  0.00  0.00    +0.000 A 
ATOM      8  C   UNL     1     -21.713  14.507  -0.978  0.00  0.00    +0.000 A 
ATOM      9  C   UNL     1     -21.820  13.752  -2.160  0.00  0.00    +0.000 A 
ATOM     10  C   UNL     1     -22.526  14.267  -3.269  0.00  0.00    +0.000 A 
ATOM     11  C   UNL     1     -23.118  15.552  -3.230  0.00  0.00    +0.000 A 
ATOM     12  O   UNL     1     -22.616  13.554  -4.436  0.00  0.00    +0.000 OA
ATOM     13  C   UNL     1     -22.326  12.144  -4.454  0.00  0.00    +0.000 C 
ATOM     14  C   UNL     1     -21.617  11.880  -5.787  0.00  0.00    +0.000 C 
ATOM     15  C   UNL     1     -23.662  11.395  -4.423  0.00  0.00    +0.000 C 
ATOM     16  C   UNL     1     -21.446  11.678  -3.328  0.00  0.00    +0.000 C 
ATOM     17  C   UNL     1     -21.196  12.433  -2.256  0.00  0.00    +0.000 C 
ATOM     18  O   UNL     1     -21.017  13.939   0.057  0.00  0.00    +0.000 OA
ATOM     19  C   UNL     1     -21.173  14.511   1.369  0.00  0.00    +0.000 C 
ATOM     20  C   UNL     1     -20.002  13.926   2.179  0.00  0.00    +0.000 C 
ATOM     21  C   UNL     1     -22.483  13.992   1.989  0.00  0.00    +0.000 C 
ATOM     22  C   UNL     1     -21.062  16.043   1.296  0.00  0.00    +0.000 C 
ATOM     23  C   UNL     1     -21.155  16.758   2.645  0.00  0.00    +0.000 C 
ATOM     24  C   UNL     1     -22.131  16.543   0.344  0.00  0.00    +0.000 C 
ATOM     25  O   UNL     1     -22.817  17.528   0.588  0.00  0.00    +0.000 OA
ENDROOT
BRANCH   1  26
ATOM     26  C   UNL     1     -24.154  15.520  -5.664  0.00  0.00    +0.000 C 
BRANCH  26  28
ATOM     27  C   UNL     1     -25.886  16.057  -7.416  0.00  0.00    +0.000 C 
ATOM     28  C   UNL     1     -24.597  16.510  -6.747  0.00  0.00    +0.000 C 
ENDBRANCH  26  28
ENDBRANCH   1  26
TORSDOF 2
ENDMDL
MODEL 3
REMARK VINA RESULT:      -6.0      9.771     13.021
REMARK  Name = 
REMARK  8 active torsions:
REMARK  status: ('A' for Active; 'I' for Inactive)
REMARK    1  A    between atoms: C_1  and  C_2
REMARK    2  A    between atoms: C_2  and  C_3
REMARK    3  A    between atoms: C_3  and  C_4
REMARK    4  A    between atoms: C_16  and  C_17
REMARK    5  A    between atoms: C_16  and  C_18
REMARK    6  A    between atoms: C_22  and  C_23
REMARK    7  A    between atoms: C_22  and  C_24
REMARK    8  A    between atoms: C_25  and  C_26
REMARK                            x       y       z     vdW  Elec       q    Type
REMARK                         _______ _______ _______ _____ _____    ______ ____
ROOT
ATOM      1  C   UNL     1     -22.320  16.450   0.239  0.00  0.00    +0.000 A 
ATOM      2  C   UNL     1     -21.457  15.826   1.057  0.00  0.00    +0.000 A 
ATOM      3  C   UNL     1     -20.745  14.595   0.716  0.00  0.00    +0.000 A 
ATOM      4  O   UNL     1     -19.949  14.091   1.498  0.00  0.00    +0.000 OA
ATOM      5  O   UNL     1     -21.031  14.067  -0.522  0.00  0.00    +0.000 OA
ATOM      6  C   UNL     1     -21.950  14.653  -1.425  0.00  0.00    +0.000 A 
ATOM      7  C   UNL     1     -22.145  13.993  -2.653  0.00  0.00    +0.000 A 
ATOM      8  C   UNL     1     -23.010  14.541  -3.595  0.00  0.00    +0.000 A 
ATOM      9  C   UNL     1     -23.672  15.749  -3.314  0.00  0.00    +0.000 A 
ATOM     10  C   UNL     1     -23.479  16.393  -2.072  0.00  0.00    +0.000 A 
ATOM     11  C   UNL     1     -22.604  15.857  -1.097  0.00  0.00    +0.000 A 
ATOM     12  O   UNL     1     -24.097  17.584  -1.795  0.00  0.00    +0.000 OA
ATOM     13  C   UNL     1     -25.220  18.023  -2.581  0.00  0.00    +0.000 C 
ATOM     14  C   UNL     1     -25.070  19.543  -2.713  0.00  0.00    +0.000 C 
ATOM     15  C   UNL     1     -26.493  17.698  -1.792  0.00  0.00    +0.000 C 
ATOM     16  C   UNL     1     -25.293  17.414  -3.953  0.00  0.00    +0.000 C 
ATOM     17  C   UNL     1     -24.560  16.356  -4.306  0.00  0.00    +0.000 C 
ATOM     18  O   UNL     1     -23.252  13.975  -4.820  0.00  0.00    +0.000 OA
ATOM     19  C   UNL     1     -22.877  12.597  -5.011  0.00  0.00    +0.000 C 
ATOM     20  C   UNL     1     -22.908  12.405  -6.538  0.00  0.00    +0.000 C 
ATOM     21  C   UNL     1     -23.962  11.694  -4.397  0.00  0.00    +0.000 C 
ATOM     22  C   UNL     1     -21.459  12.353  -4.468  0.00  0.00    +0.000 C 
ATOM     23  C   UNL     1     -20.930  10.932  -4.670  0.00  0.00    +0.000 C 
ATOM     24  C   UNL     1     -21.451  12.729  -3.000  0.00  0.00    +0.000 C 
ATOM     25  O   UNL     1     -20.895  12.043  -2.150  0.00  0.00    +0.000 OA
ENDROOT
BRANCH   1  26
ATOM     26  C   UNL     1     -22.981  17.712   0.750  0.00  0.00    +0.000 C 
BRANCH  26  28
ATOM     27  C   UNL     1     -22.618  19.176   2.771  0.00  0.00    +0.000 C 
ATOM     28  C   UNL     1     -23.001  17.787   2.282  0.00  0.00    +0.000 C 
ENDBRANCH  26  28
ENDBRANCH   1  26
TORSDOF 2
ENDMDL
