MODEL 1
REMARK VINA RESULT:      -6.9      0.000      0.000
REMARK  Name = 
REMARK  6 active torsions:
REMARK  status: ('A' for Active; 'I' for Inactive)
REMARK    1  A    between atoms: C_1  and  C_2
REMARK    2  A    between atoms: C_5  and  C_6
REMARK    3  A    between atoms: N_9  and  C_10
REMARK    4  A    between atoms: C_10  and  C_11
REMARK    5  A    between atoms: C_11  and  C_12
REMARK    6  A    between atoms: C_25  and  C_26
REMARK                            x       y       z     vdW  Elec       q    Type
REMARK                         _______ _______ _______ _____ _____    ______ ____
ROOT
ATOM      1  C   UNL     1      23.197  35.017  50.047  0.00  0.00    +0.000 C 
ATOM      2  C   UNL     1      23.875  35.202  48.686  0.00  0.00    +0.000 C 
ATOM      3  C   UNL     1      25.369  34.854  48.766  0.00  0.00    +0.000 C 
ATOM      4  N   UNL     1      25.697  33.822  49.767  0.00  0.00    +0.000 NA
ATOM      5  C   UNL     1      24.595  32.871  49.926  0.00  0.00    +0.000 C 
ATOM      6  C   UNL     1      23.373  33.567  50.540  0.00  0.00    +0.000 C 
ENDROOT
BRANCH   1  11
ATOM      7  C   UNL     1      17.597  36.709  50.146  0.00  0.00    +0.000 C 
ATOM      8  C   UNL     1      19.031  36.260  50.088  0.00  0.00    +0.000 A 
ATOM      9  C   UNL     1      19.893  36.572  51.149  0.00  0.00    +0.000 A 
ATOM     10  C   UNL     1      21.229  36.171  51.128  0.00  0.00    +0.000 A 
ATOM     11  C   UNL     1      21.741  35.446  50.046  0.00  0.00    +0.000 A 
ATOM     12  C   UNL     1      20.876  35.128  48.988  0.00  0.00    +0.000 A 
ATOM     13  C   UNL     1      19.528  35.526  48.994  0.00  0.00    +0.000 A 
ATOM     14  C   UNL     1      18.647  35.157  47.832  0.00  0.00    +0.000 C 
ENDBRANCH   1  11
BRANCH   4  15
ATOM     15  C   UNL     1      26.986  33.189  49.450  0.00  0.00    +0.000 C 
BRANCH  15  16
ATOM     16  C   UNL     1      28.101  33.581  50.431  0.00  0.00    +0.000 C 
BRANCH  16  17
ATOM     17  C   UNL     1      29.469  33.688  49.746  0.00  0.00    +0.000 C 
ATOM     18  N   UNL     1      30.534  33.612  50.734  0.00  0.00    +0.000 N 
ATOM     19  C   UNL     1      31.393  34.685  50.704  0.00  0.00    +0.000 C 
ATOM     20  O   UNL     1      32.384  34.849  51.386  0.00  0.00    +0.000 OA
ATOM     21  C   UNL     1      30.894  35.590  49.667  0.00  0.00    +0.000 A 
ATOM     22  C   UNL     1      31.415  36.806  49.265  0.00  0.00    +0.000 A 
ATOM     23  C   UNL     1      30.762  37.469  48.227  0.00  0.00    +0.000 A 
ATOM     24  C   UNL     1      29.626  36.901  47.622  0.00  0.00    +0.000 A 
ATOM     25  C   UNL     1      29.121  35.664  48.048  0.00  0.00    +0.000 A 
ATOM     26  C   UNL     1      29.759  35.011  49.089  0.00  0.00    +0.000 A 
ATOM     27  H   UNL     1      30.732  32.814  51.322  0.00  0.00    +0.000 HD
ENDBRANCH  16  17
ENDBRANCH  15  16
ENDBRANCH   4  15
TORSDOF 4
ENDMDL
MODEL 2
REMARK VINA RESULT:      -6.9      0.628      1.720
REMARK  Name = 
REMARK  6 active torsions:
REMARK  status: ('A' for Active; 'I' for Inactive)
REMARK    1  A    between atoms: C_1  and  C_2
REMARK    2  A    between atoms: C_5  and  C_6
REMARK    3  A    between atoms: N_9  and  C_10
REMARK    4  A    between atoms: C_10  and  C_11
REMARK    5  A    between atoms: C_11  and  C_12
REMARK    6  A    between atoms: C_25  and  C_26
REMARK                            x       y       z     vdW  Elec       q    Type
REMARK                         _______ _______ _______ _____ _____    ______ ____
ROOT
ATOM      1  C   UNL     1      22.903  34.125  49.032  0.00  0.00    +0.000 C 
ATOM      2  C   UNL     1      23.378  33.565  50.377  0.00  0.00    +0.000 C 
ATOM      3  C   UNL     1      24.667  32.748  50.206  0.00  0.00    +0.000 C 
ATOM      4  N   UNL     1      25.531  33.204  49.100  0.00  0.00    +0.000 NA
ATOM      5  C   UNL     1      25.408  34.649  48.896  0.00  0.00    +0.000 C 
ATOM      6  C   UNL     1      24.001  35.002  48.399  0.00  0.00    +0.000 C 
ENDROOT
BRANCH   1  11
ATOM      7  C   UNL     1      17.770  36.920  49.306  0.00  0.00    +0.000 C 
ATOM      8  C   UNL     1      19.095  36.210  49.271  0.00  0.00    +0.000 A 
ATOM      9  C   UNL     1      19.483  35.538  48.103  0.00  0.00    +0.000 A 
ATOM     10  C   UNL     1      20.707  34.870  48.035  0.00  0.00    +0.000 A 
ATOM     11  C   UNL     1      21.576  34.855  49.131  0.00  0.00    +0.000 A 
ATOM     12  C   UNL     1      21.189  35.533  50.297  0.00  0.00    +0.000 A 
ATOM     13  C   UNL     1      19.960  36.211  50.381  0.00  0.00    +0.000 A 
ATOM     14  C   UNL     1      19.598  36.921  51.656  0.00  0.00    +0.000 C 
ENDBRANCH   1  11
BRANCH   4  15
ATOM     15  C   UNL     1      26.913  32.747  49.305  0.00  0.00    +0.000 C 
BRANCH  15  16
ATOM     16  C   UNL     1      27.758  33.744  50.112  0.00  0.00    +0.000 C 
BRANCH  16  17
ATOM     17  C   UNL     1      29.204  33.825  49.608  0.00  0.00    +0.000 C 
ATOM     18  N   UNL     1      30.132  33.761  50.726  0.00  0.00    +0.000 N 
ATOM     19  C   UNL     1      30.999  34.826  50.786  0.00  0.00    +0.000 C 
ATOM     20  O   UNL     1      31.895  34.997  51.586  0.00  0.00    +0.000 OA
ATOM     21  C   UNL     1      30.647  35.714  49.676  0.00  0.00    +0.000 A 
ATOM     22  C   UNL     1      31.229  36.917  49.320  0.00  0.00    +0.000 A 
ATOM     23  C   UNL     1      30.722  37.563  48.193  0.00  0.00    +0.000 A 
ATOM     24  C   UNL     1      29.668  36.991  47.458  0.00  0.00    +0.000 A 
ATOM     25  C   UNL     1      29.099  35.767  47.840  0.00  0.00    +0.000 A 
ATOM     26  C   UNL     1      29.590  35.131  48.967  0.00  0.00    +0.000 A 
ATOM     27  H   UNL     1      30.244  32.974  51.351  0.00  0.00    +0.000 HD
ENDBRANCH  16  17
ENDBRANCH  15  16
ENDBRANCH   4  15
TORSDOF 4
ENDMDL
MODEL 3
REMARK VINA RESULT:      -6.5      1.804      2.372
REMARK  Name = 
REMARK  6 active torsions:
REMARK  status: ('A' for Active; 'I' for Inactive)
REMARK    1  A    between atoms: C_1  and  C_2
REMARK    2  A    between atoms: C_5  and  C_6
REMARK    3  A    between atoms: N_9  and  C_10
REMARK    4  A    between atoms: C_10  and  C_11
REMARK    5  A    between atoms: C_11  and  C_12
REMARK    6  A    between atoms: C_25  and  C_26
REMARK                            x       y       z     vdW  Elec       q    Type
REMARK                         _______ _______ _______ _____ _____    ______ ____
ROOT
ATOM      1  C   UNL     1      23.165  34.714  49.004  0.00  0.00    +0.000 C 
ATOM      2  C   UNL     1      23.037  34.082  47.614  0.00  0.00    +0.000 C 
ATOM      3  C   UNL     1      24.407  33.627  47.090  0.00  0.00    +0.000 C 
ATOM      4  N   UNL     1      25.354  33.221  48.146  0.00  0.00    +0.000 NA
ATOM      5  C   UNL     1      24.650  32.644  49.293  0.00  0.00    +0.000 C 
ATOM      6  C   UNL     1      23.799  33.714  49.990  0.00  0.00    +0.000 C 
ENDROOT
BRANCH   1  11
ATOM      7  C   UNL     1      18.156  36.893  51.101  0.00  0.00    +0.000 C 
ATOM      8  C   UNL     1      19.427  36.324  50.532  0.00  0.00    +0.000 A 
ATOM      9  C   UNL     1      20.613  36.414  51.273  0.00  0.00    +0.000 A 
ATOM     10  C   UNL     1      21.810  35.896  50.775  0.00  0.00    +0.000 A 
ATOM     11  C   UNL     1      21.853  35.273  49.523  0.00  0.00    +0.000 A 
ATOM     12  C   UNL     1      20.664  35.178  48.785  0.00  0.00    +0.000 A 
ATOM     13  C   UNL     1      19.451  35.694  49.272  0.00  0.00    +0.000 A 
ATOM     14  C   UNL     1      18.207  35.564  48.437  0.00  0.00    +0.000 C 
ENDBRANCH   1  11
BRANCH   4  15
ATOM     15  C   UNL     1      26.400  32.348  47.591  0.00  0.00    +0.000 C 
BRANCH  15  16
ATOM     16  C   UNL     1      27.818  32.810  47.955  0.00  0.00    +0.000 C 
BRANCH  16  17
ATOM     17  C   UNL     1      27.844  34.250  48.484  0.00  0.00    +0.000 C 
ATOM     18  N   UNL     1      27.901  35.192  47.378  0.00  0.00    +0.000 N 
ATOM     19  C   UNL     1      28.966  36.059  47.445  0.00  0.00    +0.000 C 
ATOM     20  O   UNL     1      29.222  36.966  46.679  0.00  0.00    +0.000 OA
ATOM     21  C   UNL     1      29.729  35.692  48.639  0.00  0.00    +0.000 A 
ATOM     22  C   UNL     1      30.886  36.267  49.131  0.00  0.00    +0.000 A 
ATOM     23  C   UNL     1      31.407  35.745  50.314  0.00  0.00    +0.000 A 
ATOM     24  C   UNL     1      30.759  34.682  50.969  0.00  0.00    +0.000 A 
ATOM     25  C   UNL     1      29.584  34.119  50.450  0.00  0.00    +0.000 A 
ATOM     26  C   UNL     1      29.074  34.626  49.267  0.00  0.00    +0.000 A 
ATOM     27  H   UNL     1      27.186  35.313  46.673  0.00  0.00    +0.000 HD
ENDBRANCH  16  17
ENDBRANCH  15  16
ENDBRANCH   4  15
TORSDOF 4
ENDMDL
