MODEL 1
REMARK VINA RESULT:      -6.5      0.000      0.000
REMARK  Name = 
REMARK  5 active torsions:
REMARK  status: ('A' for Active; 'I' for Inactive)
REMARK    1  A    between atoms: C_1  and  O_2
REMARK    2  A    between atoms: O_2  and  C_3
REMARK    3  A    between atoms: N_13  and  C_14
REMARK    4  A    between atoms: C_14  and  C_15
REMARK    5  A    between atoms: C_15  and  N_16
REMARK                            x       y       z     vdW  Elec       q    Type
REMARK                         _______ _______ _______ _____ _____    ______ ____
ROOT
ATOM      1  C   UNL     1     -14.104  10.834  -9.927  0.00  0.00    +0.000 C 
ENDROOT
BRANCH   1   2
ATOM      2  N   UNL     1     -12.985  10.006 -10.368  0.00  0.00    +0.000 N 
ATOM      3  C   UNL     1     -12.377  10.336 -11.583  0.00  0.00    +0.000 A 
ATOM      4  O   UNL     1     -12.731  11.285 -12.282  0.00  0.00    +0.000 OA
ATOM      5  N   UNL     1     -11.339   9.541 -11.995  0.00  0.00    +0.000 N 
ATOM      6  C   UNL     1     -10.921   8.442 -11.280  0.00  0.00    +0.000 A 
ATOM      7  C   UNL     1     -11.562   8.116 -10.120  0.00  0.00    +0.000 A 
ATOM      8  S   UNL     1     -10.918   6.730  -9.388  0.00  0.00    +0.000 S 
ATOM      9  C   UNL     1      -9.741   6.544 -10.637  0.00  0.00    +0.000 A 
ATOM     10  C   UNL     1      -8.751   5.562 -10.773  0.00  0.00    +0.000 A 
ATOM     11  C   UNL     1      -7.923   5.644 -11.890  0.00  0.00    +0.000 A 
ATOM     12  C   UNL     1      -8.117   6.674 -12.795  0.00  0.00    +0.000 A 
ATOM     13  N   UNL     1      -9.059   7.634 -12.696  0.00  0.00    +0.000 NA
ATOM     14  C   UNL     1      -9.864   7.549 -11.601  0.00  0.00    +0.000 A 
ATOM     15  C   UNL     1     -12.666   8.876  -9.596  0.00  0.00    +0.000 A 
ATOM     16  O   UNL     1     -13.285   8.575  -8.577  0.00  0.00    +0.000 OA
ATOM     17  H   UNL     1     -10.872   9.765 -12.868  0.00  0.00    +0.000 HD
ENDBRANCH   1   2
BRANCH   1  18
ATOM     18  C   UNL     1     -15.458  10.237 -10.363  0.00  0.00    +0.000 C 
BRANCH  18  29
ATOM     19  C   UNL     1     -17.830  14.882 -15.176  0.00  0.00    +0.000 A 
ATOM     20  C   UNL     1     -16.756  15.756 -15.375  0.00  0.00    +0.000 A 
ATOM     21  C   UNL     1     -15.727  15.834 -14.438  0.00  0.00    +0.000 A 
ATOM     22  C   UNL     1     -15.766  15.045 -13.292  0.00  0.00    +0.000 A 
ATOM     23  C   UNL     1     -16.832  14.159 -13.068  0.00  0.00    +0.000 A 
ATOM     24  C   UNL     1     -17.864  14.065 -14.026  0.00  0.00    +0.000 A 
ATOM     25  C   UNL     1     -19.033  13.132 -13.798  0.00  0.00    +0.000 C 
ATOM     26  C   UNL     1     -18.701  11.984 -12.849  0.00  0.00    +0.000 C 
ATOM     27  C   UNL     1     -18.119  12.529 -11.543  0.00  0.00    +0.000 C 
ATOM     28  C   UNL     1     -17.620  11.432 -10.607  0.00  0.00    +0.000 C 
ATOM     29  N   UNL     1     -16.328  11.078 -11.182  0.00  0.00    +0.000 NA
ATOM     30  C   UNL     1     -15.708  12.299 -11.711  0.00  0.00    +0.000 C 
ATOM     31  C   UNL     1     -16.843  13.340 -11.800  0.00  0.00    +0.000 C 
BRANCH  19  33
ATOM     32  C   UNL     1     -19.699  15.906 -16.252  0.00  0.00    +0.000 C 
ATOM     33  O   UNL     1     -18.894  14.756 -16.032  0.00  0.00    +0.000 OA
ENDBRANCH  19  33
ENDBRANCH  18  29
ENDBRANCH   1  18
TORSDOF 4
ENDMDL
MODEL 2
REMARK VINA RESULT:      -6.5      4.283      7.177
REMARK  Name = 
REMARK  5 active torsions:
REMARK  status: ('A' for Active; 'I' for Inactive)
REMARK    1  A    between atoms: C_1  and  O_2
REMARK    2  A    between atoms: O_2  and  C_3
REMARK    3  A    between atoms: N_13  and  C_14
REMARK    4  A    between atoms: C_14  and  C_15
REMARK    5  A    between atoms: C_15  and  N_16
REMARK                            x       y       z     vdW  Elec       q    Type
REMARK                         _______ _______ _______ _____ _____    ______ ____
ROOT
ATOM      1  C   UNL     1     -16.047  15.242 -14.895  0.00  0.00    +0.000 C 
ENDROOT
BRANCH   1   2
ATOM      2  N   UNL     1     -14.731  14.815 -15.364  0.00  0.00    +0.000 N 
ATOM      3  C   UNL     1     -13.707  15.767 -15.363  0.00  0.00    +0.000 A 
ATOM      4  O   UNL     1     -13.859  16.927 -14.981  0.00  0.00    +0.000 OA
ATOM      5  N   UNL     1     -12.480  15.361 -15.821  0.00  0.00    +0.000 N 
ATOM      6  C   UNL     1     -12.254  14.091 -16.299  0.00  0.00    +0.000 A 
ATOM      7  C   UNL     1     -13.283  13.195 -16.332  0.00  0.00    +0.000 A 
ATOM      8  S   UNL     1     -12.819  11.691 -16.960  0.00  0.00    +0.000 S 
ATOM      9  C   UNL     1     -11.195  12.226 -17.200  0.00  0.00    +0.000 A 
ATOM     10  C   UNL     1     -10.104  11.517 -17.719  0.00  0.00    +0.000 A 
ATOM     11  C   UNL     1      -8.890  12.193 -17.806  0.00  0.00    +0.000 A 
ATOM     12  C   UNL     1      -8.823  13.510 -17.383  0.00  0.00    +0.000 A 
ATOM     13  N   UNL     1      -9.851  14.222 -16.879  0.00  0.00    +0.000 NA
ATOM     14  C   UNL     1     -11.035  13.554 -16.795  0.00  0.00    +0.000 A 
ATOM     15  C   UNL     1     -14.613  13.514 -15.880  0.00  0.00    +0.000 A 
ATOM     16  O   UNL     1     -15.563  12.737 -15.941  0.00  0.00    +0.000 OA
ATOM     17  H   UNL     1     -11.715  16.028 -15.821  0.00  0.00    +0.000 HD
ENDBRANCH   1   2
BRANCH   1  18
ATOM     18  C   UNL     1     -16.083  15.388 -13.360  0.00  0.00    +0.000 C 
BRANCH  18  29
ATOM     19  C   UNL     1     -15.459   9.926  -8.871  0.00  0.00    +0.000 A 
ATOM     20  C   UNL     1     -14.083   9.690  -8.799  0.00  0.00    +0.000 A 
ATOM     21  C   UNL     1     -13.230  10.184  -9.785  0.00  0.00    +0.000 A 
ATOM     22  C   UNL     1     -13.746  10.909 -10.854  0.00  0.00    +0.000 A 
ATOM     23  C   UNL     1     -15.123  11.161 -10.950  0.00  0.00    +0.000 A 
ATOM     24  C   UNL     1     -15.985  10.679  -9.942  0.00  0.00    +0.000 A 
ATOM     25  C   UNL     1     -17.477  10.920 -10.034  0.00  0.00    +0.000 C 
ATOM     26  C   UNL     1     -17.831  12.130 -10.892  0.00  0.00    +0.000 C 
ATOM     27  C   UNL     1     -17.166  12.018 -12.266  0.00  0.00    +0.000 C 
ATOM     28  C   UNL     1     -17.350  13.267 -13.124  0.00  0.00    +0.000 C 
ATOM     29  N   UNL     1     -16.356  14.184 -12.579  0.00  0.00    +0.000 NA
ATOM     30  C   UNL     1     -15.176  13.404 -12.188  0.00  0.00    +0.000 C 
ATOM     31  C   UNL     1     -15.641  11.934 -12.139  0.00  0.00    +0.000 C 
BRANCH  19  33
ATOM     32  C   UNL     1     -16.537   8.053  -7.855  0.00  0.00    +0.000 C 
ATOM     33  O   UNL     1     -16.373   9.461  -7.960  0.00  0.00    +0.000 OA
ENDBRANCH  19  33
ENDBRANCH  18  29
ENDBRANCH   1  18
TORSDOF 4
ENDMDL
MODEL 3
REMARK VINA RESULT:      -6.4      3.603      9.739
REMARK  Name = 
REMARK  5 active torsions:
REMARK  status: ('A' for Active; 'I' for Inactive)
REMARK    1  A    between atoms: C_1  and  O_2
REMARK    2  A    between atoms: O_2  and  C_3
REMARK    3  A    between atoms: N_13  and  C_14
REMARK    4  A    between atoms: C_14  and  C_15
REMARK    5  A    between atoms: C_15  and  N_16
REMARK                            x       y       z     vdW  Elec       q    Type
REMARK                         _______ _______ _______ _____ _____    ______ ____
ROOT
ATOM      1  C   UNL     1     -14.579  12.146 -12.504  0.00  0.00    +0.000 C 
ENDROOT
BRANCH   1   2
ATOM      2  N   UNL     1     -14.327  13.356 -13.283  0.00  0.00    +0.000 N 
ATOM      3  C   UNL     1     -15.044  14.505 -12.939  0.00  0.00    +0.000 A 
ATOM      4  O   UNL     1     -15.858  14.547 -12.018  0.00  0.00    +0.000 OA
ATOM      5  N   UNL     1     -14.811  15.630 -13.688  0.00  0.00    +0.000 N 
ATOM      6  C   UNL     1     -13.944  15.640 -14.757  0.00  0.00    +0.000 A 
ATOM      7  C   UNL     1     -13.292  14.491 -15.099  0.00  0.00    +0.000 A 
ATOM      8  S   UNL     1     -12.279  14.693 -16.442  0.00  0.00    +0.000 S 
ATOM      9  C   UNL     1     -12.703  16.360 -16.588  0.00  0.00    +0.000 A 
ATOM     10  C   UNL     1     -12.256  17.302 -17.522  0.00  0.00    +0.000 A 
ATOM     11  C   UNL     1     -12.764  18.594 -17.414  0.00  0.00    +0.000 A 
ATOM     12  C   UNL     1     -13.670  18.878 -16.407  0.00  0.00    +0.000 A 
ATOM     13  N   UNL     1     -14.122  17.997 -15.492  0.00  0.00    +0.000 NA
ATOM     14  C   UNL     1     -13.620  16.735 -15.602  0.00  0.00    +0.000 A 
ATOM     15  C   UNL     1     -13.463  13.252 -14.386  0.00  0.00    +0.000 A 
ATOM     16  O   UNL     1     -12.919  12.196 -14.704  0.00  0.00    +0.000 OA
ATOM     17  H   UNL     1     -15.310  16.483 -13.454  0.00  0.00    +0.000 HD
ENDBRANCH   1   2
BRANCH   1  18
ATOM     18  C   UNL     1     -13.624  12.039 -11.297  0.00  0.00    +0.000 C 
BRANCH  18  29
ATOM     19  C   UNL     1      -9.456   6.334 -10.625  0.00  0.00    +0.000 A 
ATOM     20  C   UNL     1      -8.559   6.431 -11.693  0.00  0.00    +0.000 A 
ATOM     21  C   UNL     1      -8.850   7.244 -12.787  0.00  0.00    +0.000 A 
ATOM     22  C   UNL     1     -10.041   7.962 -12.825  0.00  0.00    +0.000 A 
ATOM     23  C   UNL     1     -10.958   7.883 -11.766  0.00  0.00    +0.000 A 
ATOM     24  C   UNL     1     -10.656   7.076 -10.649  0.00  0.00    +0.000 A 
ATOM     25  C   UNL     1     -11.638   6.959  -9.503  0.00  0.00    +0.000 C 
ATOM     26  C   UNL     1     -12.584   8.153  -9.408  0.00  0.00    +0.000 C 
ATOM     27  C   UNL     1     -13.273   8.391 -10.753  0.00  0.00    +0.000 C 
ATOM     28  C   UNL     1     -14.117   9.663 -10.776  0.00  0.00    +0.000 C 
ATOM     29  N   UNL     1     -13.120  10.710 -10.959  0.00  0.00    +0.000 NA
ATOM     30  C   UNL     1     -12.065  10.193 -11.841  0.00  0.00    +0.000 C 
ATOM     31  C   UNL     1     -12.248   8.662 -11.861  0.00  0.00    +0.000 C 
BRANCH  19  33
ATOM     32  C   UNL     1      -9.071   4.152  -9.736  0.00  0.00    +0.000 C 
ATOM     33  O   UNL     1      -9.262   5.544  -9.521  0.00  0.00    +0.000 OA
ENDBRANCH  19  33
ENDBRANCH  18  29
ENDBRANCH   1  18
TORSDOF 4
ENDMDL
