MODEL 1
REMARK VINA RESULT:      -6.2      0.000      0.000
REMARK  Name = 
REMARK  6 active torsions:
REMARK  status: ('A' for Active; 'I' for Inactive)
REMARK    1  A    between atoms: C_1  and  O_2
REMARK    2  A    between atoms: O_2  and  C_3
REMARK    3  A    between atoms: C_8  and  C_9
REMARK    4  A    between atoms: C_9  and  C_11
REMARK    5  A    between atoms: C_15  and  O_16
REMARK    6  A    between atoms: O_16  and  C_17
REMARK                            x       y       z     vdW  Elec       q    Type
REMARK                         _______ _______ _______ _____ _____    ______ ____
ROOT
ATOM      1  C   UNL     1      48.245  88.649  64.502  0.00  0.00    +0.000 C 
ATOM      2  O   UNL     1      47.410  89.374  63.968  0.00  0.00    +0.000 OA
ENDROOT
BRANCH   1   8
ATOM      3  C   UNL     1      47.858  82.585  64.063  0.00  0.00    +0.000 A 
ATOM      4  C   UNL     1      47.757  82.726  65.448  0.00  0.00    +0.000 A 
ATOM      5  C   UNL     1      47.805  83.981  66.066  0.00  0.00    +0.000 A 
ATOM      6  C   UNL     1      47.952  85.096  65.237  0.00  0.00    +0.000 A 
ATOM      7  N   UNL     1      48.048  86.429  65.552  0.00  0.00    +0.000 N 
ATOM      8  C   UNL     1      48.146  87.204  64.414  0.00  0.00    +0.000 A 
ATOM      9  C   UNL     1      48.191  86.318  63.348  0.00  0.00    +0.000 A 
ATOM     10  C   UNL     1      48.050  84.995  63.853  0.00  0.00    +0.000 A 
ATOM     11  C   UNL     1      48.007  83.717  63.254  0.00  0.00    +0.000 A 
ATOM     12  H   UNL     1      48.042  86.809  66.490  0.00  0.00    +0.000 HD
BRANCH   3  14
ATOM     13  C   UNL     1      47.975  80.267  64.592  0.00  0.00    +0.000 C 
ATOM     14  O   UNL     1      47.796  81.289  63.620  0.00  0.00    +0.000 OA
ENDBRANCH   3  14
ENDBRANCH   1   8
BRANCH   1  15
ATOM     15  C   UNL     1      49.386  89.180  65.225  0.00  0.00    +0.000 A 
ATOM     16  C   UNL     1      50.684  89.330  64.758  0.00  0.00    +0.000 A 
ATOM     17  C   UNL     1      51.484  89.862  65.802  0.00  0.00    +0.000 A 
ATOM     18  C   UNL     1      52.838  90.234  65.911  0.00  0.00    +0.000 A 
ATOM     19  C   UNL     1      53.330  90.736  67.124  0.00  0.00    +0.000 A 
ATOM     20  C   UNL     1      52.477  90.862  68.221  0.00  0.00    +0.000 A 
ATOM     21  C   UNL     1      51.126  90.496  68.138  0.00  0.00    +0.000 A 
ATOM     22  C   UNL     1      50.661  90.002  66.914  0.00  0.00    +0.000 A 
ATOM     23  N   UNL     1      49.410  89.563  66.549  0.00  0.00    +0.000 N 
ATOM     24  H   UNL     1      48.622  89.511  67.179  0.00  0.00    +0.000 HD
BRANCH  19  25
ATOM     25  O   UNL     1      54.659  91.062  67.101  0.00  0.00    +0.000 OA
ATOM     26  C   UNL     1      55.475  90.523  68.132  0.00  0.00    +0.000 C 
ENDBRANCH  19  25
ENDBRANCH   1  15
TORSDOF 4
ENDMDL
MODEL 2
REMARK VINA RESULT:      -5.9     12.965     17.242
REMARK  Name = 
REMARK  6 active torsions:
REMARK  status: ('A' for Active; 'I' for Inactive)
REMARK    1  A    between atoms: C_1  and  O_2
REMARK    2  A    between atoms: O_2  and  C_3
REMARK    3  A    between atoms: C_8  and  C_9
REMARK    4  A    between atoms: C_9  and  C_11
REMARK    5  A    between atoms: C_15  and  O_16
REMARK    6  A    between atoms: O_16  and  C_17
REMARK                            x       y       z     vdW  Elec       q    Type
REMARK                         _______ _______ _______ _____ _____    ______ ____
ROOT
ATOM      1  C   UNL     1      42.793  74.293  72.628  0.00  0.00    +0.000 C 
ATOM      2  O   UNL     1      43.702  73.496  72.410  0.00  0.00    +0.000 OA
ENDROOT
BRANCH   1   8
ATOM      3  C   UNL     1      38.971  73.494  77.305  0.00  0.00    +0.000 A 
ATOM      4  C   UNL     1      40.144  73.774  78.007  0.00  0.00    +0.000 A 
ATOM      5  C   UNL     1      41.353  74.030  77.350  0.00  0.00    +0.000 A 
ATOM      6  C   UNL     1      41.339  74.000  75.953  0.00  0.00    +0.000 A 
ATOM      7  N   UNL     1      42.357  74.190  75.052  0.00  0.00    +0.000 N 
ATOM      8  C   UNL     1      41.894  74.110  73.754  0.00  0.00    +0.000 A 
ATOM      9  C   UNL     1      40.550  73.782  73.843  0.00  0.00    +0.000 A 
ATOM     10  C   UNL     1      40.188  73.730  75.219  0.00  0.00    +0.000 A 
ATOM     11  C   UNL     1      38.983  73.467  75.906  0.00  0.00    +0.000 A 
ATOM     12  H   UNL     1      43.323  74.373  75.292  0.00  0.00    +0.000 HD
BRANCH   3  14
ATOM     13  C   UNL     1      36.713  74.034  77.831  0.00  0.00    +0.000 C 
ATOM     14  O   UNL     1      37.878  73.263  78.099  0.00  0.00    +0.000 OA
ENDBRANCH   3  14
ENDBRANCH   1   8
BRANCH   1  15
ATOM     15  C   UNL     1      42.573  75.467  71.805  0.00  0.00    +0.000 A 
ATOM     16  C   UNL     1      41.558  75.669  70.881  0.00  0.00    +0.000 A 
ATOM     17  C   UNL     1      41.734  76.944  70.283  0.00  0.00    +0.000 A 
ATOM     18  C   UNL     1      41.026  77.683  69.316  0.00  0.00    +0.000 A 
ATOM     19  C   UNL     1      41.484  78.950  68.930  0.00  0.00    +0.000 A 
ATOM     20  C   UNL     1      42.644  79.474  69.503  0.00  0.00    +0.000 A 
ATOM     21  C   UNL     1      43.368  78.756  70.465  0.00  0.00    +0.000 A 
ATOM     22  C   UNL     1      42.885  77.496  70.835  0.00  0.00    +0.000 A 
ATOM     23  N   UNL     1      43.384  76.579  71.730  0.00  0.00    +0.000 N 
ATOM     24  H   UNL     1      44.244  76.702  72.245  0.00  0.00    +0.000 HD
BRANCH  19  25
ATOM     25  O   UNL     1      40.708  79.566  67.985  0.00  0.00    +0.000 OA
ATOM     26  C   UNL     1      39.557  80.260  68.448  0.00  0.00    +0.000 C 
ENDBRANCH  19  25
ENDBRANCH   1  15
TORSDOF 4
ENDMDL
MODEL 3
REMARK VINA RESULT:      -5.7     13.835     18.224
REMARK  Name = 
REMARK  6 active torsions:
REMARK  status: ('A' for Active; 'I' for Inactive)
REMARK    1  A    between atoms: C_1  and  O_2
REMARK    2  A    between atoms: O_2  and  C_3
REMARK    3  A    between atoms: C_8  and  C_9
REMARK    4  A    between atoms: C_9  and  C_11
REMARK    5  A    between atoms: C_15  and  O_16
REMARK    6  A    between atoms: O_16  and  C_17
REMARK                            x       y       z     vdW  Elec       q    Type
REMARK                         _______ _______ _______ _____ _____    ______ ____
ROOT
ATOM      1  C   UNL     1      42.981  73.328  73.621  0.00  0.00    +0.000 C 
ATOM      2  O   UNL     1      43.830  72.481  73.359  0.00  0.00    +0.000 OA
ENDROOT
BRANCH   1   8
ATOM      3  C   UNL     1      39.903  73.088  78.873  0.00  0.00    +0.000 A 
ATOM      4  C   UNL     1      40.286  74.430  78.888  0.00  0.00    +0.000 A 
ATOM      5  C   UNL     1      41.051  74.989  77.859  0.00  0.00    +0.000 A 
ATOM      6  C   UNL     1      41.414  74.147  76.803  0.00  0.00    +0.000 A 
ATOM      7  N   UNL     1      42.164  74.404  75.682  0.00  0.00    +0.000 N 
ATOM      8  C   UNL     1      42.247  73.289  74.873  0.00  0.00    +0.000 A 
ATOM      9  C   UNL     1      41.589  72.273  75.548  0.00  0.00    +0.000 A 
ATOM     10  C   UNL     1      41.046  72.807  76.750  0.00  0.00    +0.000 A 
ATOM     11  C   UNL     1      40.281  72.264  77.806  0.00  0.00    +0.000 A 
ATOM     12  H   UNL     1      42.599  75.291  75.461  0.00  0.00    +0.000 HD
BRANCH   3  14
ATOM     13  C   UNL     1      37.772  72.999  79.929  0.00  0.00    +0.000 C 
ATOM     14  O   UNL     1      39.161  72.699  79.958  0.00  0.00    +0.000 OA
ENDBRANCH   3  14
ENDBRANCH   1   8
BRANCH   1  15
ATOM     15  C   UNL     1      42.675  74.426  72.723  0.00  0.00    +0.000 A 
ATOM     16  C   UNL     1      41.563  74.559  71.904  0.00  0.00    +0.000 A 
ATOM     17  C   UNL     1      41.676  75.772  71.175  0.00  0.00    +0.000 A 
ATOM     18  C   UNL     1      40.866  76.431  70.231  0.00  0.00    +0.000 A 
ATOM     19  C   UNL     1      41.285  77.650  69.680  0.00  0.00    +0.000 A 
ATOM     20  C   UNL     1      42.505  78.206  70.068  0.00  0.00    +0.000 A 
ATOM     21  C   UNL     1      43.330  77.567  71.005  0.00  0.00    +0.000 A 
ATOM     22  C   UNL     1      42.885  76.354  71.541  0.00  0.00    +0.000 A 
ATOM     23  N   UNL     1      43.478  75.514  72.455  0.00  0.00    +0.000 N 
ATOM     24  H   UNL     1      44.392  75.670  72.857  0.00  0.00    +0.000 HD
BRANCH  19  25
ATOM     25  O   UNL     1      40.410  78.190  68.776  0.00  0.00    +0.000 OA
ATOM     26  C   UNL     1      40.773  79.432  68.188  0.00  0.00    +0.000 C 
ENDBRANCH  19  25
ENDBRANCH   1  15
TORSDOF 4
ENDMDL
