MODEL 1
REMARK VINA RESULT:      -7.0      0.000      0.000
REMARK  Name = 
REMARK  10 active torsions:
REMARK  status: ('A' for Active; 'I' for Inactive)
REMARK    1  A    between atoms: C_1  and  C_2
REMARK    2  A    between atoms: C_3  and  C_4
REMARK    3  A    between atoms: C_7  and  C_8
REMARK    4  A    between atoms: C_9  and  O_10
REMARK    5  A    between atoms: C_13  and  C_14
REMARK    6  A    between atoms: C_13  and  C_15
REMARK    7  A    between atoms: C_15  and  O_16
REMARK    8  A    between atoms: O_16  and  C_17
REMARK    9  A    between atoms: C_20  and  C_21
REMARK   10  A    between atoms: C_21  and  C_22
REMARK                            x       y       z     vdW  Elec       q    Type
REMARK                         _______ _______ _______ _____ _____    ______ ____
ROOT
ATOM      1  C   UNL     1      41.726  73.840  73.391  0.00  0.00    +0.000 C 
ENDROOT
BRANCH   1  13
ATOM      2  C   UNL     1      39.482  74.345  79.602  0.00  0.00    +0.000 C 
ATOM      3  C   UNL     1      39.314  74.342  78.103  0.00  0.00    +0.000 A 
ATOM      4  C   UNL     1      40.094  73.496  77.288  0.00  0.00    +0.000 A 
ATOM      5  C   UNL     1      41.114  72.562  77.894  0.00  0.00    +0.000 C 
ATOM      6  C   UNL     1      39.878  73.488  75.895  0.00  0.00    +0.000 A 
ATOM      7  C   UNL     1      38.937  74.345  75.295  0.00  0.00    +0.000 A 
ATOM      8  C   UNL     1      38.225  75.266  76.098  0.00  0.00    +0.000 A 
ATOM      9  C   UNL     1      37.266  76.254  75.481  0.00  0.00    +0.000 C 
ATOM     10  C   UNL     1      38.401  75.218  77.493  0.00  0.00    +0.000 A 
ATOM     11  C   UNL     1      38.726  74.299  73.803  0.00  0.00    +0.000 C 
ATOM     12  C   UNL     1      39.300  73.032  73.193  0.00  0.00    +0.000 C 
ATOM     13  C   UNL     1      40.695  72.738  73.756  0.00  0.00    +0.000 C 
ATOM     14  C   UNL     1      41.162  71.378  73.211  0.00  0.00    +0.000 C 
ATOM     15  O   UNL     1      40.623  72.580  75.183  0.00  0.00    +0.000 OA
BRANCH  10  16
ATOM     16  O   UNL     1      37.676  76.039  78.318  0.00  0.00    +0.000 OA
ATOM     17  H   UNL     1      37.627  76.920  77.916  0.00  0.00    +0.000 HD
ENDBRANCH  10  16
ENDBRANCH   1  13
BRANCH   1  18
ATOM     18  O   UNL     1      41.773  74.026  71.971  0.00  0.00    +0.000 OA
BRANCH  18  19
ATOM     19  C   UNL     1      42.096  75.271  71.510  0.00  0.00    +0.000 A 
ATOM     20  C   UNL     1      41.141  75.847  70.671  0.00  0.00    +0.000 A 
ATOM     21  C   UNL     1      41.340  77.119  70.129  0.00  0.00    +0.000 A 
ATOM     22  C   UNL     1      42.503  77.839  70.421  0.00  0.00    +0.000 A 
ATOM     23  C   UNL     1      43.464  77.253  71.256  0.00  0.00    +0.000 A 
ATOM     24  C   UNL     1      43.262  75.978  71.798  0.00  0.00    +0.000 A 
BRANCH  22  25
ATOM     25  C   UNL     1      42.720  79.223  69.851  0.00  0.00    +0.000 C 
BRANCH  25  26
ATOM     26  C   UNL     1      42.580  79.355  68.330  0.00  0.00    +0.000 C 
ATOM     27  S   UNL     1      43.394  78.029  67.378  0.00  0.00    +0.000 S 
ATOM     28  C   UNL     1      41.917  77.566  66.574  0.00  0.00    +0.000 C 
ATOM     29  O   UNL     1      41.836  76.655  65.770  0.00  0.00    +0.000 OA
ATOM     30  N   UNL     1      40.896  78.367  66.958  0.00  0.00    +0.000 N 
ATOM     31  C   UNL     1      41.136  79.344  67.876  0.00  0.00    +0.000 C 
ATOM     32  O   UNL     1      40.275  80.121  68.269  0.00  0.00    +0.000 OA
ATOM     33  H   UNL     1      39.976  78.231  66.574  0.00  0.00    +0.000 HD
ENDBRANCH  25  26
ENDBRANCH  22  25
ENDBRANCH  18  19
ENDBRANCH   1  18
TORSDOF 6
ENDMDL
MODEL 2
REMARK VINA RESULT:      -6.7      1.314      1.849
REMARK  Name = 
REMARK  10 active torsions:
REMARK  status: ('A' for Active; 'I' for Inactive)
REMARK    1  A    between atoms: C_1  and  C_2
REMARK    2  A    between atoms: C_3  and  C_4
REMARK    3  A    between atoms: C_7  and  C_8
REMARK    4  A    between atoms: C_9  and  O_10
REMARK    5  A    between atoms: C_13  and  C_14
REMARK    6  A    between atoms: C_13  and  C_15
REMARK    7  A    between atoms: C_15  and  O_16
REMARK    8  A    between atoms: O_16  and  C_17
REMARK    9  A    between atoms: C_20  and  C_21
REMARK   10  A    between atoms: C_21  and  C_22
REMARK                            x       y       z     vdW  Elec       q    Type
REMARK                         _______ _______ _______ _____ _____    ______ ____
ROOT
ATOM      1  C   UNL     1      42.274  73.611  73.971  0.00  0.00    +0.000 C 
ENDROOT
BRANCH   1  13
ATOM      2  C   UNL     1      39.167  74.199  79.792  0.00  0.00    +0.000 C 
ATOM      3  C   UNL     1      39.220  74.203  78.285  0.00  0.00    +0.000 A 
ATOM      4  C   UNL     1      40.078  73.328  77.587  0.00  0.00    +0.000 A 
ATOM      5  C   UNL     1      40.962  72.355  78.329  0.00  0.00    +0.000 C 
ATOM      6  C   UNL     1      40.068  73.329  76.177  0.00  0.00    +0.000 A 
ATOM      7  C   UNL     1      39.257  74.222  75.451  0.00  0.00    +0.000 A 
ATOM      8  C   UNL     1      38.471  75.169  76.147  0.00  0.00    +0.000 A 
ATOM      9  C   UNL     1      37.651  76.192  75.403  0.00  0.00    +0.000 C 
ATOM     10  C   UNL     1      38.440  75.114  77.553  0.00  0.00    +0.000 A 
ATOM     11  C   UNL     1      39.265  74.184  73.945  0.00  0.00    +0.000 C 
ATOM     12  C   UNL     1      39.873  72.897  73.417  0.00  0.00    +0.000 C 
ATOM     13  C   UNL     1      41.159  72.549  74.175  0.00  0.00    +0.000 C 
ATOM     14  C   UNL     1      41.650  71.172  73.696  0.00  0.00    +0.000 C 
ATOM     15  O   UNL     1      40.874  72.393  75.575  0.00  0.00    +0.000 OA
BRANCH  10  16
ATOM     16  O   UNL     1      37.633  75.961  78.268  0.00  0.00    +0.000 OA
ATOM     17  H   UNL     1      37.961  76.867  78.160  0.00  0.00    +0.000 HD
ENDBRANCH  10  16
ENDBRANCH   1  13
BRANCH   1  18
ATOM     18  O   UNL     1      43.003  73.342  72.768  0.00  0.00    +0.000 OA
BRANCH  18  19
ATOM     19  C   UNL     1      43.029  74.321  71.816  0.00  0.00    +0.000 A 
ATOM     20  C   UNL     1      43.205  75.613  72.314  0.00  0.00    +0.000 A 
ATOM     21  C   UNL     1      43.253  76.711  71.452  0.00  0.00    +0.000 A 
ATOM     22  C   UNL     1      43.127  76.532  70.071  0.00  0.00    +0.000 A 
ATOM     23  C   UNL     1      42.941  75.235  69.575  0.00  0.00    +0.000 A 
ATOM     24  C   UNL     1      42.893  74.136  70.441  0.00  0.00    +0.000 A 
BRANCH  22  25
ATOM     25  C   UNL     1      43.194  77.714  69.128  0.00  0.00    +0.000 C 
BRANCH  25  26
ATOM     26  C   UNL     1      42.010  77.878  68.168  0.00  0.00    +0.000 C 
ATOM     27  S   UNL     1      40.382  77.982  68.985  0.00  0.00    +0.000 S 
ATOM     28  C   UNL     1      40.017  79.532  68.275  0.00  0.00    +0.000 C 
ATOM     29  O   UNL     1      38.990  80.153  68.486  0.00  0.00    +0.000 OA
ATOM     30  N   UNL     1      41.019  79.928  67.457  0.00  0.00    +0.000 N 
ATOM     31  C   UNL     1      42.115  79.130  67.325  0.00  0.00    +0.000 C 
ATOM     32  O   UNL     1      43.060  79.406  66.597  0.00  0.00    +0.000 OA
ATOM     33  H   UNL     1      40.953  80.803  66.965  0.00  0.00    +0.000 HD
ENDBRANCH  25  26
ENDBRANCH  22  25
ENDBRANCH  18  19
ENDBRANCH   1  18
TORSDOF 6
ENDMDL
MODEL 3
REMARK VINA RESULT:      -6.3      1.209      1.275
REMARK  Name = 
REMARK  10 active torsions:
REMARK  status: ('A' for Active; 'I' for Inactive)
REMARK    1  A    between atoms: C_1  and  C_2
REMARK    2  A    between atoms: C_3  and  C_4
REMARK    3  A    between atoms: C_7  and  C_8
REMARK    4  A    between atoms: C_9  and  O_10
REMARK    5  A    between atoms: C_13  and  C_14
REMARK    6  A    between atoms: C_13  and  C_15
REMARK    7  A    between atoms: C_15  and  O_16
REMARK    8  A    between atoms: O_16  and  C_17
REMARK    9  A    between atoms: C_20  and  C_21
REMARK   10  A    between atoms: C_21  and  C_22
REMARK                            x       y       z     vdW  Elec       q    Type
REMARK                         _______ _______ _______ _____ _____    ______ ____
ROOT
ATOM      1  C   UNL     1      42.158  73.774  74.405  0.00  0.00    +0.000 C 
ENDROOT
BRANCH   1  13
ATOM      2  C   UNL     1      38.925  74.331  80.159  0.00  0.00    +0.000 C 
ATOM      3  C   UNL     1      39.002  74.298  78.653  0.00  0.00    +0.000 A 
ATOM      4  C   UNL     1      39.922  73.457  77.992  0.00  0.00    +0.000 A 
ATOM      5  C   UNL     1      40.849  72.558  78.775  0.00  0.00    +0.000 C 
ATOM      6  C   UNL     1      39.935  73.420  76.583  0.00  0.00    +0.000 A 
ATOM      7  C   UNL     1      39.086  74.244  75.821  0.00  0.00    +0.000 A 
ATOM      8  C   UNL     1      38.234  75.161  76.479  0.00  0.00    +0.000 A 
ATOM      9  C   UNL     1      37.369  76.115  75.694  0.00  0.00    +0.000 C 
ATOM     10  C   UNL     1      38.183  75.141  77.884  0.00  0.00    +0.000 A 
ATOM     11  C   UNL     1      39.122  74.167  74.316  0.00  0.00    +0.000 C 
ATOM     12  C   UNL     1      39.813  72.904  73.834  0.00  0.00    +0.000 C 
ATOM     13  C   UNL     1      41.105  72.653  74.620  0.00  0.00    +0.000 C 
ATOM     14  C   UNL     1      41.683  71.296  74.187  0.00  0.00    +0.000 C 
ATOM     15  O   UNL     1      40.805  72.518  76.020  0.00  0.00    +0.000 OA
BRANCH  10  16
ATOM     16  O   UNL     1      37.316  75.958  78.564  0.00  0.00    +0.000 OA
ATOM     17  H   UNL     1      37.827  76.521  79.165  0.00  0.00    +0.000 HD
ENDBRANCH  10  16
ENDBRANCH   1  13
BRANCH   1  18
ATOM     18  O   UNL     1      42.799  73.615  73.133  0.00  0.00    +0.000 OA
BRANCH  18  19
ATOM     19  C   UNL     1      42.736  74.665  72.262  0.00  0.00    +0.000 A 
ATOM     20  C   UNL     1      41.477  74.881  71.699  0.00  0.00    +0.000 A 
ATOM     21  C   UNL     1      41.267  75.922  70.793  0.00  0.00    +0.000 A 
ATOM     22  C   UNL     1      42.320  76.771  70.435  0.00  0.00    +0.000 A 
ATOM     23  C   UNL     1      43.585  76.546  70.995  0.00  0.00    +0.000 A 
ATOM     24  C   UNL     1      43.792  75.501  71.903  0.00  0.00    +0.000 A 
BRANCH  22  25
ATOM     25  C   UNL     1      42.099  77.912  69.467  0.00  0.00    +0.000 C 
BRANCH  25  26
ATOM     26  C   UNL     1      42.331  77.593  67.985  0.00  0.00    +0.000 C 
ATOM     27  S   UNL     1      41.153  76.394  67.276  0.00  0.00    +0.000 S 
ATOM     28  C   UNL     1      40.628  77.499  66.032  0.00  0.00    +0.000 C 
ATOM     29  O   UNL     1      39.776  77.235  65.203  0.00  0.00    +0.000 OA
ATOM     30  N   UNL     1      41.309  78.665  66.115  0.00  0.00    +0.000 N 
ATOM     31  C   UNL     1      42.232  78.819  67.104  0.00  0.00    +0.000 C 
ATOM     32  O   UNL     1      42.901  79.835  67.243  0.00  0.00    +0.000 OA
ATOM     33  H   UNL     1      41.125  79.404  65.457  0.00  0.00    +0.000 HD
ENDBRANCH  25  26
ENDBRANCH  22  25
ENDBRANCH  18  19
ENDBRANCH   1  18
TORSDOF 6
ENDMDL
