MODEL 1
REMARK VINA RESULT:      -5.5      0.000      0.000
REMARK  Name = 
REMARK  4 active torsions:
REMARK  status: ('A' for Active; 'I' for Inactive)
REMARK    1  A    between atoms: C_1  and  C_2
REMARK    2  A    between atoms: C_2  and  C_3
REMARK    3  A    between atoms: N_5  and  C_6
REMARK    4  A    between atoms: C_6  and  C_7
REMARK                            x       y       z     vdW  Elec       q    Type
REMARK                         _______ _______ _______ _____ _____    ______ ____
ROOT
ATOM      1  C   UNL     1      47.109  89.239  64.026  0.00  0.00    +0.000 C 
ATOM      2  C   UNL     1      48.515  88.815  64.457  0.00  0.00    +0.000 C 
ATOM      3  N   UNL     1      48.782  89.330  65.781  0.00  0.00    +0.000 N 
ATOM      4  C   UNL     1      50.046  89.443  66.284  0.00  0.00    +0.000 C 
ATOM      5  O   UNL     1      50.235  89.513  67.492  0.00  0.00    +0.000 OA
ATOM      6  C   UNL     1      51.149  89.446  65.306  0.00  0.00    +0.000 A 
ATOM      7  C   UNL     1      52.478  89.520  65.734  0.00  0.00    +0.000 A 
ATOM      8  C   UNL     1      53.501  89.560  64.789  0.00  0.00    +0.000 A 
ATOM      9  C   UNL     1      53.189  89.543  63.430  0.00  0.00    +0.000 A 
ATOM     10  C   UNL     1      51.856  89.473  63.012  0.00  0.00    +0.000 A 
ATOM     11  C   UNL     1      50.819  89.386  63.947  0.00  0.00    +0.000 A 
ATOM     12  N   UNL     1      49.482  89.386  63.515  0.00  0.00    +0.000 N 
ATOM     13  H   UNL     1      48.056  89.267  66.481  0.00  0.00    +0.000 HD
ATOM     14  H   UNL     1      49.396  88.932  62.604  0.00  0.00    +0.000 HD
ENDROOT
BRANCH   2  15
ATOM     15  C   UNL     1      48.572  87.237  64.392  0.00  0.00    +0.000 C 
ATOM     16  O   UNL     1      48.577  86.627  63.321  0.00  0.00    +0.000 OA
ATOM     17  N   UNL     1      48.528  86.588  65.613  0.00  0.00    +0.000 N 
ATOM     18  H   UNL     1      48.825  87.124  66.423  0.00  0.00    +0.000 HD
BRANCH  17  19
ATOM     19  C   UNL     1      48.697  85.155  65.674  0.00  0.00    +0.000 C 
BRANCH  19  20
ATOM     20  C   UNL     1      50.097  84.793  66.065  0.00  0.00    +0.000 A 
ATOM     21  C   UNL     1      50.911  85.684  66.773  0.00  0.00    +0.000 A 
ATOM     22  C   UNL     1      52.209  85.314  67.112  0.00  0.00    +0.000 A 
ATOM     23  C   UNL     1      52.655  84.061  66.729  0.00  0.00    +0.000 A 
ATOM     24  N   UNL     1      51.902  83.175  66.044  0.00  0.00    +0.000 NA
ATOM     25  C   UNL     1      50.645  83.559  65.727  0.00  0.00    +0.000 A 
ENDBRANCH  19  20
ENDBRANCH  17  19
ENDBRANCH   2  15
TORSDOF 3
ENDMDL
MODEL 2
REMARK VINA RESULT:      -5.3      2.003      2.845
REMARK  Name = 
REMARK  4 active torsions:
REMARK  status: ('A' for Active; 'I' for Inactive)
REMARK    1  A    between atoms: C_1  and  C_2
REMARK    2  A    between atoms: C_2  and  C_3
REMARK    3  A    between atoms: N_5  and  C_6
REMARK    4  A    between atoms: C_6  and  C_7
REMARK                            x       y       z     vdW  Elec       q    Type
REMARK                         _______ _______ _______ _____ _____    ______ ____
ROOT
ATOM      1  C   UNL     1      47.499  88.548  64.333  0.00  0.00    +0.000 C 
ATOM      2  C   UNL     1      48.954  88.547  64.807  0.00  0.00    +0.000 C 
ATOM      3  N   UNL     1      49.066  89.359  65.997  0.00  0.00    +0.000 N 
ATOM      4  C   UNL     1      50.260  89.854  66.439  0.00  0.00    +0.000 C 
ATOM      5  O   UNL     1      50.401  90.201  67.605  0.00  0.00    +0.000 OA
ATOM      6  C   UNL     1      51.355  89.915  65.455  0.00  0.00    +0.000 A 
ATOM      7  C   UNL     1      52.622  90.371  65.830  0.00  0.00    +0.000 A 
ATOM      8  C   UNL     1      53.631  90.456  64.872  0.00  0.00    +0.000 A 
ATOM      9  C   UNL     1      53.363  90.101  63.550  0.00  0.00    +0.000 A 
ATOM     10  C   UNL     1      52.090  89.649  63.185  0.00  0.00    +0.000 A 
ATOM     11  C   UNL     1      51.079  89.515  64.142  0.00  0.00    +0.000 A 
ATOM     12  N   UNL     1      49.787  89.126  63.749  0.00  0.00    +0.000 N 
ATOM     13  H   UNL     1      48.358  89.273  66.712  0.00  0.00    +0.000 HD
ATOM     14  H   UNL     1      49.828  88.494  62.947  0.00  0.00    +0.000 HD
ENDROOT
BRANCH   2  15
ATOM     15  C   UNL     1      49.369  87.043  65.053  0.00  0.00    +0.000 C 
ATOM     16  O   UNL     1      50.490  86.619  64.765  0.00  0.00    +0.000 OA
ATOM     17  N   UNL     1      48.366  86.218  65.530  0.00  0.00    +0.000 N 
ATOM     18  H   UNL     1      47.598  86.671  66.016  0.00  0.00    +0.000 HD
BRANCH  17  19
ATOM     19  C   UNL     1      48.670  84.856  65.905  0.00  0.00    +0.000 C 
BRANCH  19  20
ATOM     20  C   UNL     1      47.981  83.881  64.999  0.00  0.00    +0.000 A 
ATOM     21  C   UNL     1      47.606  84.234  63.699  0.00  0.00    +0.000 A 
ATOM     22  C   UNL     1      46.961  83.303  62.889  0.00  0.00    +0.000 A 
ATOM     23  C   UNL     1      46.710  82.044  63.409  0.00  0.00    +0.000 A 
ATOM     24  N   UNL     1      47.056  81.667  64.658  0.00  0.00    +0.000 NA
ATOM     25  C   UNL     1      47.680  82.591  65.424  0.00  0.00    +0.000 A 
ENDBRANCH  19  20
ENDBRANCH  17  19
ENDBRANCH   2  15
TORSDOF 3
ENDMDL
MODEL 3
REMARK VINA RESULT:      -5.2     12.121     14.846
REMARK  Name = 
REMARK  4 active torsions:
REMARK  status: ('A' for Active; 'I' for Inactive)
REMARK    1  A    between atoms: C_1  and  C_2
REMARK    2  A    between atoms: C_2  and  C_3
REMARK    3  A    between atoms: N_5  and  C_6
REMARK    4  A    between atoms: C_6  and  C_7
REMARK                            x       y       z     vdW  Elec       q    Type
REMARK                         _______ _______ _______ _____ _____    ______ ____
ROOT
ATOM      1  C   UNL     1      42.926  79.398  66.559  0.00  0.00    +0.000 C 
ATOM      2  C   UNL     1      41.790  79.033  67.519  0.00  0.00    +0.000 C 
ATOM      3  N   UNL     1      41.137  77.833  67.047  0.00  0.00    +0.000 N 
ATOM      4  C   UNL     1      39.887  77.468  67.459  0.00  0.00    +0.000 C 
ATOM      5  O   UNL     1      39.510  76.307  67.360  0.00  0.00    +0.000 OA
ATOM      6  C   UNL     1      39.047  78.528  68.043  0.00  0.00    +0.000 A 
ATOM      7  C   UNL     1      37.768  78.236  68.526  0.00  0.00    +0.000 A 
ATOM      8  C   UNL     1      36.978  79.263  69.039  0.00  0.00    +0.000 A 
ATOM      9  C   UNL     1      37.464  80.570  69.051  0.00  0.00    +0.000 A 
ATOM     10  C   UNL     1      38.744  80.852  68.562  0.00  0.00    +0.000 A 
ATOM     11  C   UNL     1      39.568  79.827  68.085  0.00  0.00    +0.000 A 
ATOM     12  N   UNL     1      40.823  80.134  67.534  0.00  0.00    +0.000 N 
ATOM     13  H   UNL     1      41.707  77.070  66.711  0.00  0.00    +0.000 HD
ATOM     14  H   UNL     1      41.228  80.953  67.991  0.00  0.00    +0.000 HD
ENDROOT
BRANCH   2  15
ATOM     15  C   UNL     1      42.426  78.859  68.955  0.00  0.00    +0.000 C 
ATOM     16  O   UNL     1      42.660  79.822  69.687  0.00  0.00    +0.000 OA
ATOM     17  N   UNL     1      42.779  77.565  69.298  0.00  0.00    +0.000 N 
ATOM     18  H   UNL     1      42.299  76.818  68.806  0.00  0.00    +0.000 HD
BRANCH  17  19
ATOM     19  C   UNL     1      43.253  77.277  70.632  0.00  0.00    +0.000 C 
BRANCH  19  20
ATOM     20  C   UNL     1      42.461  76.171  71.259  0.00  0.00    +0.000 A 
ATOM     21  C   UNL     1      41.125  75.942  70.910  0.00  0.00    +0.000 A 
ATOM     22  C   UNL     1      40.419  74.909  71.520  0.00  0.00    +0.000 A 
ATOM     23  C   UNL     1      41.073  74.136  72.464  0.00  0.00    +0.000 A 
ATOM     24  N   UNL     1      42.359  74.327  72.828  0.00  0.00    +0.000 NA
ATOM     25  C   UNL     1      43.021  75.337  72.221  0.00  0.00    +0.000 A 
ENDBRANCH  19  20
ENDBRANCH  17  19
ENDBRANCH   2  15
TORSDOF 3
ENDMDL
