MODEL 1
REMARK VINA RESULT:    -5.662      0.000      0.000
REMARK INTER + INTRA:          -5.662
REMARK INTER:                  -5.662
REMARK INTRA:                   0.000
REMARK UNBOUND:                 0.000
REMARK  Name = 
REMARK  1 active torsions:
REMARK  status: ('A' for Active; 'I' for Inactive)
REMARK    1  A    between atoms: C_1  and  N_2
REMARK                            x       y       z     vdW  Elec       q    Type
REMARK                         _______ _______ _______ _____ _____    ______ ____
ROOT
ATOM      1  C   UNL     1      51.179  85.464  67.488  0.00  0.00    +0.000 C 
ATOM      2  N   UNL     1      51.493  86.835  67.061  0.00  0.00    +0.000 NA
ATOM      3  C   UNL     1      50.568  87.240  65.993  0.00  0.00    +0.000 C 
ATOM      4  C   UNL     1      50.714  86.295  64.812  0.00  0.00    +0.000 C 
ATOM      5  C   UNL     1      50.389  84.877  65.253  0.00  0.00    +0.000 C 
ATOM      6  C   UNL     1      49.367  84.198  64.664  0.00  0.00    +0.000 C 
ATOM      7  C   UNL     1      48.551  84.857  63.563  0.00  0.00    +0.000 A 
ATOM      8  C   UNL     1      47.470  84.139  62.939  0.00  0.00    +0.000 A 
ATOM      9  C   UNL     1      47.162  82.796  63.357  0.00  0.00    +0.000 A 
ATOM     10  C   UNL     1      46.081  82.077  62.734  0.00  0.00    +0.000 A 
ATOM     11  C   UNL     1      45.773  80.734  63.152  0.00  0.00    +0.000 A 
ATOM     12  C   UNL     1      48.859  86.200  63.144  0.00  0.00    +0.000 A 
ATOM     13  C   UNL     1      50.001  86.959  63.803  0.00  0.00    +0.000 C 
ATOM     14  C   UNL     1      50.731  86.369  64.788  0.00  0.00    +0.000 C 
ATOM     15  C   UNL     1      51.872  87.128  65.446  0.00  0.00    +0.000 A 
ATOM     16  C   UNL     1      52.180  88.471  65.028  0.00  0.00    +0.000 A 
ATOM     17  C   UNL     1      51.407  89.095  63.985  0.00  0.00    +0.000 A 
ATOM     18  C   UNL     1      51.715  90.438  63.567  0.00  0.00    +0.000 A 
ATOM     19  C   UNL     1      50.943  91.062  62.524  0.00  0.00    +0.000 A 
ATOM     20  C   UNL     1      49.042  82.781  65.105  0.00  0.00    +0.000 A 
ATOM     21  C   UNL     1      51.204  84.219  66.353  0.00  0.00    +0.000 C 
ATOM     22  C   UNL     1      52.874  86.887  66.559  0.00  0.00    +0.000 C 
ENDROOT
TORSDOF 0
ENDMDL
