MODEL 1
REMARK VINA RESULT:    -6.479      0.000      0.000
REMARK INTER + INTRA:          -6.858
REMARK INTER:                  -6.858
REMARK INTRA:                   0.000
REMARK UNBOUND:                 0.000
REMARK  Name = 
REMARK  2 active torsions:
REMARK  status: ('A' for Active; 'I' for Inactive)
REMARK    1  A    between atoms: C_8  and  O_9
REMARK    2  A    between atoms: C_15  and  O_16
REMARK                            x       y       z     vdW  Elec       q    Type
REMARK                         _______ _______ _______ _____ _____    ______ ____
ROOT
ATOM      1  O   UNL     1      47.730  89.740  64.754  0.00  0.00    +0.000 OA
ATOM      2  C   UNL     1      48.472  88.711  64.684  0.00  0.00    +0.000 C 
ATOM      3  O   UNL     1      47.976  87.516  64.098  0.00  0.00    +0.000 OA
ATOM      4  C   UNL     1      48.805  86.366  64.020  0.00  0.00    +0.000 C 
ATOM      5  C   UNL     1      49.217  85.944  65.421  0.00  0.00    +0.000 A 
ATOM      6  C   UNL     1      49.959  86.852  66.257  0.00  0.00    +0.000 A 
ATOM      7  C   UNL     1      50.310  88.159  65.767  0.00  0.00    +0.000 A 
ATOM      8  C   UNL     1      51.052  89.067  66.604  0.00  0.00    +0.000 A 
ATOM      9  C   UNL     1      51.444  88.667  67.931  0.00  0.00    +0.000 A 
ATOM     10  C   UNL     1      48.867  84.636  65.911  0.00  0.00    +0.000 A 
ATOM     11  O   UNL     1      48.135  83.742  65.086  0.00  0.00    +0.000 OA
ATOM     12  C   UNL     1      47.790  82.451  65.570  0.00  0.00    +0.000 A 
ATOM     13  C   UNL     1      47.048  81.544  64.733  0.00  0.00    +0.000 A 
ATOM     14  C   UNL     1      46.656  81.945  63.407  0.00  0.00    +0.000 A 
ATOM     15  C   UNL     1      47.007  83.253  62.916  0.00  0.00    +0.000 A 
ATOM     16  C   UNL     1      47.749  84.160  63.752  0.00  0.00    +0.000 A 
ATOM     17  C   UNL     1      50.044  86.690  63.202  0.00  0.00    +0.000 A 
ATOM     18  C   UNL     1      48.039  85.234  63.355  0.00  0.00    +0.000 A 
ATOM     19  C   UNL     1      48.671  83.955  63.160  0.00  0.00    +0.000 A 
ATOM     20  C   UNL     1      50.028  83.748  63.596  0.00  0.00    +0.000 A 
ATOM     21  C   UNL     1      50.659  82.468  63.401  0.00  0.00    +0.000 A 
ATOM     22  C   UNL     1      52.016  82.261  63.838  0.00  0.00    +0.000 A 
ATOM     23  C   UNL     1      49.891  88.758  65.229  0.00  0.00    +0.000 A 
ENDROOT
BRANCH   8  24
ATOM     24  O   UNL     1      51.398  90.357  66.120  0.00  0.00    +0.000 OA
ATOM     25  H   UNL     1      50.768  91.123  66.243  0.00  0.00    +0.000 HD
ENDBRANCH   8  24
BRANCH  14  26
ATOM     26  O   UNL     1      45.924  81.050  62.582  0.00  0.00    +0.000 OA
ATOM     27  H   UNL     1      44.985  80.804  62.821  0.00  0.00    +0.000 HD
ENDBRANCH  14  26
TORSDOF 2
ENDMDL
