REMARK SMILES O=C1NC(=O)c2c1c1c(ccc3cccnc31)c1[nH]c3ccccc3c21
REMARK SMILES IDX 1 1 2 2 3 3 4 4 5 5 6 6 7 7 8 8 9 9 10 10 11 11 12 12 13 13
REMARK SMILES IDX 14 14 15 15 16 16 17 17 18 18 19 19 20 20 21 21 22 22 23 23
REMARK SMILES IDX 24 24 25 25 26 26
REMARK H PARENT 3 27 19 28
ROOT
ATOM      1  O   UNL     1      -2.573   2.979   0.933  1.00  0.00    -0.269 OA
ATOM      2  C   UNL     1      -1.421   2.598   0.899  1.00  0.00     0.259 C 
ATOM      3  N   UNL     1      -0.385   3.372   1.319  1.00  0.00    -0.288 N 
ATOM      4  C   UNL     1       0.815   2.762   1.198  1.00  0.00     0.259 C 
ATOM      5  O   UNL     1       1.888   3.240   1.502  1.00  0.00    -0.269 OA
ATOM      6  C   UNL     1       0.549   1.440   0.637  1.00  0.00     0.063 A 
ATOM      7  C   UNL     1      -0.837   1.308   0.440  1.00  0.00     0.063 A 
ATOM      8  C   UNL     1      -1.414   0.135  -0.092  1.00  0.00     0.024 A 
ATOM      9  C   UNL     1      -0.497  -0.909  -0.418  1.00  0.00     0.009 A 
ATOM     10  C   UNL     1      -0.944  -2.128  -0.955  1.00  0.00     0.012 A 
ATOM     11  C   UNL     1      -2.296  -2.333  -1.179  1.00  0.00     0.011 A 
ATOM     12  C   UNL     1      -3.220  -1.333  -0.871  1.00  0.00     0.001 A 
ATOM     13  C   UNL     1      -4.585  -1.559  -1.104  1.00  0.00     0.012 A 
ATOM     14  C   UNL     1      -5.513  -0.575  -0.804  1.00  0.00     0.021 A 
ATOM     15  C   UNL     1      -5.035   0.602  -0.280  1.00  0.00     0.112 A 
ATOM     16  N   UNL     1      -3.726   0.839  -0.049  1.00  0.00    -0.256 NA
ATOM     17  C   UNL     1      -2.800  -0.092  -0.328  1.00  0.00     0.079 A 
ATOM     18  C   UNL     1       0.906  -0.743  -0.205  1.00  0.00     0.055 A 
ATOM     19  N   UNL     1       1.960  -1.600  -0.441  1.00  0.00    -0.354 N 
ATOM     20  C   UNL     1       3.159  -1.037  -0.090  1.00  0.00     0.046 A 
ATOM     21  C   UNL     1       4.452  -1.570  -0.170  1.00  0.00     0.027 A 
ATOM     22  C   UNL     1       5.512  -0.772   0.261  1.00  0.00     0.002 A 
ATOM     23  C   UNL     1       5.282   0.508   0.753  1.00  0.00     0.001 A 
ATOM     24  C   UNL     1       3.981   1.022   0.825  1.00  0.00     0.011 A 
ATOM     25  C   UNL     1       2.886   0.241   0.397  1.00  0.00     0.008 A 
ATOM     26  C   UNL     1       1.463   0.428   0.324  1.00  0.00     0.022 A 
ATOM     27  H   UNL     1      -0.508   4.303   1.681  1.00  0.00     0.173 HD
ATOM     28  H   UNL     1       1.873  -2.529  -0.825  1.00  0.00     0.167 HD
ENDROOT
TORSDOF 0
