REMARK SMILES CN1C(=O)CN=C(c2ccccc2F)c2cc([N+](=O)[O-])ccc21
REMARK SMILES IDX 1 1 2 2 3 3 4 4 5 5 6 6 7 7 15 8 16 9 17 10 21 11 22 12
REMARK SMILES IDX 23 13 8 14 9 15 13 16 10 17 12 18 11 19 14 20 18 21 19 22
REMARK SMILES IDX 20 23
REMARK H PARENT
ROOT
ATOM      1  C   UNL     1      -2.994  -0.032   2.640  1.00  0.00     0.153 C 
ATOM      2  N   UNL     1      -2.244   0.378   1.459  1.00  0.00    -0.313 N 
ATOM      3  C   UNL     1      -2.061   1.756   1.288  1.00  0.00     0.248 C 
ATOM      4  O   UNL     1      -2.436   2.579   2.129  1.00  0.00    -0.272 OA
ATOM      5  C   UNL     1      -1.451   2.220  -0.025  1.00  0.00     0.243 C 
ATOM      6  N   UNL     1      -0.042   1.847  -0.059  1.00  0.00    -0.274 NA
ATOM      7  C   UNL     1       0.247   0.601  -0.206  1.00  0.00     0.078 C 
ATOM      8  C   UNL     1      -0.750  -0.499  -0.351  1.00  0.00     0.031 A 
ATOM      9  C   UNL     1      -0.473  -1.487  -1.318  1.00  0.00     0.098 A 
ATOM     10  C   UNL     1      -1.303  -2.604  -1.435  1.00  0.00     0.270 A 
ATOM     11  C   UNL     1      -2.407  -2.750  -0.595  1.00  0.00     0.088 A 
ATOM     12  C   UNL     1      -2.686  -1.760   0.354  1.00  0.00     0.034 A 
ATOM     13  C   UNL     1      -1.883  -0.608   0.485  1.00  0.00     0.053 A 
ENDROOT
BRANCH   7  14
ATOM     14  C   UNL     1       1.684   0.236  -0.206  1.00  0.00     0.036 A 
ATOM     15  C   UNL     1       2.188  -0.599   0.797  1.00  0.00     0.013 A 
ATOM     16  C   UNL     1       2.530   0.730  -1.198  1.00  0.00     0.132 A 
ATOM     17  C   UNL     1       3.543  -0.937   0.794  1.00  0.00     0.001 A 
ATOM     18  C   UNL     1       3.879   0.391  -1.202  1.00  0.00     0.040 A 
ATOM     19  C   UNL     1       4.387  -0.443  -0.204  1.00  0.00     0.003 A 
ATOM     20  F   UNL     1       2.054   1.497  -2.190  1.00  0.00    -0.206 F 
ENDBRANCH   7  14
BRANCH  10  21
ATOM     21  N   UNL     1      -1.006  -3.636  -2.436  1.00  0.00     0.062 N 
ATOM     22  O   UNL     1       0.026  -3.504  -3.108  1.00  0.00    -0.258 OA
ATOM     23  O   UNL     1      -1.804  -4.577  -2.545  1.00  0.00    -0.258 OA
ENDBRANCH  10  21
TORSDOF 2
