REMARK SMILES Nc1nc2c3ccc(F)cc3nc(Cc3ccc4c(c3)OCO4)n2n1
REMARK SMILES IDX 2 1 3 2 4 3 5 4 6 5 7 6 8 7 9 8 10 9 11 10 12 11 13 12 24 13
REMARK SMILES IDX 25 14 1 15 14 18 15 19 16 20 20 21 17 22 19 23 18 24 21 25
REMARK SMILES IDX 23 26 22 27
REMARK H PARENT 1 16 1 17
ROOT
ATOM      1  C   UNL     1      -1.503   2.598   0.957  1.00  0.00     0.240 A 
ATOM      2  N   UNL     1      -2.560   1.753   1.109  1.00  0.00    -0.192 NA
ATOM      3  C   UNL     1      -2.311   0.819   0.218  1.00  0.00     0.169 A 
ATOM      4  C   UNL     1      -3.034  -0.372  -0.172  1.00  0.00     0.045 A 
ATOM      5  C   UNL     1      -4.243  -0.746   0.420  1.00  0.00     0.017 A 
ATOM      6  C   UNL     1      -4.883  -1.907  -0.012  1.00  0.00     0.040 A 
ATOM      7  C   UNL     1      -4.310  -2.675  -1.024  1.00  0.00     0.125 A 
ATOM      8  F   UNL     1      -4.933  -3.789  -1.432  1.00  0.00    -0.207 F 
ATOM      9  C   UNL     1      -3.106  -2.309  -1.619  1.00  0.00     0.068 A 
ATOM     10  C   UNL     1      -2.453  -1.152  -1.201  1.00  0.00     0.079 A 
ATOM     11  N   UNL     1      -1.224  -0.797  -1.820  1.00  0.00    -0.232 NA
ATOM     12  C   UNL     1      -0.610   0.289  -1.425  1.00  0.00     0.137 C 
ATOM     13  N   UNL     1      -1.133   1.101  -0.419  1.00  0.00    -0.196 N 
ATOM     14  N   UNL     1      -0.598   2.245   0.047  1.00  0.00    -0.126 NA
ENDROOT
BRANCH   1  15
ATOM     15  N   UNL     1      -1.441   3.678   1.728  1.00  0.00    -0.366 N 
ATOM     16  H   UNL     1      -2.005   3.664   2.568  1.00  0.00     0.159 HD
ATOM     17  H   UNL     1      -0.529   4.099   1.852  1.00  0.00     0.159 HD
ENDBRANCH   1  15
BRANCH  12  18
ATOM     18  C   UNL     1       0.707   0.731  -2.001  1.00  0.00     0.113 C 
BRANCH  18  19
ATOM     19  C   UNL     1       1.882   0.190  -1.218  1.00  0.00    -0.036 A 
ATOM     20  C   UNL     1       2.245  -1.172  -1.337  1.00  0.00     0.008 A 
ATOM     21  C   UNL     1       2.602   1.026  -0.350  1.00  0.00     0.054 A 
ATOM     22  C   UNL     1       3.317  -1.697  -0.609  1.00  0.00     0.051 A 
ATOM     23  C   UNL     1       3.654   0.479   0.354  1.00  0.00     0.166 A 
ATOM     24  C   UNL     1       4.002  -0.845   0.228  1.00  0.00     0.165 A 
ATOM     25  O   UNL     1       4.452   1.144   1.233  1.00  0.00    -0.454 OA
ATOM     26  O   UNL     1       5.062  -1.180   1.010  1.00  0.00    -0.454 OA
ATOM     27  C   UNL     1       5.344   0.086   1.641  1.00  0.00     0.468 C 
ENDBRANCH  18  19
ENDBRANCH  12  18
TORSDOF 3
