REMARK SMILES O=C1Nc2ccc(Cl)cc2C(c2ccccc2Cl)=NC1O
REMARK SMILES IDX 1 1 2 2 3 3 4 4 5 5 6 6 7 7 8 8 9 9 10 10 11 11 19 12 20 13
REMARK SMILES IDX 21 15 12 17 13 18 17 19 14 20 16 21 15 22 18 23
REMARK H PARENT 3 14 21 16
ROOT
ATOM      1  O   UNL     1      -3.682   0.038   1.928  1.00  0.00    -0.269 OA
ATOM      2  C   UNL     1      -2.583  -0.404   1.585  1.00  0.00     0.276 C 
ATOM      3  N   UNL     1      -1.449   0.146   2.128  1.00  0.00    -0.321 N 
ATOM      4  C   UNL     1      -0.117  -0.167   1.819  1.00  0.00     0.050 A 
ATOM      5  C   UNL     1       0.825   0.085   2.827  1.00  0.00     0.028 A 
ATOM      6  C   UNL     1       2.172  -0.228   2.637  1.00  0.00     0.023 A 
ATOM      7  C   UNL     1       2.588  -0.779   1.431  1.00  0.00     0.041 A 
ATOM      8  Cl  UNL     1       4.246  -1.170   1.198  1.00  0.00    -0.084 Cl
ATOM      9  C   UNL     1       1.675  -0.997   0.402  1.00  0.00     0.033 A 
ATOM     10  C   UNL     1       0.318  -0.674   0.580  1.00  0.00     0.026 A 
ATOM     11  C   UNL     1      -0.586  -0.743  -0.609  1.00  0.00     0.079 C 
ATOM     12  N   UNL     1      -1.819  -1.118  -0.611  1.00  0.00    -0.243 NA
ATOM     13  C   UNL     1      -2.409  -1.607   0.623  1.00  0.00     0.323 C 
ATOM     14  H   UNL     1      -1.648   0.754   2.914  1.00  0.00     0.170 HD
ENDROOT
BRANCH  13  15
ATOM     15  O   UNL     1      -3.654  -2.247   0.402  1.00  0.00    -0.364 OA
ATOM     16  H   UNL     1      -4.172  -1.580  -0.080  1.00  0.00     0.213 HD
ENDBRANCH  13  15
BRANCH  11  17
ATOM     17  C   UNL     1      -0.040  -0.279  -1.911  1.00  0.00     0.019 A 
ATOM     18  C   UNL     1       0.161   1.097  -2.082  1.00  0.00     0.012 A 
ATOM     19  C   UNL     1       0.247  -1.172  -2.949  1.00  0.00     0.050 A 
ATOM     20  C   UNL     1       0.658   1.578  -3.294  1.00  0.00     0.001 A 
ATOM     21  C   UNL     1       0.745  -0.681  -4.159  1.00  0.00     0.021 A 
ATOM     22  C   UNL     1       0.950   0.691  -4.330  1.00  0.00     0.002 A 
ATOM     23  Cl  UNL     1       0.067  -2.880  -2.777  1.00  0.00    -0.084 Cl
ENDBRANCH  11  17
TORSDOF 2
