REMARK SMILES COc1ccc(-c2onc(C)c2C)cc1S(=O)(=O)N1CCc2ccccc2C1
REMARK SMILES IDX 3 1 4 2 5 3 6 4 14 5 15 6 2 7 1 8 16 9 17 10 18 11 19 12
REMARK SMILES IDX 20 13 28 14 21 15 27 16 22 17 26 18 23 19 25 20 24 21 7 22
REMARK SMILES IDX 8 23 12 24 9 25 10 26 13 27 11 28
REMARK H PARENT
ROOT
ATOM      1  C   UNL     1      -1.326   0.588  -0.560  1.00  0.00     0.138 A 
ATOM      2  C   UNL     1      -2.093   0.197   0.542  1.00  0.00     0.048 A 
ATOM      3  C   UNL     1      -1.485  -0.224   1.732  1.00  0.00     0.016 A 
ATOM      4  C   UNL     1      -0.093  -0.258   1.860  1.00  0.00     0.022 A 
ATOM      5  C   UNL     1       0.675   0.123   0.757  1.00  0.00     0.037 A 
ATOM      6  C   UNL     1       0.068   0.525  -0.450  1.00  0.00     0.125 A 
ENDROOT
BRANCH   1   7
ATOM      7  O   UNL     1      -1.860   1.013  -1.741  1.00  0.00    -0.495 OA
ATOM      8  C   UNL     1      -3.273   1.134  -1.837  1.00  0.00     0.278 C 
ENDBRANCH   1   7
BRANCH   6   9
ATOM      9  S   UNL     1       1.148   1.013  -1.784  1.00  0.00     0.247 S 
ATOM     10  O   UNL     1       0.582   2.164  -2.454  1.00  0.00    -0.207 OA
ATOM     11  O   UNL     1       2.484   1.108  -1.219  1.00  0.00    -0.207 OA
BRANCH   9  12
ATOM     12  N   UNL     1       1.168  -0.293  -2.846  1.00  0.00    -0.193 NA
ATOM     13  C   UNL     1       1.856  -1.545  -2.477  1.00  0.00     0.107 C 
ATOM     14  C   UNL     1       0.028  -0.496  -3.756  1.00  0.00     0.138 C 
ATOM     15  C   UNL     1       0.915  -2.544  -1.807  1.00  0.00     0.052 C 
ATOM     16  C   UNL     1      -0.851  -1.674  -3.402  1.00  0.00    -0.030 A 
ATOM     17  C   UNL     1      -0.419  -2.662  -2.499  1.00  0.00    -0.042 A 
ATOM     18  C   UNL     1      -2.106  -1.805  -4.015  1.00  0.00     0.005 A 
ATOM     19  C   UNL     1      -1.264  -3.739  -2.195  1.00  0.00     0.004 A 
ATOM     20  C   UNL     1      -2.934  -2.887  -3.714  1.00  0.00     0.000 A 
ATOM     21  C   UNL     1      -2.514  -3.851  -2.802  1.00  0.00     0.000 A 
ENDBRANCH   9  12
ENDBRANCH   6   9
BRANCH   4  22
ATOM     22  C   UNL     1       0.535  -0.684   3.105  1.00  0.00     0.170 A 
ATOM     23  O   UNL     1      -0.162  -1.611   3.822  1.00  0.00    -0.356 OA
ATOM     24  C   UNL     1       1.710  -0.391   3.774  1.00  0.00     0.020 A 
ATOM     25  N   UNL     1       0.538  -1.952   4.960  1.00  0.00    -0.084 NA
ATOM     26  C   UNL     1       1.658  -1.224   4.928  1.00  0.00     0.084 A 
ATOM     27  C   UNL     1       2.778   0.566   3.403  1.00  0.00     0.051 C 
ATOM     28  C   UNL     1       2.653  -1.345   6.020  1.00  0.00     0.071 C 
ENDBRANCH   4  22
TORSDOF 4
