REMARK SMILES CN1CCCN(c2ncnc3ccccc23)CC1
REMARK SMILES IDX 1 1 2 2 3 3 4 4 5 5 6 6 17 7 18 8 7 9 8 10 16 11 9 12 15 13
REMARK SMILES IDX 11 14 10 15 14 16 12 17 13 18
REMARK H PARENT
ROOT
ATOM      1  C   UNL     1      -4.267   0.160   2.126  1.00  0.00     0.105 C 
ATOM      2  N   UNL     1      -3.508  -0.744   1.261  1.00  0.00    -0.305 NA
ATOM      3  C   UNL     1      -2.569  -1.543   2.055  1.00  0.00     0.086 C 
ATOM      4  C   UNL     1      -1.481  -2.284   1.274  1.00  0.00     0.037 C 
ATOM      5  C   UNL     1      -0.250  -1.414   1.015  1.00  0.00     0.119 C 
ATOM      6  N   UNL     1      -0.483  -0.415  -0.040  1.00  0.00    -0.355 N 
ATOM      7  C   UNL     1      -1.526   0.584   0.271  1.00  0.00     0.133 C 
ATOM      8  C   UNL     1      -2.931  -0.034   0.107  1.00  0.00     0.105 C 
ENDROOT
BRANCH   6   9
ATOM      9  C   UNL     1       0.759   0.232  -0.321  1.00  0.00     0.139 A 
ATOM     10  N   UNL     1       1.097   1.319   0.401  1.00  0.00    -0.219 NA
ATOM     11  C   UNL     1       1.601  -0.297  -1.321  1.00  0.00     0.043 A 
ATOM     12  C   UNL     1       2.284   1.869   0.126  1.00  0.00     0.224 A 
ATOM     13  C   UNL     1       1.292  -1.418  -2.132  1.00  0.00     0.014 A 
ATOM     14  C   UNL     1       2.817   0.373  -1.503  1.00  0.00     0.076 A 
ATOM     15  N   UNL     1       3.166   1.447  -0.787  1.00  0.00    -0.236 NA
ATOM     16  C   UNL     1       2.187  -1.872  -3.097  1.00  0.00     0.001 A 
ATOM     17  C   UNL     1       3.696  -0.099  -2.472  1.00  0.00     0.029 A 
ATOM     18  C   UNL     1       3.396  -1.210  -3.266  1.00  0.00     0.002 A 
ENDBRANCH   6   9
TORSDOF 1
