BEGIN_RES GLU A 21
REMARK INDEX MAP 3 1 15 2 18 3 21 4 22 5 23 6
ROOT
ATOM      1  CA  GLU A  21       4.026   0.192  28.791  1.00  0.00     0.171 C 
ENDROOT
BRANCH   1   2
ATOM      2  CB  GLU A  21       3.357   0.953  29.943  1.00  0.00     0.041 C 
BRANCH   2   3
ATOM      3  CG  GLU A  21       4.262   1.980  30.581  1.00  0.00     0.055 C 
BRANCH   3   4
ATOM      4  CD  GLU A  21       3.522   3.015  31.404  1.00  0.00     0.041 C 
ATOM      5 OE1  GLU A  21       2.279   3.111  31.313  1.00  0.00    -0.548 OA
ATOM      6 OE2  GLU A  21       4.211   3.744  32.151  1.00  0.00    -0.549 OA
ENDBRANCH   3   4
ENDBRANCH   2   3
ENDBRANCH   1   2
END_RES GLU A 21
BEGIN_RES GLN A 22
REMARK INDEX MAP 3 1 15 2 18 3 21 4 22 5 23 6 24 7 25 8
ROOT
ATOM      7  CA  GLN A  22       7.602  -0.680  29.543  1.00  0.00     0.171 C 
ENDROOT
BRANCH   7   8
ATOM      8  CB  GLN A  22       8.422  -1.185  28.365  1.00  0.00     0.045 C 
BRANCH   8   9
ATOM      9  CG  GLN A  22       9.650  -1.995  28.679  1.00  0.00     0.102 C 
BRANCH   9  10
ATOM     10  CD  GLN A  22      10.279  -2.557  27.443  1.00  0.00     0.217 C 
ATOM     11 OE1  GLN A  22      10.199  -1.963  26.364  1.00  0.00    -0.275 OA
ATOM     12 NE2  GLN A  22      10.983  -3.696  27.581  1.00  0.00    -0.368 N 
ATOM     13 HE22 GLN A  22      11.436  -4.124  26.761  1.00  0.00     0.159 HD
ATOM     14 HE21 GLN A  22      11.069  -4.139  28.507  1.00  0.00     0.159 HD
ENDBRANCH   9  10
ENDBRANCH   8   9
ENDBRANCH   7   8
END_RES GLN A 22
BEGIN_RES LYS A 23
REMARK INDEX MAP 3 1 15 2 18 3 21 4 24 5 27 6 28 7 29 8 30 9
ROOT
ATOM     15  CA  LYS A  23       8.888   1.185  32.606  1.00  0.00     0.171 C 
ENDROOT
BRANCH  15  16
ATOM     16  CB  LYS A  23       8.532   0.752  34.036  1.00  0.00     0.035 C 
BRANCH  16  17
ATOM     17  CG  LYS A  23       8.988   1.704  35.147  1.00  0.00     0.008 C 
BRANCH  17  18
ATOM     18  CD  LYS A  23       8.110   1.465  36.373  1.00  0.00     0.061 C 
BRANCH  18  19
ATOM     19  CE  LYS A  23       8.711   2.005  37.666  1.00  0.00     0.258 C 
BRANCH  19  20
ATOM     20  NZ  LYS A  23       7.633   2.163  38.720  1.00  0.00    -0.357 N 
ATOM     21 HZ1  LYS A  23       8.057   2.101  39.657  1.00  0.00     0.345 HD
ATOM     22 HZ2  LYS A  23       7.177   3.080  38.610  1.00  0.00     0.345 HD
ATOM     23 HZ3  LYS A  23       6.933   1.416  38.610  1.00  0.00     0.345 HD
ENDBRANCH  19  20
ENDBRANCH  18  19
ENDBRANCH  17  18
ENDBRANCH  16  17
ENDBRANCH  15  16
END_RES LYS A 23
BEGIN_RES LYS A 30
REMARK INDEX MAP 3 1 15 2 18 3 21 4 24 5 27 6 28 7 29 8 30 9
ROOT
ATOM     24  CA  LYS A  30       2.480  -4.233  30.998  1.00  0.00     0.171 C 
ENDROOT
BRANCH  24  25
ATOM     25  CB  LYS A  30       2.139  -3.171  32.049  1.00  0.00     0.035 C 
BRANCH  25  26
ATOM     26  CG  LYS A  30       0.723  -3.249  32.593  1.00  0.00     0.008 C 
BRANCH  26  27
ATOM     27  CD  LYS A  30       0.652  -4.114  33.842  1.00  0.00     0.061 C 
BRANCH  27  28
ATOM     28  CE  LYS A  30      -0.795  -4.435  34.199  1.00  0.00     0.258 C 
BRANCH  28  29
ATOM     29  NZ  LYS A  30      -1.535  -4.909  32.997  1.00  0.00    -0.357 N 
ATOM     30 HZ1  LYS A  30      -2.366  -5.441  33.293  1.00  0.00     0.345 HD
ATOM     31 HZ2  LYS A  30      -1.829  -4.099  32.433  1.00  0.00     0.345 HD
ATOM     32 HZ3  LYS A  30      -0.922  -5.515  32.433  1.00  0.00     0.345 HD
ENDBRANCH  28  29
ENDBRANCH  27  28
ENDBRANCH  26  27
ENDBRANCH  25  26
ENDBRANCH  24  25
END_RES LYS A 30
BEGIN_RES GLU A 100
REMARK INDEX MAP 3 1 15 2 18 3 21 4 22 5 23 6
ROOT
ATOM     33  CA  GLU A 100       2.680  -8.471  32.427  1.00  0.00     0.171 C 
ENDROOT
BRANCH  33  34
ATOM     34  CB  GLU A 100       3.167  -8.226  33.858  1.00  0.00     0.041 C 
BRANCH  34  35
ATOM     35  CG  GLU A 100       4.539  -7.659  33.949  1.00  0.00     0.055 C 
BRANCH  35  36
ATOM     36  CD  GLU A 100       4.862  -7.224  35.349  1.00  0.00     0.041 C 
ATOM     37 OE1  GLU A 100       4.369  -7.883  36.298  1.00  0.00    -0.548 OA
ATOM     38 OE2  GLU A 100       5.578  -6.227  35.494  1.00  0.00    -0.549 OA
ENDBRANCH  35  36
ENDBRANCH  34  35
ENDBRANCH  33  34
END_RES GLU A 100
