MODEL 1
REMARK VINA RESULT:    -0.001      0.000      0.000
REMARK INTER + INTRA:          -0.573
REMARK INTER:                   0.000
REMARK INTRA:                  -0.573
REMARK UNBOUND:                -0.572
REMARK  Name = 
REMARK  4 active torsions:
REMARK  status: ('A' for Active; 'I' for Inactive)
REMARK    1  A    between atoms: C_1  and  C_2
REMARK    2  A    between atoms: C_4  and  C_7
REMARK    3  A    between atoms: N_9  and  C_10
REMARK    4  A    between atoms: C_10  and  C_11
REMARK                            x       y       z     vdW  Elec       q    Type
REMARK                         _______ _______ _______ _____ _____    ______ ____
ROOT
ATOM      1  C   UNL     1       8.852   2.844  12.381  0.00  0.00    +0.000 C 
ATOM      2  O   UNL     1       9.401   1.913  11.714  0.00  0.00    +0.000 OA
ATOM      3  N   UNL     1       7.430   2.752  12.742  0.00  0.00    +0.000 N 
ATOM      4  H   UNL     1       6.883   1.940  12.456  0.00  0.00    +0.000 HD
ENDROOT
BRANCH   1   8
ATOM      5  C   UNL     1      10.635   7.466  11.423  0.00  0.00    +0.000 C 
ATOM      6  C   UNL     1      10.520   6.265  12.347  0.00  0.00    +0.000 A 
ATOM      7  N   UNL     1       9.773   5.156  11.958  0.00  0.00    +0.000 NA
ATOM      8  C   UNL     1       9.667   4.056  12.806  0.00  0.00    +0.000 A 
ATOM      9  N   UNL     1      10.310   4.064  14.041  0.00  0.00    +0.000 NA
ATOM     10  O   UNL     1      11.140   6.274  13.541  0.00  0.00    +0.000 OA
ENDBRANCH   1   8
BRANCH   3  11
ATOM     11  C   UNL     1       6.796   3.831  13.514  0.00  0.00    +0.000 C 
BRANCH  11  12
ATOM     12  C   UNL     1       5.396   4.082  12.977  0.00  0.00    +0.000 A 
ATOM     13  C   UNL     1       5.176   5.112  11.995  0.00  0.00    +0.000 A 
ATOM     14  C   UNL     1       6.282   5.905  11.521  0.00  0.00    +0.000 A 
ATOM     15  C   UNL     1       6.062   6.935  10.539  0.00  0.00    +0.000 A 
ATOM     16  C   UNL     1       7.167   7.726  10.066  0.00  0.00    +0.000 A 
ATOM     17  C   UNL     1       4.291   3.291  13.451  0.00  0.00    +0.000 A 
ATOM     18 CL   UNL     1       4.562   2.018  14.665  0.00  0.00    +0.000 Cl
ENDBRANCH  11  12
ENDBRANCH   3  11
TORSDOF 3
ENDMDL
MODEL 2
REMARK VINA RESULT:    -0.001      3.405      5.141
REMARK INTER + INTRA:          -0.573
REMARK INTER:                   0.000
REMARK INTRA:                  -0.573
REMARK UNBOUND:                -0.572
REMARK  Name = 
REMARK  4 active torsions:
REMARK  status: ('A' for Active; 'I' for Inactive)
REMARK    1  A    between atoms: C_1  and  C_2
REMARK    2  A    between atoms: C_4  and  C_7
REMARK    3  A    between atoms: N_9  and  C_10
REMARK    4  A    between atoms: C_10  and  C_11
REMARK                            x       y       z     vdW  Elec       q    Type
REMARK                         _______ _______ _______ _____ _____    ______ ____
ROOT
ATOM      1  C   UNL     1       7.867   3.202  15.164  0.00  0.00    +0.000 C 
ATOM      2  O   UNL     1       6.960   3.234  16.052  0.00  0.00    +0.000 OA
ATOM      3  N   UNL     1       8.393   4.455  14.604  0.00  0.00    +0.000 N 
ATOM      4  H   UNL     1       8.028   5.351  14.928  0.00  0.00    +0.000 HD
ENDROOT
BRANCH   1   8
ATOM      5  C   UNL     1       7.614  -0.735  12.019  0.00  0.00    +0.000 C 
ATOM      6  C   UNL     1       8.288  -0.016  13.176  0.00  0.00    +0.000 A 
ATOM      7  N   UNL     1       7.791   1.208  13.619  0.00  0.00    +0.000 NA
ATOM      8  C   UNL     1       8.410   1.867  14.679  0.00  0.00    +0.000 A 
ATOM      9  N   UNL     1       9.523   1.302  15.297  0.00  0.00    +0.000 NA
ATOM     10  O   UNL     1       9.363  -0.561  13.772  0.00  0.00    +0.000 OA
ENDBRANCH   1   8
BRANCH   3  11
ATOM     11  C   UNL     1       9.443   4.418  13.575  0.00  0.00    +0.000 C 
BRANCH  11  12
ATOM     12  C   UNL     1       9.163   5.482  12.526  0.00  0.00    +0.000 A 
ATOM     13  C   UNL     1       8.444   5.138  11.326  0.00  0.00    +0.000 A 
ATOM     14  C   UNL     1       7.992   3.786  11.119  0.00  0.00    +0.000 A 
ATOM     15  C   UNL     1       7.274   3.443   9.919  0.00  0.00    +0.000 A 
ATOM     16  C   UNL     1       6.821   2.092   9.713  0.00  0.00    +0.000 A 
ATOM     17  C   UNL     1       9.616   6.833  12.732  0.00  0.00    +0.000 A 
ATOM     18 CL   UNL     1      10.504   7.258  14.215  0.00  0.00    +0.000 Cl
ENDBRANCH  11  12
ENDBRANCH   3  11
TORSDOF 3
ENDMDL
MODEL 3
REMARK VINA RESULT:    -0.000      7.559      8.971
REMARK INTER + INTRA:          -0.573
REMARK INTER:                   0.000
REMARK INTRA:                  -0.573
REMARK UNBOUND:                -0.572
REMARK  Name = 
REMARK  4 active torsions:
REMARK  status: ('A' for Active; 'I' for Inactive)
REMARK    1  A    between atoms: C_1  and  C_2
REMARK    2  A    between atoms: C_4  and  C_7
REMARK    3  A    between atoms: N_9  and  C_10
REMARK    4  A    between atoms: C_10  and  C_11
REMARK                            x       y       z     vdW  Elec       q    Type
REMARK                         _______ _______ _______ _____ _____    ______ ____
ROOT
ATOM      1  C   UNL     1       7.571   5.334  20.339  0.00  0.00    +0.000 C 
ATOM      2  O   UNL     1       6.612   5.208  21.162  0.00  0.00    +0.000 OA
ATOM      3  N   UNL     1       8.632   4.318  20.284  0.00  0.00    +0.000 N 
ATOM      4  H   UNL     1       8.598   3.512  20.908  0.00  0.00    +0.000 HD
ENDROOT
BRANCH   1   8
ATOM      5  C   UNL     1       8.970  10.096  19.430  0.00  0.00    +0.000 C 
ATOM      6  C   UNL     1       8.291   8.814  18.976  0.00  0.00    +0.000 A 
ATOM      7  N   UNL     1       8.245   7.712  19.827  0.00  0.00    +0.000 NA
ATOM      8  C   UNL     1       7.622   6.537  19.410  0.00  0.00    +0.000 A 
ATOM      9  N   UNL     1       7.046   6.465  18.145  0.00  0.00    +0.000 NA
ATOM     10  O   UNL     1       7.734   8.745  17.754  0.00  0.00    +0.000 OA
ENDBRANCH   1   8
BRANCH   3  11
ATOM     11  C   UNL     1       9.742   4.464  19.331  0.00  0.00    +0.000 C 
BRANCH  11  12
ATOM     12  C   UNL     1      11.041   4.038  19.997  0.00  0.00    +0.000 A 
ATOM     13  C   UNL     1      11.888   5.023  20.619  0.00  0.00    +0.000 A 
ATOM     14  C   UNL     1      11.506   6.412  20.609  0.00  0.00    +0.000 A 
ATOM     15  C   UNL     1      12.353   7.396  21.231  0.00  0.00    +0.000 A 
ATOM     16  C   UNL     1      11.971   8.784  21.222  0.00  0.00    +0.000 A 
ATOM     17  C   UNL     1      11.423   2.650  20.006  0.00  0.00    +0.000 A 
ATOM     18 CL   UNL     1      10.376   1.433  19.237  0.00  0.00    +0.000 Cl
ENDBRANCH  11  12
ENDBRANCH   3  11
TORSDOF 3
ENDMDL
MODEL 4
REMARK VINA RESULT:    -0.000      6.806      7.631
REMARK INTER + INTRA:          -0.572
REMARK INTER:                   0.000
REMARK INTRA:                  -0.572
REMARK UNBOUND:                -0.572
REMARK  Name = 
REMARK  4 active torsions:
REMARK  status: ('A' for Active; 'I' for Inactive)
REMARK    1  A    between atoms: C_1  and  C_2
REMARK    2  A    between atoms: C_4  and  C_7
REMARK    3  A    between atoms: N_9  and  C_10
REMARK    4  A    between atoms: C_10  and  C_11
REMARK                            x       y       z     vdW  Elec       q    Type
REMARK                         _______ _______ _______ _____ _____    ______ ____
ROOT
ATOM      1  C   UNL     1       7.195   9.335  16.043  0.00  0.00    +0.000 C 
ATOM      2  O   UNL     1       8.224  10.045  15.819  0.00  0.00    +0.000 OA
ATOM      3  N   UNL     1       6.277   9.001  14.945  0.00  0.00    +0.000 N 
ATOM      4  H   UNL     1       6.467   9.341  14.001  0.00  0.00    +0.000 HD
ENDROOT
BRANCH   1   8
ATOM      5  C   UNL     1       5.109  10.005  20.589  0.00  0.00    +0.000 C 
ATOM      6  C   UNL     1       5.914   9.151  19.623  0.00  0.00    +0.000 A 
ATOM      7  N   UNL     1       6.173   9.613  18.335  0.00  0.00    +0.000 NA
ATOM      8  C   UNL     1       6.911   8.830  17.450  0.00  0.00    +0.000 A 
ATOM      9  N   UNL     1       7.391   7.587  17.854  0.00  0.00    +0.000 NA
ATOM     10  O   UNL     1       6.377   7.950  20.013  0.00  0.00    +0.000 OA
ENDBRANCH   1   8
BRANCH   3  11
ATOM     11  C   UNL     1       5.086   8.180  15.205  0.00  0.00    +0.000 C 
BRANCH  11  12
ATOM     12  C   UNL     1       3.912   8.723  14.406  0.00  0.00    +0.000 A 
ATOM     13  C   UNL     1       2.993   9.650  15.016  0.00  0.00    +0.000 A 
ATOM     14  C   UNL     1       3.185  10.061  16.383  0.00  0.00    +0.000 A 
ATOM     15  C   UNL     1       2.266  10.987  16.993  0.00  0.00    +0.000 A 
ATOM     16  C   UNL     1       2.459  11.398  18.359  0.00  0.00    +0.000 A 
ATOM     17  C   UNL     1       3.719   8.312  13.040  0.00  0.00    +0.000 A 
ATOM     18 CL   UNL     1       4.854   7.167  12.286  0.00  0.00    +0.000 Cl
ENDBRANCH  11  12
ENDBRANCH   3  11
TORSDOF 3
ENDMDL
MODEL 5
REMARK VINA RESULT:     0.000     13.530     15.520
REMARK INTER + INTRA:          -0.572
REMARK INTER:                   0.000
REMARK INTRA:                  -0.572
REMARK UNBOUND:                -0.572
REMARK  Name = 
REMARK  4 active torsions:
REMARK  status: ('A' for Active; 'I' for Inactive)
REMARK    1  A    between atoms: C_1  and  C_2
REMARK    2  A    between atoms: C_4  and  C_7
REMARK    3  A    between atoms: N_9  and  C_10
REMARK    4  A    between atoms: C_10  and  C_11
REMARK                            x       y       z     vdW  Elec       q    Type
REMARK                         _______ _______ _______ _____ _____    ______ ____
ROOT
ATOM      1  C   UNL     1      20.191   6.208   9.222  0.00  0.00    +0.000 C 
ATOM      2  O   UNL     1      18.945   6.220   9.469  0.00  0.00    +0.000 OA
ATOM      3  N   UNL     1      20.917   7.473   9.038  0.00  0.00    +0.000 N 
ATOM      4  H   UNL     1      20.420   8.361   9.108  0.00  0.00    +0.000 HD
ENDROOT
BRANCH   1   8
ATOM      5  C   UNL     1      21.763   2.290   6.458  0.00  0.00    +0.000 C 
ATOM      6  C   UNL     1      21.683   3.011   7.794  0.00  0.00    +0.000 A 
ATOM      7  N   UNL     1      21.005   4.224   7.891  0.00  0.00    +0.000 NA
ATOM      8  C   UNL     1      20.932   4.884   9.115  0.00  0.00    +0.000 A 
ATOM      9  N   UNL     1      21.535   4.331  10.242  0.00  0.00    +0.000 NA
ATOM     10  O   UNL     1      22.266   2.477   8.882  0.00  0.00    +0.000 OA
ENDBRANCH   1   8
BRANCH   3  11
ATOM     11  C   UNL     1      22.359   7.458   8.751  0.00  0.00    +0.000 C 
BRANCH  11  12
ATOM     12  C   UNL     1      22.681   8.525   7.718  0.00  0.00    +0.000 A 
ATOM     13  C   UNL     1      22.742   8.180   6.320  0.00  0.00    +0.000 A 
ATOM     14  C   UNL     1      22.499   6.823   5.903  0.00  0.00    +0.000 A 
ATOM     15  C   UNL     1      22.560   6.477   4.506  0.00  0.00    +0.000 A 
ATOM     16  C   UNL     1      22.316   5.121   4.089  0.00  0.00    +0.000 A 
ATOM     17  C   UNL     1      22.925   9.881   8.135  0.00  0.00    +0.000 A 
ATOM     18 CL   UNL     1      22.850  10.309   9.861  0.00  0.00    +0.000 Cl
ENDBRANCH  11  12
ENDBRANCH   3  11
TORSDOF 3
ENDMDL
