MODEL 1
REMARK VINA RESULT:    -0.000      0.000      0.000
REMARK INTER + INTRA:          -0.605
REMARK INTER:                   0.000
REMARK INTRA:                  -0.605
REMARK UNBOUND:                -0.605
REMARK  Name = 
REMARK  5 active torsions:
REMARK  status: ('A' for Active; 'I' for Inactive)
REMARK    1  A    between atoms: C_1  and  C_2
REMARK    2  A    between atoms: C_2  and  O_4
REMARK    3  A    between atoms: O_4  and  C_5
REMARK    4  A    between atoms: C_10  and  C_11
REMARK    5  A    between atoms: C_11  and  O_13
REMARK                            x       y       z     vdW  Elec       q    Type
REMARK                         _______ _______ _______ _____ _____    ______ ____
ROOT
ATOM      1  C   UNL     1      11.085   9.017  15.416  0.00  0.00    +0.000 A 
ATOM      2  C   UNL     1      11.692   9.920  16.359  0.00  0.00    +0.000 A 
ATOM      3  C   UNL     1      11.158  10.038  17.692  0.00  0.00    +0.000 A 
ATOM      4  C   UNL     1      11.766  10.941  18.634  0.00  0.00    +0.000 A 
ATOM      5  C   UNL     1      11.232  11.059  19.966  0.00  0.00    +0.000 A 
ATOM      6  C   UNL     1      11.619   8.900  14.084  0.00  0.00    +0.000 A 
ENDROOT
BRANCH   6   7
ATOM      7  C   UNL     1      10.978   7.946  13.089  0.00  0.00    +0.000 C 
ATOM      8  O   UNL     1      10.479   8.394  12.010  0.00  0.00    +0.000 OA
BRANCH   7   9
ATOM      9  O   UNL     1      10.938   6.554  13.365  0.00  0.00    +0.000 OA
ATOM     10  H   UNL     1      10.824   6.232  14.305  0.00  0.00    +0.000 HD
ENDBRANCH   7   9
ENDBRANCH   6   7
BRANCH   1  11
ATOM     11  O   UNL     1       9.959   8.242  15.800  0.00  0.00    +0.000 OA
BRANCH  11  13
ATOM     12  C   UNL     1       9.234   6.834  17.794  0.00  0.00    +0.000 C 
ATOM     13  C   UNL     1      10.135   7.079  16.595  0.00  0.00    +0.000 C 
ATOM     14  O   UNL     1      11.047   6.243  16.305  0.00  0.00    +0.000 OA
ENDBRANCH  11  13
ENDBRANCH   1  11
TORSDOF 4
ENDMDL
MODEL 2
REMARK VINA RESULT:     0.000      5.890      6.362
REMARK INTER + INTRA:          -0.605
REMARK INTER:                   0.000
REMARK INTRA:                  -0.605
REMARK UNBOUND:                -0.605
REMARK  Name = 
REMARK  5 active torsions:
REMARK  status: ('A' for Active; 'I' for Inactive)
REMARK    1  A    between atoms: C_1  and  C_2
REMARK    2  A    between atoms: C_2  and  O_4
REMARK    3  A    between atoms: O_4  and  C_5
REMARK    4  A    between atoms: C_10  and  C_11
REMARK    5  A    between atoms: C_11  and  O_13
REMARK                            x       y       z     vdW  Elec       q    Type
REMARK                         _______ _______ _______ _____ _____    ______ ____
ROOT
ATOM      1  C   UNL     1      11.276  14.508  16.087  0.00  0.00    +0.000 A 
ATOM      2  C   UNL     1      11.352  15.279  17.300  0.00  0.00    +0.000 A 
ATOM      3  C   UNL     1      12.310  14.930  18.317  0.00  0.00    +0.000 A 
ATOM      4  C   UNL     1      12.386  15.702  19.530  0.00  0.00    +0.000 A 
ATOM      5  C   UNL     1      13.345  15.354  20.547  0.00  0.00    +0.000 A 
ATOM      6  C   UNL     1      10.317  14.856  15.070  0.00  0.00    +0.000 A 
ENDROOT
BRANCH   6   7
ATOM      7  C   UNL     1      10.237  14.041  13.790  0.00  0.00    +0.000 C 
ATOM      8  O   UNL     1       9.163  13.430  13.491  0.00  0.00    +0.000 OA
BRANCH   7   9
ATOM      9  O   UNL     1      11.361  13.965  12.925  0.00  0.00    +0.000 OA
ATOM     10  H   UNL     1      11.264  14.198  11.957  0.00  0.00    +0.000 HD
ENDBRANCH   7   9
ENDBRANCH   6   7
BRANCH   1  11
ATOM     11  O   UNL     1      12.146  13.402  15.893  0.00  0.00    +0.000 OA
BRANCH  11  13
ATOM     12  C   UNL     1      14.614  12.868  16.213  0.00  0.00    +0.000 C 
ATOM     13  C   UNL     1      13.495  13.618  15.511  0.00  0.00    +0.000 C 
ATOM     14  O   UNL     1      13.768  14.442  14.582  0.00  0.00    +0.000 OA
ENDBRANCH  11  13
ENDBRANCH   1  11
TORSDOF 4
ENDMDL
MODEL 3
REMARK VINA RESULT:     0.000      9.477     10.743
REMARK INTER + INTRA:          -0.605
REMARK INTER:                   0.000
REMARK INTRA:                  -0.605
REMARK UNBOUND:                -0.605
REMARK  Name = 
REMARK  5 active torsions:
REMARK  status: ('A' for Active; 'I' for Inactive)
REMARK    1  A    between atoms: C_1  and  C_2
REMARK    2  A    between atoms: C_2  and  O_4
REMARK    3  A    between atoms: O_4  and  C_5
REMARK    4  A    between atoms: C_10  and  C_11
REMARK    5  A    between atoms: C_11  and  O_13
REMARK                            x       y       z     vdW  Elec       q    Type
REMARK                         _______ _______ _______ _____ _____    ______ ____
ROOT
ATOM      1  C   UNL     1      16.356  16.760  14.985  0.00  0.00    +0.000 A 
ATOM      2  C   UNL     1      15.051  16.366  15.448  0.00  0.00    +0.000 A 
ATOM      3  C   UNL     1      14.889  15.825  16.773  0.00  0.00    +0.000 A 
ATOM      4  C   UNL     1      13.583  15.431  17.235  0.00  0.00    +0.000 A 
ATOM      5  C   UNL     1      13.422  14.890  18.560  0.00  0.00    +0.000 A 
ATOM      6  C   UNL     1      16.518  17.301  13.660  0.00  0.00    +0.000 A 
ENDROOT
BRANCH   6   7
ATOM      7  C   UNL     1      17.896  17.717  13.172  0.00  0.00    +0.000 C 
ATOM      8  O   UNL     1      18.409  17.149  12.158  0.00  0.00    +0.000 OA
BRANCH   7   9
ATOM      9  O   UNL     1      18.610  18.742  13.847  0.00  0.00    +0.000 OA
ATOM     10  H   UNL     1      18.451  18.904  14.821  0.00  0.00    +0.000 HD
ENDBRANCH   7   9
ENDBRANCH   6   7
BRANCH   1  11
ATOM     11  O   UNL     1      17.485  16.615  15.835  0.00  0.00    +0.000 OA
BRANCH  11  13
ATOM     12  C   UNL     1      18.079  17.072  18.268  0.00  0.00    +0.000 C 
ATOM     13  C   UNL     1      17.718  17.554  16.873  0.00  0.00    +0.000 C 
ATOM     14  O   UNL     1      17.623  18.799  16.636  0.00  0.00    +0.000 OA
ENDBRANCH  11  13
ENDBRANCH   1  11
TORSDOF 4
ENDMDL
MODEL 4
REMARK VINA RESULT:     0.001      5.055      6.935
REMARK INTER + INTRA:          -0.604
REMARK INTER:                   0.000
REMARK INTRA:                  -0.604
REMARK UNBOUND:                -0.605
REMARK  Name = 
REMARK  5 active torsions:
REMARK  status: ('A' for Active; 'I' for Inactive)
REMARK    1  A    between atoms: C_1  and  C_2
REMARK    2  A    between atoms: C_2  and  O_4
REMARK    3  A    between atoms: O_4  and  C_5
REMARK    4  A    between atoms: C_10  and  C_11
REMARK    5  A    between atoms: C_11  and  O_13
REMARK                            x       y       z     vdW  Elec       q    Type
REMARK                         _______ _______ _______ _____ _____    ______ ____
ROOT
ATOM      1  C   UNL     1      12.287  10.240  19.644  0.00  0.00    +0.000 A 
ATOM      2  C   UNL     1      12.715   9.884  18.315  0.00  0.00    +0.000 A 
ATOM      3  C   UNL     1      13.497  10.809  17.537  0.00  0.00    +0.000 A 
ATOM      4  C   UNL     1      13.924  10.452  16.209  0.00  0.00    +0.000 A 
ATOM      5  C   UNL     1      14.707  11.378  15.431  0.00  0.00    +0.000 A 
ATOM      6  C   UNL     1      11.505   9.315  20.421  0.00  0.00    +0.000 A 
ENDROOT
BRANCH   6   7
ATOM      7  C   UNL     1      11.054   9.690  21.823  0.00  0.00    +0.000 C 
ATOM      8  O   UNL     1       9.815   9.758  22.096  0.00  0.00    +0.000 OA
BRANCH   7   9
ATOM      9  O   UNL     1      12.018   9.965  22.830  0.00  0.00    +0.000 OA
ATOM     10  H   UNL     1      12.961  10.177  22.575  0.00  0.00    +0.000 HD
ENDBRANCH   7   9
ENDBRANCH   6   7
BRANCH   1  11
ATOM     11  O   UNL     1      12.637  11.504  20.187  0.00  0.00    +0.000 OA
BRANCH  11  13
ATOM     12  C   UNL     1      14.701  12.989  20.332  0.00  0.00    +0.000 C 
ATOM     13  C   UNL     1      13.944  11.722  20.696  0.00  0.00    +0.000 C 
ATOM     14  O   UNL     1      14.482  10.857  21.455  0.00  0.00    +0.000 OA
ENDBRANCH  11  13
ENDBRANCH   1  11
TORSDOF 4
ENDMDL
MODEL 5
REMARK VINA RESULT:     0.001     11.419     12.482
REMARK INTER + INTRA:          -0.604
REMARK INTER:                   0.000
REMARK INTRA:                  -0.604
REMARK UNBOUND:                -0.605
REMARK  Name = 
REMARK  5 active torsions:
REMARK  status: ('A' for Active; 'I' for Inactive)
REMARK    1  A    between atoms: C_1  and  C_2
REMARK    2  A    between atoms: C_2  and  O_4
REMARK    3  A    between atoms: O_4  and  C_5
REMARK    4  A    between atoms: C_10  and  C_11
REMARK    5  A    between atoms: C_11  and  O_13
REMARK                            x       y       z     vdW  Elec       q    Type
REMARK                         _______ _______ _______ _____ _____    ______ ____
ROOT
ATOM      1  C   UNL     1      19.954   2.496  15.915  0.00  0.00    +0.000 A 
ATOM      2  C   UNL     1      19.483   1.157  15.669  0.00  0.00    +0.000 A 
ATOM      3  C   UNL     1      20.424   0.072  15.554  0.00  0.00    +0.000 A 
ATOM      4  C   UNL     1      19.953  -1.266  15.309  0.00  0.00    +0.000 A 
ATOM      5  C   UNL     1      20.894  -2.351  15.193  0.00  0.00    +0.000 A 
ATOM      6  C   UNL     1      19.014   3.580  16.030  0.00  0.00    +0.000 A 
ENDROOT
BRANCH   6   7
ATOM      7  C   UNL     1      19.510   4.993  16.289  0.00  0.00    +0.000 C 
ATOM      8  O   UNL     1      19.278   5.913  15.444  0.00  0.00    +0.000 OA
BRANCH   7   9
ATOM      9  O   UNL     1      20.232   5.286  17.476  0.00  0.00    +0.000 OA
ATOM     10  H   UNL     1      20.209   4.647  18.246  0.00  0.00    +0.000 HD
ENDBRANCH   7   9
ENDBRANCH   6   7
BRANCH   1  11
ATOM     11  O   UNL     1      21.346   2.747  16.043  0.00  0.00    +0.000 OA
BRANCH  11  13
ATOM     12  C   UNL     1      23.350   1.708  17.221  0.00  0.00    +0.000 C 
ATOM     13  C   UNL     1      22.015   2.435  17.255  0.00  0.00    +0.000 C 
ATOM     14  O   UNL     1      21.499   2.763  18.368  0.00  0.00    +0.000 OA
ENDBRANCH  11  13
ENDBRANCH   1  11
TORSDOF 4
ENDMDL
