MODEL 1
REMARK VINA RESULT:    -0.001      0.000      0.000
REMARK INTER + INTRA:          -0.512
REMARK INTER:                   0.000
REMARK INTRA:                  -0.512
REMARK UNBOUND:                -0.511
REMARK  Name = 
REMARK  6 active torsions:
REMARK  status: ('A' for Active; 'I' for Inactive)
REMARK    1  A    between atoms: C_6  and  C_7
REMARK    2  A    between atoms: C_7  and  C_8
REMARK    3  A    between atoms: C_7  and  C_12
REMARK    4  A    between atoms: C_8  and  C_9
REMARK    5  A    between atoms: C_9  and  O_11
REMARK    6  A    between atoms: C_12  and  N_13
REMARK                            x       y       z     vdW  Elec       q    Type
REMARK                         _______ _______ _______ _____ _____    ______ ____
ROOT
ATOM      1  C   UNL     1      13.936   7.056  12.902  0.00  0.00    +0.000 C 
ENDROOT
BRANCH   1   7
ATOM      2  C   UNL     1      16.281   6.938  11.872  0.00  0.00    +0.000 A 
ATOM      3  C   UNL     1      17.632   6.440  11.874  0.00  0.00    +0.000 A 
ATOM      4  C   UNL     1      18.551   6.847  10.841  0.00  0.00    +0.000 A 
ATOM      5  C   UNL     1      19.903   6.349  10.844  0.00  0.00    +0.000 A 
ATOM      6  C   UNL     1      20.820   6.756   9.811  0.00  0.00    +0.000 A 
ATOM      7  C   UNL     1      15.362   6.531  12.905  0.00  0.00    +0.000 A 
ATOM      8 CL   UNL     1      18.015   7.965   9.563  0.00  0.00    +0.000 Cl
ENDBRANCH   1   7
BRANCH   1   9
ATOM      9  C   UNL     1      13.620   7.657  11.543  0.00  0.00    +0.000 C 
BRANCH   9  10
ATOM     10  C   UNL     1      13.088   9.070  11.725  0.00  0.00    +0.000 C 
ATOM     11  O   UNL     1      13.649  10.042  11.127  0.00  0.00    +0.000 OA
BRANCH  10  12
ATOM     12  O   UNL     1      11.966   9.304  12.563  0.00  0.00    +0.000 OA
ATOM     13  H   UNL     1      11.456   8.532  12.943  0.00  0.00    +0.000 HD
ENDBRANCH  10  12
ENDBRANCH   9  10
ENDBRANCH   1   9
BRANCH   1  14
ATOM     14  C   UNL     1      12.975   5.913  13.186  0.00  0.00    +0.000 C 
BRANCH  14  15
ATOM     15  N   UNL     1      11.762   6.441  13.828  0.00  0.00    +0.000 NA
ATOM     16  H   UNL     1      11.170   6.880  13.123  0.00  0.00    +0.000 HD
ATOM     17  H   UNL     1      11.253   5.678  14.273  0.00  0.00    +0.000 HD
ENDBRANCH  14  15
ENDBRANCH   1  14
TORSDOF 6
ENDMDL
MODEL 2
REMARK VINA RESULT:    -0.001      7.099      8.418
REMARK INTER + INTRA:          -0.512
REMARK INTER:                   0.000
REMARK INTRA:                  -0.512
REMARK UNBOUND:                -0.511
REMARK  Name = 
REMARK  6 active torsions:
REMARK  status: ('A' for Active; 'I' for Inactive)
REMARK    1  A    between atoms: C_6  and  C_7
REMARK    2  A    between atoms: C_7  and  C_8
REMARK    3  A    between atoms: C_7  and  C_12
REMARK    4  A    between atoms: C_8  and  C_9
REMARK    5  A    between atoms: C_9  and  O_11
REMARK    6  A    between atoms: C_12  and  N_13
REMARK                            x       y       z     vdW  Elec       q    Type
REMARK                         _______ _______ _______ _____ _____    ______ ____
ROOT
ATOM      1  C   UNL     1      10.710   5.668   8.762  0.00  0.00    +0.000 C 
ENDROOT
BRANCH   1   7
ATOM      2  C   UNL     1      10.163   4.909  11.149  0.00  0.00    +0.000 A 
ATOM      3  C   UNL     1      10.566   4.633  12.504  0.00  0.00    +0.000 A 
ATOM      4  C   UNL     1       9.595   4.166  13.461  0.00  0.00    +0.000 A 
ATOM      5  C   UNL     1       9.997   3.889  14.816  0.00  0.00    +0.000 A 
ATOM      6  C   UNL     1       9.027   3.423  15.773  0.00  0.00    +0.000 A 
ATOM      7  C   UNL     1      11.134   5.376  10.191  0.00  0.00    +0.000 A 
ATOM      8 CL   UNL     1       7.900   3.932  12.970  0.00  0.00    +0.000 Cl
ENDBRANCH   1   7
BRANCH   1   9
ATOM      9  C   UNL     1       9.195   5.765   8.692  0.00  0.00    +0.000 C 
BRANCH   9  10
ATOM     10  C   UNL     1       8.677   4.834   7.607  0.00  0.00    +0.000 C 
ATOM     11  O   UNL     1       7.800   3.957   7.888  0.00  0.00    +0.000 OA
BRANCH  10  12
ATOM     12  O   UNL     1       9.172   4.944   6.281  0.00  0.00    +0.000 OA
ATOM     13  H   UNL     1       9.631   4.165   5.853  0.00  0.00    +0.000 HD
ENDBRANCH  10  12
ENDBRANCH   9  10
ENDBRANCH   1   9
BRANCH   1  14
ATOM     14  C   UNL     1      11.323   6.984   8.310  0.00  0.00    +0.000 C 
BRANCH  14  15
ATOM     15  N   UNL     1      11.501   6.967   6.851  0.00  0.00    +0.000 NA
ATOM     16  H   UNL     1      10.599   7.115   6.398  0.00  0.00    +0.000 HD
ATOM     17  H   UNL     1      12.145   7.708   6.578  0.00  0.00    +0.000 HD
ENDBRANCH  14  15
ENDBRANCH   1  14
TORSDOF 6
ENDMDL
MODEL 3
REMARK VINA RESULT:    -0.000      9.142     11.249
REMARK INTER + INTRA:          -0.511
REMARK INTER:                   0.000
REMARK INTRA:                  -0.511
REMARK UNBOUND:                -0.511
REMARK  Name = 
REMARK  6 active torsions:
REMARK  status: ('A' for Active; 'I' for Inactive)
REMARK    1  A    between atoms: C_6  and  C_7
REMARK    2  A    between atoms: C_7  and  C_8
REMARK    3  A    between atoms: C_7  and  C_12
REMARK    4  A    between atoms: C_8  and  C_9
REMARK    5  A    between atoms: C_9  and  O_11
REMARK    6  A    between atoms: C_12  and  N_13
REMARK                            x       y       z     vdW  Elec       q    Type
REMARK                         _______ _______ _______ _____ _____    ______ ____
ROOT
ATOM      1  C   UNL     1      14.209   1.065  17.095  0.00  0.00    +0.000 C 
ENDROOT
BRANCH   1   7
ATOM      2  C   UNL     1      11.887   0.020  17.397  0.00  0.00    +0.000 A 
ATOM      3  C   UNL     1      10.858  -0.899  16.983  0.00  0.00    +0.000 A 
ATOM      4  C   UNL     1       9.623  -0.976  17.722  0.00  0.00    +0.000 A 
ATOM      5  C   UNL     1       8.593  -1.894  17.307  0.00  0.00    +0.000 A 
ATOM      6  C   UNL     1       7.359  -1.972  18.047  0.00  0.00    +0.000 A 
ATOM      7  C   UNL     1      13.122   0.097  16.658  0.00  0.00    +0.000 A 
ATOM      8 CL   UNL     1       9.371   0.061  19.147  0.00  0.00    +0.000 Cl
ENDBRANCH   1   7
BRANCH   1   9
ATOM      9  C   UNL     1      13.926   1.538  18.511  0.00  0.00    +0.000 C 
BRANCH   9  10
ATOM     10  C   UNL     1      13.936   3.057  18.551  0.00  0.00    +0.000 C 
ATOM     11  O   UNL     1      12.929   3.687  19.004  0.00  0.00    +0.000 OA
BRANCH  10  12
ATOM     12  O   UNL     1      15.068   3.773  18.081  0.00  0.00    +0.000 OA
ATOM     13  H   UNL     1      15.859   3.277  17.720  0.00  0.00    +0.000 HD
ENDBRANCH  10  12
ENDBRANCH   9  10
ENDBRANCH   1   9
BRANCH   1  14
ATOM     14  C   UNL     1      15.557   0.365  17.053  0.00  0.00    +0.000 C 
BRANCH  14  15
ATOM     15  N   UNL     1      16.616   1.356  16.814  0.00  0.00    +0.000 NA
ATOM     16  H   UNL     1      16.333   1.979  16.058  0.00  0.00    +0.000 HD
ATOM     17  H   UNL     1      16.771   1.900  17.663  0.00  0.00    +0.000 HD
ENDBRANCH  14  15
ENDBRANCH   1  14
TORSDOF 6
ENDMDL
MODEL 4
REMARK VINA RESULT:    -0.000      3.999      5.431
REMARK INTER + INTRA:          -0.511
REMARK INTER:                   0.000
REMARK INTRA:                  -0.511
REMARK UNBOUND:                -0.511
REMARK  Name = 
REMARK  6 active torsions:
REMARK  status: ('A' for Active; 'I' for Inactive)
REMARK    1  A    between atoms: C_6  and  C_7
REMARK    2  A    between atoms: C_7  and  C_8
REMARK    3  A    between atoms: C_7  and  C_12
REMARK    4  A    between atoms: C_8  and  C_9
REMARK    5  A    between atoms: C_9  and  O_11
REMARK    6  A    between atoms: C_12  and  N_13
REMARK                            x       y       z     vdW  Elec       q    Type
REMARK                         _______ _______ _______ _____ _____    ______ ____
ROOT
ATOM      1  C   UNL     1      15.057   4.710  11.427  0.00  0.00    +0.000 C 
ENDROOT
BRANCH   1   7
ATOM      2  C   UNL     1      14.628   6.742   9.924  0.00  0.00    +0.000 A 
ATOM      3  C   UNL     1      13.734   7.576   9.161  0.00  0.00    +0.000 A 
ATOM      4  C   UNL     1      14.246   8.729   8.464  0.00  0.00    +0.000 A 
ATOM      5  C   UNL     1      13.353   9.562   7.700  0.00  0.00    +0.000 A 
ATOM      6  C   UNL     1      13.865  10.714   7.003  0.00  0.00    +0.000 A 
ATOM      7  C   UNL     1      14.116   5.590  10.622  0.00  0.00    +0.000 A 
ATOM      8 CL   UNL     1      15.980   9.122   8.545  0.00  0.00    +0.000 Cl
ENDBRANCH   1   7
BRANCH   1   9
ATOM      9  C   UNL     1      16.367   5.447  11.656  0.00  0.00    +0.000 C 
BRANCH   9  10
ATOM     10  C   UNL     1      17.527   4.572  11.207  0.00  0.00    +0.000 C 
ATOM     11  O   UNL     1      18.362   5.013  10.355  0.00  0.00    +0.000 OA
BRANCH  10  12
ATOM     12  O   UNL     1      17.676   3.264  11.737  0.00  0.00    +0.000 OA
ATOM     13  H   UNL     1      16.909   2.822  12.202  0.00  0.00    +0.000 HD
ENDBRANCH  10  12
ENDBRANCH   9  10
ENDBRANCH   1   9
BRANCH   1  14
ATOM     14  C   UNL     1      14.421   4.380  12.768  0.00  0.00    +0.000 C 
BRANCH  14  15
ATOM     15  N   UNL     1      14.933   3.089  13.248  0.00  0.00    +0.000 NA
ATOM     16  H   UNL     1      14.374   2.777  14.042  0.00  0.00    +0.000 HD
ATOM     17  H   UNL     1      14.875   2.400  12.499  0.00  0.00    +0.000 HD
ENDBRANCH  14  15
ENDBRANCH   1  14
TORSDOF 6
ENDMDL
MODEL 5
REMARK VINA RESULT:     0.000      9.040      9.896
REMARK INTER + INTRA:          -0.511
REMARK INTER:                   0.000
REMARK INTRA:                  -0.511
REMARK UNBOUND:                -0.511
REMARK  Name = 
REMARK  6 active torsions:
REMARK  status: ('A' for Active; 'I' for Inactive)
REMARK    1  A    between atoms: C_6  and  C_7
REMARK    2  A    between atoms: C_7  and  C_8
REMARK    3  A    between atoms: C_7  and  C_12
REMARK    4  A    between atoms: C_8  and  C_9
REMARK    5  A    between atoms: C_9  and  O_11
REMARK    6  A    between atoms: C_12  and  N_13
REMARK                            x       y       z     vdW  Elec       q    Type
REMARK                         _______ _______ _______ _____ _____    ______ ____
ROOT
ATOM      1  C   UNL     1      11.392   8.156  19.912  0.00  0.00    +0.000 C 
ENDROOT
BRANCH   1   7
ATOM      2  C   UNL     1      11.690   5.612  19.808  0.00  0.00    +0.000 A 
ATOM      3  C   UNL     1      11.146   4.279  19.848  0.00  0.00    +0.000 A 
ATOM      4  C   UNL     1      12.017   3.141  19.701  0.00  0.00    +0.000 A 
ATOM      5  C   UNL     1      11.473   1.808  19.743  0.00  0.00    +0.000 A 
ATOM      6  C   UNL     1      12.345   0.671  19.595  0.00  0.00    +0.000 A 
ATOM      7  C   UNL     1      10.818   6.750  19.955  0.00  0.00    +0.000 A 
ATOM      8 CL   UNL     1      13.766   3.383  19.469  0.00  0.00    +0.000 Cl
ENDBRANCH   1   7
BRANCH   1   9
ATOM      9  C   UNL     1      12.796   8.113  19.331  0.00  0.00    +0.000 C 
BRANCH   9  10
ATOM     10  C   UNL     1      13.758   8.816  20.275  0.00  0.00    +0.000 C 
ATOM     11  O   UNL     1      14.786   8.205  20.707  0.00  0.00    +0.000 OA
BRANCH  10  12
ATOM     12  O   UNL     1      13.507  10.155  20.677  0.00  0.00    +0.000 OA
ATOM     13  H   UNL     1      12.636  10.393  21.107  0.00  0.00    +0.000 HD
ENDBRANCH  10  12
ENDBRANCH   9  10
ENDBRANCH   1   9
BRANCH   1  14
ATOM     14  C   UNL     1      10.511   9.037  19.041  0.00  0.00    +0.000 C 
BRANCH  14  15
ATOM     15  N   UNL     1      10.617  10.432  19.489  0.00  0.00    +0.000 NA
ATOM     16  H   UNL     1      10.101  10.549  20.361  0.00  0.00    +0.000 HD
ATOM     17  H   UNL     1      11.598  10.668  19.640  0.00  0.00    +0.000 HD
ENDBRANCH  14  15
ENDBRANCH   1  14
TORSDOF 6
ENDMDL
