MODEL 1
REMARK VINA RESULT:    -0.003      0.000      0.000
REMARK INTER + INTRA:           4.919
REMARK INTER:                   0.000
REMARK INTRA:                   4.919
REMARK UNBOUND:                 4.922
REMARK  Name = 
REMARK  4 active torsions:
REMARK  status: ('A' for Active; 'I' for Inactive)
REMARK    1  A    between atoms: C_1  and  O_2
REMARK    2  A    between atoms: O_2  and  C_3
REMARK    3  A    between atoms: C_4  and  O_24
REMARK    4  A    between atoms: O_24  and  C_25
REMARK                            x       y       z     vdW  Elec       q    Type
REMARK                         _______ _______ _______ _____ _____    ______ ____
ROOT
ATOM      1  C   UNL     1      14.341  16.298   9.367  0.00  0.00    +0.000 A 
ATOM      2  C   UNL     1      13.141  17.004   9.001  0.00  0.00    +0.000 A 
ATOM      3  C   UNL     1      12.874  17.299   7.617  0.00  0.00    +0.000 A 
ATOM      4  C   UNL     1      13.807  16.889   6.600  0.00  0.00    +0.000 A 
ATOM      5  N   UNL     1      14.968  16.206   6.955  0.00  0.00    +0.000 N 
ATOM      6  C   UNL     1      15.226  15.920   8.293  0.00  0.00    +0.000 A 
ATOM      7  C   UNL     1      14.293  16.331   9.310  0.00  0.00    +0.000 A 
ATOM      8  C   UNL     1      11.673  18.005   7.250  0.00  0.00    +0.000 A 
ATOM      9  C   UNL     1      10.741  18.416   8.267  0.00  0.00    +0.000 A 
ATOM     10  C   UNL     1      14.609  16.002  10.752  0.00  0.00    +0.000 A 
ATOM     11  C   UNL     1      16.494  15.175   8.680  0.00  0.00    +0.000 A 
ATOM     12  C   UNL     1      16.760  14.880  10.064  0.00  0.00    +0.000 A 
ATOM     13  C   UNL     1      15.828  15.290  11.081  0.00  0.00    +0.000 A 
ATOM     14  C   UNL     1      14.627  15.996  10.715  0.00  0.00    +0.000 A 
ATOM     15  C   UNL     1      14.360  16.291   9.331  0.00  0.00    +0.000 A 
ATOM     16  C   UNL     1      17.426  14.765   7.663  0.00  0.00    +0.000 A 
ATOM     17  C   UNL     1      17.145  15.076   6.202  0.00  0.00    +0.000 C 
ATOM     18  C   UNL     1      15.921  15.787   5.916  0.00  0.00    +0.000 C 
ATOM     19  O   UNL     1      13.707  16.402  11.717  0.00  0.00    +0.000 OA
ATOM     20  C   UNL     1      12.523  17.098  11.356  0.00  0.00    +0.000 C 
ATOM     21  O   UNL     1      16.091  14.998  12.446  0.00  0.00    +0.000 OA
ENDROOT
BRANCH   1  23
ATOM     22  C   UNL     1      15.497  14.512   8.133  0.00  0.00    +0.000 C 
ATOM     23  O   UNL     1      15.262  15.893   8.365  0.00  0.00    +0.000 OA
ENDBRANCH   1  23
BRANCH   2  24
ATOM     24  O   UNL     1      12.221  17.409  10.003  0.00  0.00    +0.000 OA
ATOM     25  C   UNL     1      12.403  18.646  10.676  0.00  0.00    +0.000 C 
ENDBRANCH   2  24
TORSDOF 2
ENDMDL
MODEL 2
REMARK VINA RESULT:    -0.003      7.924     10.044
REMARK INTER + INTRA:           4.919
REMARK INTER:                   0.000
REMARK INTRA:                   4.919
REMARK UNBOUND:                 4.922
REMARK  Name = 
REMARK  4 active torsions:
REMARK  status: ('A' for Active; 'I' for Inactive)
REMARK    1  A    between atoms: C_1  and  O_2
REMARK    2  A    between atoms: O_2  and  C_3
REMARK    3  A    between atoms: C_4  and  O_24
REMARK    4  A    between atoms: O_24  and  C_25
REMARK                            x       y       z     vdW  Elec       q    Type
REMARK                         _______ _______ _______ _____ _____    ______ ____
ROOT
ATOM      1  C   UNL     1      14.420  10.631  16.428  0.00  0.00    +0.000 A 
ATOM      2  C   UNL     1      15.087  10.248  15.211  0.00  0.00    +0.000 A 
ATOM      3  C   UNL     1      14.374  10.277  13.960  0.00  0.00    +0.000 A 
ATOM      4  C   UNL     1      12.994  10.689  13.926  0.00  0.00    +0.000 A 
ATOM      5  N   UNL     1      12.350  11.058  15.105  0.00  0.00    +0.000 N 
ATOM      6  C   UNL     1      13.039  11.032  16.314  0.00  0.00    +0.000 A 
ATOM      7  C   UNL     1      14.419  10.620  16.347  0.00  0.00    +0.000 A 
ATOM      8  C   UNL     1      15.041   9.894  12.742  0.00  0.00    +0.000 A 
ATOM      9  C   UNL     1      16.420   9.483  12.776  0.00  0.00    +0.000 A 
ATOM     10  C   UNL     1      15.133  10.603  17.680  0.00  0.00    +0.000 A 
ATOM     11  C   UNL     1      12.335  11.435  17.600  0.00  0.00    +0.000 A 
ATOM     12  C   UNL     1      13.048  11.406  18.850  0.00  0.00    +0.000 A 
ATOM     13  C   UNL     1      14.428  10.995  18.884  0.00  0.00    +0.000 A 
ATOM     14  C   UNL     1      15.095  10.612  17.666  0.00  0.00    +0.000 A 
ATOM     15  C   UNL     1      14.381  10.641  16.416  0.00  0.00    +0.000 A 
ATOM     16  C   UNL     1      10.956  11.847  17.566  0.00  0.00    +0.000 A 
ATOM     17  C   UNL     1      10.203  11.877  16.246  0.00  0.00    +0.000 C 
ATOM     18  C   UNL     1      10.941  11.479  15.070  0.00  0.00    +0.000 C 
ATOM     19  O   UNL     1      16.455  10.206  17.699  0.00  0.00    +0.000 OA
ATOM     20  C   UNL     1      17.113   9.829  16.498  0.00  0.00    +0.000 C 
ATOM     21  O   UNL     1      15.131  10.967  20.118  0.00  0.00    +0.000 OA
ENDROOT
BRANCH   1  23
ATOM     22  C   UNL     1      12.706  12.367  16.747  0.00  0.00    +0.000 C 
ATOM     23  O   UNL     1      13.060  11.037  16.396  0.00  0.00    +0.000 OA
ENDBRANCH   1  23
BRANCH   2  24
ATOM     24  O   UNL     1      16.447   9.843  15.244  0.00  0.00    +0.000 OA
ATOM     25  C   UNL     1      16.778   8.489  15.515  0.00  0.00    +0.000 C 
ENDBRANCH   2  24
TORSDOF 2
ENDMDL
MODEL 3
REMARK VINA RESULT:     0.000     14.468     16.054
REMARK INTER + INTRA:           4.922
REMARK INTER:                   0.000
REMARK INTRA:                   4.922
REMARK UNBOUND:                 4.922
REMARK  Name = 
REMARK  4 active torsions:
REMARK  status: ('A' for Active; 'I' for Inactive)
REMARK    1  A    between atoms: C_1  and  O_2
REMARK    2  A    between atoms: O_2  and  C_3
REMARK    3  A    between atoms: C_4  and  O_24
REMARK    4  A    between atoms: O_24  and  C_25
REMARK                            x       y       z     vdW  Elec       q    Type
REMARK                         _______ _______ _______ _____ _____    ______ ____
ROOT
ATOM      1  C   UNL     1      12.773   1.655  12.826  0.00  0.00    +0.000 A 
ATOM      2  C   UNL     1      13.640   1.329  13.929  0.00  0.00    +0.000 A 
ATOM      3  C   UNL     1      13.971  -0.046  14.202  0.00  0.00    +0.000 A 
ATOM      4  C   UNL     1      13.437  -1.094  13.372  0.00  0.00    +0.000 A 
ATOM      5  N   UNL     1      12.598  -0.777  12.305  0.00  0.00    +0.000 N 
ATOM      6  C   UNL     1      12.278   0.552  12.040  0.00  0.00    +0.000 A 
ATOM      7  C   UNL     1      12.813   1.600  12.871  0.00  0.00    +0.000 A 
ATOM      8  C   UNL     1      14.837  -0.372  15.305  0.00  0.00    +0.000 A 
ATOM      9  C   UNL     1      15.372   0.676  16.135  0.00  0.00    +0.000 A 
ATOM     10  C   UNL     1      12.442   3.030  12.553  0.00  0.00    +0.000 A 
ATOM     11  C   UNL     1      11.364   0.896  10.876  0.00  0.00    +0.000 A 
ATOM     12  C   UNL     1      11.033   2.271  10.604  0.00  0.00    +0.000 A 
ATOM     13  C   UNL     1      11.567   3.319  11.434  0.00  0.00    +0.000 A 
ATOM     14  C   UNL     1      12.433   2.993  12.537  0.00  0.00    +0.000 A 
ATOM     15  C   UNL     1      12.765   1.618  12.810  0.00  0.00    +0.000 A 
ATOM     16  C   UNL     1      10.829  -0.152  10.046  0.00  0.00    +0.000 A 
ATOM     17  C   UNL     1      11.179  -1.603  10.334  0.00  0.00    +0.000 C 
ATOM     18  C   UNL     1      12.053  -1.848  11.457  0.00  0.00    +0.000 C 
ATOM     19  O   UNL     1      12.961   4.026  13.356  0.00  0.00    +0.000 OA
ATOM     20  C   UNL     1      13.815   3.705  14.444  0.00  0.00    +0.000 C 
ATOM     21  O   UNL     1      11.240   4.675  11.164  0.00  0.00    +0.000 OA
ENDROOT
BRANCH   1  23
ATOM     22  C   UNL     1      12.610   0.547  10.636  0.00  0.00    +0.000 C 
ATOM     23  O   UNL     1      12.246   0.622  12.007  0.00  0.00    +0.000 OA
ENDBRANCH   1  23
BRANCH   2  24
ATOM     24  O   UNL     1      14.167   2.363  14.748  0.00  0.00    +0.000 OA
ATOM     25  C   UNL     1      13.416   2.847  15.851  0.00  0.00    +0.000 C 
ENDBRANCH   2  24
TORSDOF 2
ENDMDL
MODEL 4
REMARK VINA RESULT:     0.000      3.214      6.567
REMARK INTER + INTRA:           4.922
REMARK INTER:                   0.000
REMARK INTRA:                   4.922
REMARK UNBOUND:                 4.922
REMARK  Name = 
REMARK  4 active torsions:
REMARK  status: ('A' for Active; 'I' for Inactive)
REMARK    1  A    between atoms: C_1  and  O_2
REMARK    2  A    between atoms: O_2  and  C_3
REMARK    3  A    between atoms: C_4  and  O_24
REMARK    4  A    between atoms: O_24  and  C_25
REMARK                            x       y       z     vdW  Elec       q    Type
REMARK                         _______ _______ _______ _____ _____    ______ ____
ROOT
ATOM      1  C   UNL     1      17.746  15.351  11.317  0.00  0.00    +0.000 A 
ATOM      2  C   UNL     1      19.017  15.108  11.951  0.00  0.00    +0.000 A 
ATOM      3  C   UNL     1      19.453  15.949  13.035  0.00  0.00    +0.000 A 
ATOM      4  C   UNL     1      18.619  17.033  13.486  0.00  0.00    +0.000 A 
ATOM      5  N   UNL     1      17.391  17.267  12.872  0.00  0.00    +0.000 N 
ATOM      6  C   UNL     1      16.968  16.454  11.825  0.00  0.00    +0.000 A 
ATOM      7  C   UNL     1      17.802  15.370  11.374  0.00  0.00    +0.000 A 
ATOM      8  C   UNL     1      20.724  15.706  13.668  0.00  0.00    +0.000 A 
ATOM      9  C   UNL     1      21.557  14.623  13.217  0.00  0.00    +0.000 A 
ATOM     10  C   UNL     1      17.309  14.509  10.233  0.00  0.00    +0.000 A 
ATOM     11  C   UNL     1      15.627  16.710  11.156  0.00  0.00    +0.000 A 
ATOM     12  C   UNL     1      15.191  15.868  10.072  0.00  0.00    +0.000 A 
ATOM     13  C   UNL     1      16.025  14.784   9.621  0.00  0.00    +0.000 A 
ATOM     14  C   UNL     1      17.295  14.542  10.254  0.00  0.00    +0.000 A 
ATOM     15  C   UNL     1      17.731  15.383  11.338  0.00  0.00    +0.000 A 
ATOM     16  C   UNL     1      14.794  17.794  11.607  0.00  0.00    +0.000 A 
ATOM     17  C   UNL     1      15.254  18.682  12.751  0.00  0.00    +0.000 C 
ATOM     18  C   UNL     1      16.539  18.374  13.334  0.00  0.00    +0.000 C 
ATOM     19  O   UNL     1      18.118  13.473   9.810  0.00  0.00    +0.000 OA
ATOM     20  C   UNL     1      19.371  13.233  10.434  0.00  0.00    +0.000 C 
ATOM     21  O   UNL     1      15.594  13.955   8.552  0.00  0.00    +0.000 OA
ENDROOT
BRANCH   1  23
ATOM     22  C   UNL     1      15.658  16.146  12.345  0.00  0.00    +0.000 C 
ATOM     23  O   UNL     1      16.924  16.419  11.762  0.00  0.00    +0.000 OA
ENDBRANCH   1  23
BRANCH   2  24
ATOM     24  O   UNL     1      19.839  14.039  11.506  0.00  0.00    +0.000 OA
ATOM     25  C   UNL     1      20.737  14.237  10.425  0.00  0.00    +0.000 C 
ENDBRANCH   2  24
TORSDOF 2
ENDMDL
MODEL 5
REMARK VINA RESULT:     0.000     11.594     13.721
REMARK INTER + INTRA:           4.922
REMARK INTER:                   0.000
REMARK INTRA:                   4.922
REMARK UNBOUND:                 4.922
REMARK  Name = 
REMARK  4 active torsions:
REMARK  status: ('A' for Active; 'I' for Inactive)
REMARK    1  A    between atoms: C_1  and  O_2
REMARK    2  A    between atoms: O_2  and  C_3
REMARK    3  A    between atoms: C_4  and  O_24
REMARK    4  A    between atoms: O_24  and  C_25
REMARK                            x       y       z     vdW  Elec       q    Type
REMARK                         _______ _______ _______ _____ _____    ______ ____
ROOT
ATOM      1  C   UNL     1      16.127   4.166  13.161  0.00  0.00    +0.000 A 
ATOM      2  C   UNL     1      15.790   2.831  13.585  0.00  0.00    +0.000 A 
ATOM      3  C   UNL     1      16.449   2.251  14.726  0.00  0.00    +0.000 A 
ATOM      4  C   UNL     1      17.445   3.004  15.443  0.00  0.00    +0.000 A 
ATOM      5  N   UNL     1      17.771   4.295  15.032  0.00  0.00    +0.000 N 
ATOM      6  C   UNL     1      17.133   4.857  13.929  0.00  0.00    +0.000 A 
ATOM      7  C   UNL     1      16.138   4.103  13.212  0.00  0.00    +0.000 A 
ATOM      8  C   UNL     1      16.112   0.917  15.150  0.00  0.00    +0.000 A 
ATOM      9  C   UNL     1      15.116   0.163  14.433  0.00  0.00    +0.000 A 
ATOM     10  C   UNL     1      15.468   4.747  12.019  0.00  0.00    +0.000 A 
ATOM     11  C   UNL     1      17.489   6.265  13.481  0.00  0.00    +0.000 A 
ATOM     12  C   UNL     1      16.830   6.845  12.340  0.00  0.00    +0.000 A 
ATOM     13  C   UNL     1      15.835   6.092  11.623  0.00  0.00    +0.000 A 
ATOM     14  C   UNL     1      15.497   4.758  12.047  0.00  0.00    +0.000 A 
ATOM     15  C   UNL     1      16.156   4.178  13.188  0.00  0.00    +0.000 A 
ATOM     16  C   UNL     1      18.485   7.018  14.199  0.00  0.00    +0.000 A 
ATOM     17  C   UNL     1      19.181   6.405  15.403  0.00  0.00    +0.000 C 
ATOM     18  C   UNL     1      18.787   5.064  15.765  0.00  0.00    +0.000 C 
ATOM     19  O   UNL     1      14.516   4.014  11.340  0.00  0.00    +0.000 OA
ATOM     20  C   UNL     1      14.183   2.699  11.757  0.00  0.00    +0.000 C 
ATOM     21  O   UNL     1      15.185   6.665  10.498  0.00  0.00    +0.000 OA
ENDROOT
BRANCH   1  23
ATOM     22  C   UNL     1      16.743   6.098  14.553  0.00  0.00    +0.000 C 
ATOM     23  O   UNL     1      17.109   4.909  13.868  0.00  0.00    +0.000 OA
ENDBRANCH   1  23
BRANCH   2  24
ATOM     24  O   UNL     1      14.808   2.089  12.878  0.00  0.00    +0.000 OA
ATOM     25  C   UNL     1      15.179   1.327  11.738  0.00  0.00    +0.000 C 
ENDBRANCH   2  24
TORSDOF 2
ENDMDL
