MODEL 1
REMARK VINA RESULT:    -0.004      0.000      0.000
REMARK INTER + INTRA:          -0.166
REMARK INTER:                   0.000
REMARK INTRA:                  -0.166
REMARK UNBOUND:                -0.160
REMARK  Name = 
REMARK  8 active torsions:
REMARK  status: ('A' for Active; 'I' for Inactive)
REMARK    1  A    between atoms: C_1  and  N_2
REMARK    2  A    between atoms: C_3  and  C_22
REMARK    3  A    between atoms: C_4  and  C_12
REMARK    4  A    between atoms: N_7  and  S_8
REMARK    5  A    between atoms: S_8  and  O_11
REMARK    6  A    between atoms: N_14  and  C_15
REMARK    7  A    between atoms: C_15  and  C_16
REMARK    8  A    between atoms: N_24  and  O_25
REMARK                            x       y       z     vdW  Elec       q    Type
REMARK                         _______ _______ _______ _____ _____    ______ ____
ROOT
ATOM      1  C   UNL     1       7.751   0.495  12.725  0.00  0.00    +0.000 C 
ATOM      2  N   UNL     1       8.560  -0.721  12.556  0.00  0.00    +0.000 N 
ATOM      3  C   UNL     1       9.707  -0.689  11.766  0.00  0.00    +0.000 A 
ATOM      4  C   UNL     1      10.100   0.534  11.114  0.00  0.00    +0.000 A 
ATOM      5  C   UNL     1      11.286   0.566  10.297  0.00  0.00    +0.000 A 
ATOM      6  O   UNL     1      11.985  -0.485  10.151  0.00  0.00    +0.000 OA
ATOM      7  N   UNL     1       8.194  -1.863  13.164  0.00  0.00    +0.000 N 
ENDROOT
BRANCH   4   8
ATOM      8  C   UNL     1       9.263   1.790  11.290  0.00  0.00    +0.000 C 
ATOM      9  O   UNL     1       9.470   2.560  12.279  0.00  0.00    +0.000 OA
ATOM     10  N   UNL     1       8.212   2.115  10.313  0.00  0.00    +0.000 N 
ATOM     11  H   UNL     1       7.649   2.958  10.430  0.00  0.00    +0.000 HD
BRANCH  10  12
ATOM     12  C   UNL     1       7.971   1.224   9.169  0.00  0.00    +0.000 C 
BRANCH  12  13
ATOM     13  C   UNL     1       6.475   1.062   8.959  0.00  0.00    +0.000 A 
ATOM     14  C   UNL     1       5.844  -0.206   9.219  0.00  0.00    +0.000 A 
ATOM     15  C   UNL     1       6.631  -1.321   9.680  0.00  0.00    +0.000 A 
ATOM     16  C   UNL     1       6.000  -2.589   9.941  0.00  0.00    +0.000 A 
ATOM     17  C   UNL     1       6.787  -3.704  10.401  0.00  0.00    +0.000 A 
ATOM     18  C   UNL     1       5.688   2.177   8.499  0.00  0.00    +0.000 A 
ENDBRANCH  12  13
ENDBRANCH  10  12
ENDBRANCH   4   8
BRANCH   3  19
ATOM     19  C   UNL     1      10.544  -1.946  11.591  0.00  0.00    +0.000 C 
ATOM     20  O   UNL     1      10.196  -2.829  10.745  0.00  0.00    +0.000 OA
ATOM     21  N   UNL     1      11.757  -2.140  12.399  0.00  0.00    +0.000 N 
ATOM     22  H   UNL     1      12.318  -2.984  12.282  0.00  0.00    +0.000 HD
BRANCH  21  23
ATOM     23  O   UNL     1      12.132  -1.189  13.310  0.00  0.00    +0.000 OA
ATOM     24  H   UNL     1      11.317  -0.775  13.715  0.00  0.00    +0.000 HD
ENDBRANCH  21  23
ENDBRANCH   3  19
BRANCH   7  25
ATOM     25  S   UNL     1       6.746  -1.903  14.162  0.00  0.00    +0.000 S 
ATOM     26  O   UNL     1       5.529  -1.530  13.311  0.00  0.00    +0.000 OA
ATOM     27  O   UNL     1       6.558  -3.310  14.734  0.00  0.00    +0.000 OA
BRANCH  25  28
ATOM     28  O   UNL     1       6.907  -0.784  15.446  0.00  0.00    +0.000 OA
ATOM     29  H   UNL     1       7.670  -0.166  15.255  0.00  0.00    +0.000 HD
ENDBRANCH  25  28
ENDBRANCH   7  25
TORSDOF 7
ENDMDL
MODEL 2
REMARK VINA RESULT:    -0.003     12.099     14.192
REMARK INTER + INTRA:          -0.164
REMARK INTER:                   0.000
REMARK INTRA:                  -0.164
REMARK UNBOUND:                -0.160
REMARK  Name = 
REMARK  8 active torsions:
REMARK  status: ('A' for Active; 'I' for Inactive)
REMARK    1  A    between atoms: C_1  and  N_2
REMARK    2  A    between atoms: C_3  and  C_22
REMARK    3  A    between atoms: C_4  and  C_12
REMARK    4  A    between atoms: N_7  and  S_8
REMARK    5  A    between atoms: S_8  and  O_11
REMARK    6  A    between atoms: N_14  and  C_15
REMARK    7  A    between atoms: C_15  and  C_16
REMARK    8  A    between atoms: N_24  and  O_25
REMARK                            x       y       z     vdW  Elec       q    Type
REMARK                         _______ _______ _______ _____ _____    ______ ____
ROOT
ATOM      1  C   UNL     1      15.633   3.556  21.060  0.00  0.00    +0.000 C 
ATOM      2  N   UNL     1      14.370   3.060  21.624  0.00  0.00    +0.000 N 
ATOM      3  C   UNL     1      13.285   3.922  21.768  0.00  0.00    +0.000 A 
ATOM      4  C   UNL     1      13.401   5.299  21.363  0.00  0.00    +0.000 A 
ATOM      5  C   UNL     1      12.279   6.190  21.512  0.00  0.00    +0.000 A 
ATOM      6  O   UNL     1      11.187   5.761  22.001  0.00  0.00    +0.000 OA
ATOM      7  N   UNL     1      14.261   1.774  22.002  0.00  0.00    +0.000 N 
ENDROOT
BRANCH   4   8
ATOM      8  C   UNL     1      14.708   5.812  20.780  0.00  0.00    +0.000 C 
ATOM      9  O   UNL     1      14.934   5.703  19.535  0.00  0.00    +0.000 OA
ATOM     10  N   UNL     1      15.710   6.434  21.657  0.00  0.00    +0.000 N 
ATOM     11  H   UNL     1      16.587   6.778  21.267  0.00  0.00    +0.000 HD
BRANCH  10  12
ATOM     12  C   UNL     1      15.449   6.559  23.099  0.00  0.00    +0.000 C 
BRANCH  12  13
ATOM     13  C   UNL     1      16.708   6.207  23.874  0.00  0.00    +0.000 A 
ATOM     14  C   UNL     1      16.753   5.009  24.671  0.00  0.00    +0.000 A 
ATOM     15  C   UNL     1      15.604   4.142  24.733  0.00  0.00    +0.000 A 
ATOM     16  C   UNL     1      15.649   2.943  25.529  0.00  0.00    +0.000 A 
ATOM     17  C   UNL     1      14.500   2.076  25.590  0.00  0.00    +0.000 A 
ATOM     18  C   UNL     1      17.857   7.074  23.813  0.00  0.00    +0.000 A 
ENDBRANCH  12  13
ENDBRANCH  10  12
ENDBRANCH   4   8
BRANCH   3  19
ATOM     19  C   UNL     1      11.979   3.408  22.352  0.00  0.00    +0.000 C 
ATOM     20  O   UNL     1      11.842   3.308  23.611  0.00  0.00    +0.000 OA
ATOM     21  N   UNL     1      10.874   3.029  21.459  0.00  0.00    +0.000 N 
ATOM     22  H   UNL     1       9.997   2.684  21.852  0.00  0.00    +0.000 HD
BRANCH  21  23
ATOM     23  O   UNL     1      11.022   3.138  20.102  0.00  0.00    +0.000 OA
ATOM     24  H   UNL     1      10.353   2.552  19.646  0.00  0.00    +0.000 HD
ENDBRANCH  21  23
ENDBRANCH   3  19
BRANCH   7  25
ATOM     25  S   UNL     1      15.632   0.685  21.820  0.00  0.00    +0.000 S 
ATOM     26  O   UNL     1      16.813   1.211  22.637  0.00  0.00    +0.000 OA
ATOM     27  O   UNL     1      15.246  -0.710  22.318  0.00  0.00    +0.000 OA
BRANCH  25  28
ATOM     28  O   UNL     1      16.075   0.596  20.169  0.00  0.00    +0.000 OA
ATOM     29  H   UNL     1      16.969   0.155  20.088  0.00  0.00    +0.000 HD
ENDBRANCH  25  28
ENDBRANCH   7  25
TORSDOF 7
ENDMDL
MODEL 3
REMARK VINA RESULT:     0.000     10.182     12.185
REMARK INTER + INTRA:          -0.160
REMARK INTER:                   0.000
REMARK INTRA:                  -0.160
REMARK UNBOUND:                -0.160
REMARK  Name = 
REMARK  8 active torsions:
REMARK  status: ('A' for Active; 'I' for Inactive)
REMARK    1  A    between atoms: C_1  and  N_2
REMARK    2  A    between atoms: C_3  and  C_22
REMARK    3  A    between atoms: C_4  and  C_12
REMARK    4  A    between atoms: N_7  and  S_8
REMARK    5  A    between atoms: S_8  and  O_11
REMARK    6  A    between atoms: N_14  and  C_15
REMARK    7  A    between atoms: C_15  and  C_16
REMARK    8  A    between atoms: N_24  and  O_25
REMARK                            x       y       z     vdW  Elec       q    Type
REMARK                         _______ _______ _______ _____ _____    ______ ____
ROOT
ATOM      1  C   UNL     1       9.029   4.785  20.555  0.00  0.00    +0.000 C 
ATOM      2  N   UNL     1       9.958   5.467  19.643  0.00  0.00    +0.000 N 
ATOM      3  C   UNL     1      11.191   5.915  20.112  0.00  0.00    +0.000 A 
ATOM      4  C   UNL     1      11.555   5.710  21.491  0.00  0.00    +0.000 A 
ATOM      5  C   UNL     1      12.830   6.174  21.975  0.00  0.00    +0.000 A 
ATOM      6  O   UNL     1      13.632   6.764  21.187  0.00  0.00    +0.000 OA
ATOM      7  N   UNL     1       9.619   5.659  18.356  0.00  0.00    +0.000 N 
ENDROOT
BRANCH   4   8
ATOM      8  C   UNL     1      10.593   5.005  22.433  0.00  0.00    +0.000 C 
ATOM      9  O   UNL     1      10.602   3.737  22.518  0.00  0.00    +0.000 OA
ATOM     10  N   UNL     1       9.653   5.790  23.246  0.00  0.00    +0.000 N 
ATOM     11  H   UNL     1       9.007   5.317  23.878  0.00  0.00    +0.000 HD
BRANCH  10  12
ATOM     12  C   UNL     1       9.642   7.256  23.147  0.00  0.00    +0.000 C 
BRANCH  12  13
ATOM     13  C   UNL     1       8.205   7.752  23.126  0.00  0.00    +0.000 A 
ATOM     14  C   UNL     1       7.662   8.340  21.929  0.00  0.00    +0.000 A 
ATOM     15  C   UNL     1       8.481   8.458  20.750  0.00  0.00    +0.000 A 
ATOM     16  C   UNL     1       7.938   9.044  19.552  0.00  0.00    +0.000 A 
ATOM     17  C   UNL     1       8.757   9.162  18.373  0.00  0.00    +0.000 A 
ATOM     18  C   UNL     1       7.387   7.635  24.305  0.00  0.00    +0.000 A 
ENDBRANCH  12  13
ENDBRANCH  10  12
ENDBRANCH   4   8
BRANCH   3  19
ATOM     19  C   UNL     1      12.152   6.622  19.169  0.00  0.00    +0.000 C 
ATOM     20  O   UNL     1      11.997   7.856  18.912  0.00  0.00    +0.000 OA
ATOM     21  N   UNL     1      13.260   5.876  18.556  0.00  0.00    +0.000 N 
ATOM     22  H   UNL     1      13.905   6.349  17.923  0.00  0.00    +0.000 HD
BRANCH  21  23
ATOM     23  O   UNL     1      13.426   4.544  18.833  0.00  0.00    +0.000 OA
ATOM     24  H   UNL     1      14.087   4.438  19.575  0.00  0.00    +0.000 HD
ENDBRANCH  21  23
ENDBRANCH   3  19
BRANCH   7  25
ATOM     25  S   UNL     1       8.062   5.092  17.763  0.00  0.00    +0.000 S 
ATOM     26  O   UNL     1       6.938   5.770  18.550  0.00  0.00    +0.000 OA
ATOM     27  O   UNL     1       7.925   5.436  16.278  0.00  0.00    +0.000 OA
BRANCH  25  28
ATOM     28  O   UNL     1       7.957   3.397  17.966  0.00  0.00    +0.000 OA
ATOM     29  H   UNL     1       8.869   2.995  17.885  0.00  0.00    +0.000 HD
ENDBRANCH  25  28
ENDBRANCH   7  25
TORSDOF 7
ENDMDL
MODEL 4
REMARK VINA RESULT:     0.001      9.875     12.419
REMARK INTER + INTRA:          -0.159
REMARK INTER:                   0.000
REMARK INTRA:                  -0.159
REMARK UNBOUND:                -0.160
REMARK  Name = 
REMARK  8 active torsions:
REMARK  status: ('A' for Active; 'I' for Inactive)
REMARK    1  A    between atoms: C_1  and  N_2
REMARK    2  A    between atoms: C_3  and  C_22
REMARK    3  A    between atoms: C_4  and  C_12
REMARK    4  A    between atoms: N_7  and  S_8
REMARK    5  A    between atoms: S_8  and  O_11
REMARK    6  A    between atoms: N_14  and  C_15
REMARK    7  A    between atoms: C_15  and  C_16
REMARK    8  A    between atoms: N_24  and  O_25
REMARK                            x       y       z     vdW  Elec       q    Type
REMARK                         _______ _______ _______ _____ _____    ______ ____
ROOT
ATOM      1  C   UNL     1      16.698   3.777  15.241  0.00  0.00    +0.000 C 
ATOM      2  N   UNL     1      16.267   5.137  14.885  0.00  0.00    +0.000 N 
ATOM      3  C   UNL     1      17.161   6.012  14.273  0.00  0.00    +0.000 A 
ATOM      4  C   UNL     1      18.507   5.586  13.990  0.00  0.00    +0.000 A 
ATOM      5  C   UNL     1      19.431   6.492  13.357  0.00  0.00    +0.000 A 
ATOM      6  O   UNL     1      19.059   7.667  13.050  0.00  0.00    +0.000 OA
ATOM      7  N   UNL     1      15.010   5.535  15.149  0.00  0.00    +0.000 N 
ENDROOT
BRANCH   4   8
ATOM      8  C   UNL     1      18.952   4.180  14.359  0.00  0.00    +0.000 C 
ATOM      9  O   UNL     1      18.761   3.220  13.550  0.00  0.00    +0.000 OA
ATOM     10  N   UNL     1      19.604   3.932  15.653  0.00  0.00    +0.000 N 
ATOM     11  H   UNL     1      19.902   2.989  15.902  0.00  0.00    +0.000 HD
BRANCH  10  12
ATOM     12  C   UNL     1      19.825   5.043  16.590  0.00  0.00    +0.000 C 
BRANCH  12  13
ATOM     13  C   UNL     1      19.492   4.589  18.002  0.00  0.00    +0.000 A 
ATOM     14  C   UNL     1      18.345   5.131  18.683  0.00  0.00    +0.000 A 
ATOM     15  C   UNL     1      17.511   6.104  18.026  0.00  0.00    +0.000 A 
ATOM     16  C   UNL     1      16.364   6.646  18.706  0.00  0.00    +0.000 A 
ATOM     17  C   UNL     1      15.530   7.619  18.049  0.00  0.00    +0.000 A 
ATOM     18  C   UNL     1      20.326   3.616  18.660  0.00  0.00    +0.000 A 
ENDBRANCH  12  13
ENDBRANCH  10  12
ENDBRANCH   4   8
BRANCH   3  19
ATOM     19  C   UNL     1      16.715   7.418  13.905  0.00  0.00    +0.000 C 
ATOM     20  O   UNL     1      16.697   8.331  14.788  0.00  0.00    +0.000 OA
ATOM     21  N   UNL     1      16.306   7.722  12.525  0.00  0.00    +0.000 N 
ATOM     22  H   UNL     1      16.007   8.665  12.279  0.00  0.00    +0.000 HD
BRANCH  21  23
ATOM     23  O   UNL     1      16.325   6.737  11.573  0.00  0.00    +0.000 OA
ATOM     24  H   UNL     1      17.037   6.937  10.901  0.00  0.00    +0.000 HD
ENDBRANCH  21  23
ENDBRANCH   3  19
BRANCH   7  25
ATOM     25  S   UNL     1      13.880   4.429  15.921  0.00  0.00    +0.000 S 
ATOM     26  O   UNL     1      14.431   4.007  17.285  0.00  0.00    +0.000 OA
ATOM     27  O   UNL     1      12.530   5.125  16.108  0.00  0.00    +0.000 OA
BRANCH  25  28
ATOM     28  O   UNL     1      13.675   3.044  14.937  0.00  0.00    +0.000 OA
ATOM     29  H   UNL     1      14.367   3.043  14.215  0.00  0.00    +0.000 HD
ENDBRANCH  25  28
ENDBRANCH   7  25
TORSDOF 7
ENDMDL
MODEL 5
REMARK VINA RESULT:     0.002     11.902     14.255
REMARK INTER + INTRA:          -0.157
REMARK INTER:                   0.000
REMARK INTRA:                  -0.157
REMARK UNBOUND:                -0.160
REMARK  Name = 
REMARK  8 active torsions:
REMARK  status: ('A' for Active; 'I' for Inactive)
REMARK    1  A    between atoms: C_1  and  N_2
REMARK    2  A    between atoms: C_3  and  C_22
REMARK    3  A    between atoms: C_4  and  C_12
REMARK    4  A    between atoms: N_7  and  S_8
REMARK    5  A    between atoms: S_8  and  O_11
REMARK    6  A    between atoms: N_14  and  C_15
REMARK    7  A    between atoms: C_15  and  C_16
REMARK    8  A    between atoms: N_24  and  O_25
REMARK                            x       y       z     vdW  Elec       q    Type
REMARK                         _______ _______ _______ _____ _____    ______ ____
ROOT
ATOM      1  C   UNL     1      12.841  12.501  17.418  0.00  0.00    +0.000 C 
ATOM      2  N   UNL     1      12.302  11.146  17.606  0.00  0.00    +0.000 N 
ATOM      3  C   UNL     1      12.978  10.235  18.416  0.00  0.00    +0.000 A 
ATOM      4  C   UNL     1      14.203  10.620  19.067  0.00  0.00    +0.000 A 
ATOM      5  C   UNL     1      14.901   9.677  19.904  0.00  0.00    +0.000 A 
ATOM      6  O   UNL     1      14.436   8.506  20.066  0.00  0.00    +0.000 OA
ATOM      7  N   UNL     1      11.158  10.786  16.998  0.00  0.00    +0.000 N 
ENDROOT
BRANCH   4   8
ATOM      8  C   UNL     1      14.759  12.021  18.872  0.00  0.00    +0.000 C 
ATOM      9  O   UNL     1      14.372  12.969  19.624  0.00  0.00    +0.000 OA
ATOM     10  N   UNL     1      15.745  12.279  17.812  0.00  0.00    +0.000 N 
ATOM     11  H   UNL     1      16.118  13.219  17.680  0.00  0.00    +0.000 HD
BRANCH  10  12
ATOM     12  C   UNL     1      16.192  11.182  16.941  0.00  0.00    +0.000 C 
BRANCH  12  13
ATOM     13  C   UNL     1      16.268  11.675  15.505  0.00  0.00    +0.000 A 
ATOM     14  C   UNL     1      15.341  11.177  14.522  0.00  0.00    +0.000 A 
ATOM     15  C   UNL     1      14.340  10.212  14.900  0.00  0.00    +0.000 A 
ATOM     16  C   UNL     1      13.412   9.715  13.917  0.00  0.00    +0.000 A 
ATOM     17  C   UNL     1      12.412   8.750  14.295  0.00  0.00    +0.000 A 
ATOM     18  C   UNL     1      17.268  12.639  15.127  0.00  0.00    +0.000 A 
ENDBRANCH  12  13
ENDBRANCH  10  12
ENDBRANCH   4   8
BRANCH   3  19
ATOM     19  C   UNL     1      12.421   8.833  18.610  0.00  0.00    +0.000 C 
ATOM     20  O   UNL     1      12.627   7.940  17.730  0.00  0.00    +0.000 OA
ATOM     21  N   UNL     1      11.645   8.512  19.817  0.00  0.00    +0.000 N 
ATOM     22  H   UNL     1      11.272   7.571  19.947  0.00  0.00    +0.000 HD
BRANCH  21  23
ATOM     23  O   UNL     1      11.423   9.475  20.765  0.00  0.00    +0.000 OA
ATOM     24  H   UNL     1      11.254   9.040  21.649  0.00  0.00    +0.000 HD
ENDBRANCH  21  23
ENDBRANCH   3  19
BRANCH   7  25
ATOM     25  S   UNL     1      10.305  11.937  15.977  0.00  0.00    +0.000 S 
ATOM     26  O   UNL     1      11.214  12.368  14.824  0.00  0.00    +0.000 OA
ATOM     27  O   UNL     1       9.042  11.282  15.414  0.00  0.00    +0.000 OA
BRANCH  25  28
ATOM     28  O   UNL     1       9.871  13.309  16.903  0.00  0.00    +0.000 OA
ATOM     29  H   UNL     1       8.931  13.572  16.687  0.00  0.00    +0.000 HD
ENDBRANCH  25  28
ENDBRANCH   7  25
TORSDOF 7
ENDMDL
