MODEL 1
REMARK VINA RESULT:    -0.000      0.000      0.000
REMARK INTER + INTRA:           0.169
REMARK INTER:                   0.000
REMARK INTRA:                   0.169
REMARK UNBOUND:                 0.169
REMARK  Name = 
REMARK  8 active torsions:
REMARK  status: ('A' for Active; 'I' for Inactive)
REMARK    1  A    between atoms: C_1  and  C_2
REMARK    2  A    between atoms: C_4  and  O_28
REMARK    3  A    between atoms: C_9  and  C_16
REMARK    4  A    between atoms: C_10  and  C_11
REMARK    5  A    between atoms: C_10  and  O_15
REMARK    6  A    between atoms: C_11  and  C_13
REMARK    7  A    between atoms: C_13  and  O_14
REMARK    8  A    between atoms: C_25  and  C_26
REMARK                            x       y       z     vdW  Elec       q    Type
REMARK                         _______ _______ _______ _____ _____    ______ ____
ROOT
ATOM      1  C   UNL     1      13.296   6.447   9.069  0.00  0.00    +0.000 C 
ATOM      2  C   UNL     1      12.916   6.958   7.689  0.00  0.00    +0.000 C 
ATOM      3  C   UNL     1      13.220   8.444   7.598  0.00  0.00    +0.000 C 
ATOM      4  C   UNL     1      12.418   9.190   8.651  0.00  0.00    +0.000 C 
ATOM      5  C   UNL     1      12.797   8.680  10.032  0.00  0.00    +0.000 C 
ATOM      6  C   UNL     1      11.995   9.426  11.086  0.00  0.00    +0.000 C 
ATOM      7  C   UNL     1      10.555   9.472   7.036  0.00  0.00    +0.000 C 
ATOM      8  C   UNL     1      10.934   8.961   8.416  0.00  0.00    +0.000 C 
ATOM      9  C   UNL     1      10.630   7.475   8.507  0.00  0.00    +0.000 C 
ATOM     10  C   UNL     1      11.432   6.728   7.453  0.00  0.00    +0.000 C 
ATOM     11  C   UNL     1      11.010   6.963   9.888  0.00  0.00    +0.000 C 
ATOM     12  C   UNL     1      12.375   8.916  12.467  0.00  0.00    +0.000 C 
ATOM     13  C   UNL     1      13.859   9.145  12.702  0.00  0.00    +0.000 C 
ATOM     14  C   UNL     1      14.161  10.632  12.611  0.00  0.00    +0.000 C 
ATOM     15  C   UNL     1      13.903  11.309  11.460  0.00  0.00    +0.000 C 
ATOM     16  C   UNL     1      13.310  10.580  10.265  0.00  0.00    +0.000 C 
ATOM     17  O   UNL     1      13.068  11.213   9.191  0.00  0.00    +0.000 OA
ATOM     18  C   UNL     1      13.007   9.093  10.356  0.00  0.00    +0.000 C 
ATOM     19  C   UNL     1      13.266   8.416  11.507  0.00  0.00    +0.000 C 
ATOM     20  C   UNL     1      14.281   8.909  10.267  0.00  0.00    +0.000 C 
ATOM     21  C   UNL     1      15.082   8.164   9.213  0.00  0.00    +0.000 C 
ATOM     22  F   UNL     1      12.531   7.379  10.112  0.00  0.00    +0.000 F 
ENDROOT
BRANCH  10  23
ATOM     23  C   UNL     1      11.129   5.241   7.544  0.00  0.00    +0.000 C 
ATOM     24  O   UNL     1      10.025   5.001   8.127  0.00  0.00    +0.000 OA
BRANCH  23  25
ATOM     25  C   UNL     1      11.974   4.095   7.013  0.00  0.00    +0.000 C 
BRANCH  25  26
ATOM     26  O   UNL     1      12.148   4.244   5.612  0.00  0.00    +0.000 OA
ATOM     27  H   UNL     1      12.201   3.341   5.185  0.00  0.00    +0.000 HD
ENDBRANCH  25  26
ENDBRANCH  23  25
ENDBRANCH  10  23
BRANCH  10  28
ATOM     28  O   UNL     1      11.078   7.205   6.164  0.00  0.00    +0.000 OA
ATOM     29  H   UNL     1      11.450   6.600   5.460  0.00  0.00    +0.000 HD
ENDBRANCH  10  28
BRANCH   4  30
ATOM     30  O   UNL     1      12.701  10.579   8.566  0.00  0.00    +0.000 OA
ATOM     31  H   UNL     1      12.722  10.971   9.486  0.00  0.00    +0.000 HD
ENDBRANCH   4  30
TORSDOF 5
ENDMDL
MODEL 2
REMARK VINA RESULT:    -0.000      4.915      7.523
REMARK INTER + INTRA:           0.169
REMARK INTER:                   0.000
REMARK INTRA:                   0.169
REMARK UNBOUND:                 0.169
REMARK  Name = 
REMARK  8 active torsions:
REMARK  status: ('A' for Active; 'I' for Inactive)
REMARK    1  A    between atoms: C_1  and  C_2
REMARK    2  A    between atoms: C_4  and  O_28
REMARK    3  A    between atoms: C_9  and  C_16
REMARK    4  A    between atoms: C_10  and  C_11
REMARK    5  A    between atoms: C_10  and  O_15
REMARK    6  A    between atoms: C_11  and  C_13
REMARK    7  A    between atoms: C_13  and  O_14
REMARK    8  A    between atoms: C_25  and  C_26
REMARK                            x       y       z     vdW  Elec       q    Type
REMARK                         _______ _______ _______ _____ _____    ______ ____
ROOT
ATOM      1  C   UNL     1       6.872  10.975   7.112  0.00  0.00    +0.000 C 
ATOM      2  C   UNL     1       6.565   9.784   8.004  0.00  0.00    +0.000 C 
ATOM      3  C   UNL     1       7.733   8.811   7.969  0.00  0.00    +0.000 C 
ATOM      4  C   UNL     1       7.952   8.334   6.544  0.00  0.00    +0.000 C 
ATOM      5  C   UNL     1       8.260   9.526   5.652  0.00  0.00    +0.000 C 
ATOM      6  C   UNL     1       8.479   9.049   4.225  0.00  0.00    +0.000 C 
ATOM      7  C   UNL     1       6.391   6.444   6.934  0.00  0.00    +0.000 C 
ATOM      8  C   UNL     1       6.698   7.637   6.044  0.00  0.00    +0.000 C 
ATOM      9  C   UNL     1       5.530   8.609   6.077  0.00  0.00    +0.000 C 
ATOM     10  C   UNL     1       5.310   9.087   7.504  0.00  0.00    +0.000 C 
ATOM     11  C   UNL     1       5.837   9.802   5.186  0.00  0.00    +0.000 C 
ATOM     12  C   UNL     1       8.787  10.240   3.333  0.00  0.00    +0.000 C 
ATOM     13  C   UNL     1      10.041  10.938   3.833  0.00  0.00    +0.000 C 
ATOM     14  C   UNL     1      11.209   9.965   3.799  0.00  0.00    +0.000 C 
ATOM     15  C   UNL     1      11.159   8.817   4.527  0.00  0.00    +0.000 C 
ATOM     16  C   UNL     1       9.936   8.505   5.373  0.00  0.00    +0.000 C 
ATOM     17  O   UNL     1       9.890   7.432   6.052  0.00  0.00    +0.000 OA
ATOM     18  C   UNL     1       8.768   9.478   5.408  0.00  0.00    +0.000 C 
ATOM     19  C   UNL     1       8.818  10.627   4.681  0.00  0.00    +0.000 C 
ATOM     20  C   UNL     1       9.514  10.223   6.152  0.00  0.00    +0.000 C 
ATOM     21  C   UNL     1       9.294  10.700   7.578  0.00  0.00    +0.000 C 
ATOM     22  F   UNL     1       7.238  10.376   5.682  0.00  0.00    +0.000 F 
ENDROOT
BRANCH  10  23
ATOM     23  C   UNL     1       4.142  10.059   7.538  0.00  0.00    +0.000 C 
ATOM     24  O   UNL     1       3.371   9.935   6.536  0.00  0.00    +0.000 OA
BRANCH  23  25
ATOM     25  C   UNL     1       3.833  11.088   8.613  0.00  0.00    +0.000 C 
BRANCH  25  26
ATOM     26  O   UNL     1       3.668  10.433   9.862  0.00  0.00    +0.000 OA
ATOM     27  H   UNL     1       4.220  10.896  10.556  0.00  0.00    +0.000 HD
ENDBRANCH  25  26
ENDBRANCH  23  25
ENDBRANCH  10  23
BRANCH  10  28
ATOM     28  O   UNL     1       5.024   7.973   8.336  0.00  0.00    +0.000 OA
ATOM     29  H   UNL     1       5.821   7.750   8.898  0.00  0.00    +0.000 HD
ENDBRANCH  10  28
BRANCH   4  30
ATOM     30  O   UNL     1       9.043   7.425   6.511  0.00  0.00    +0.000 OA
ATOM     31  H   UNL     1       9.498   7.483   5.622  0.00  0.00    +0.000 HD
ENDBRANCH   4  30
TORSDOF 5
ENDMDL
MODEL 3
REMARK VINA RESULT:    -0.000      6.406      8.734
REMARK INTER + INTRA:           0.169
REMARK INTER:                   0.000
REMARK INTRA:                   0.169
REMARK UNBOUND:                 0.169
REMARK  Name = 
REMARK  8 active torsions:
REMARK  status: ('A' for Active; 'I' for Inactive)
REMARK    1  A    between atoms: C_1  and  C_2
REMARK    2  A    between atoms: C_4  and  O_28
REMARK    3  A    between atoms: C_9  and  C_16
REMARK    4  A    between atoms: C_10  and  C_11
REMARK    5  A    between atoms: C_10  and  O_15
REMARK    6  A    between atoms: C_11  and  C_13
REMARK    7  A    between atoms: C_13  and  O_14
REMARK    8  A    between atoms: C_25  and  C_26
REMARK                            x       y       z     vdW  Elec       q    Type
REMARK                         _______ _______ _______ _____ _____    ______ ____
ROOT
ATOM      1  C   UNL     1      14.915   2.906  11.454  0.00  0.00    +0.000 C 
ATOM      2  C   UNL     1      15.358   3.996  10.492  0.00  0.00    +0.000 C 
ATOM      3  C   UNL     1      16.268   3.396   9.432  0.00  0.00    +0.000 C 
ATOM      4  C   UNL     1      17.488   2.784  10.100  0.00  0.00    +0.000 C 
ATOM      5  C   UNL     1      17.045   1.694  11.062  0.00  0.00    +0.000 C 
ATOM      6  C   UNL     1      18.266   1.081  11.731  0.00  0.00    +0.000 C 
ATOM      7  C   UNL     1      18.685   4.949   9.903  0.00  0.00    +0.000 C 
ATOM      8  C   UNL     1      18.241   3.860  10.865  0.00  0.00    +0.000 C 
ATOM      9  C   UNL     1      17.332   4.459  11.924  0.00  0.00    +0.000 C 
ATOM     10  C   UNL     1      16.111   5.072  11.256  0.00  0.00    +0.000 C 
ATOM     11  C   UNL     1      16.888   3.370  12.888  0.00  0.00    +0.000 C 
ATOM     12  C   UNL     1      17.823  -0.009  12.694  0.00  0.00    +0.000 C 
ATOM     13  C   UNL     1      17.070  -1.085  11.929  0.00  0.00    +0.000 C 
ATOM     14  C   UNL     1      17.980  -1.684  10.870  0.00  0.00    +0.000 C 
ATOM     15  C   UNL     1      18.501  -0.893   9.894  0.00  0.00    +0.000 C 
ATOM     16  C   UNL     1      18.175   0.591   9.864  0.00  0.00    +0.000 C 
ATOM     17  O   UNL     1      18.663   1.331   8.953  0.00  0.00    +0.000 OA
ATOM     18  C   UNL     1      17.265   1.191  10.923  0.00  0.00    +0.000 C 
ATOM     19  C   UNL     1      16.743   0.399  11.898  0.00  0.00    +0.000 C 
ATOM     20  C   UNL     1      16.292   0.618  10.298  0.00  0.00    +0.000 C 
ATOM     21  C   UNL     1      15.073   1.230   9.630  0.00  0.00    +0.000 C 
ATOM     22  F   UNL     1      16.250   2.219  11.990  0.00  0.00    +0.000 F 
ENDROOT
BRANCH  10  23
ATOM     23  C   UNL     1      15.201   5.672  12.316  0.00  0.00    +0.000 C 
ATOM     24  O   UNL     1      15.810   5.917  13.404  0.00  0.00    +0.000 OA
BRANCH  23  25
ATOM     25  C   UNL     1      13.722   5.996  12.183  0.00  0.00    +0.000 C 
BRANCH  25  26
ATOM     26  O   UNL     1      13.534   6.919  11.120  0.00  0.00    +0.000 OA
ATOM     27  H   UNL     1      14.120   7.716  11.262  0.00  0.00    +0.000 HD
ENDBRANCH  25  26
ENDBRANCH  23  25
ENDBRANCH  10  23
BRANCH  10  28
ATOM     28  O   UNL     1      16.525   6.089  10.357  0.00  0.00    +0.000 OA
ATOM     29  H   UNL     1      15.908   6.874  10.417  0.00  0.00    +0.000 HD
ENDBRANCH  10  28
BRANCH   4  30
ATOM     30  O   UNL     1      18.339   2.223   9.111  0.00  0.00    +0.000 OA
ATOM     31  H   UNL     1      18.694   1.347   9.435  0.00  0.00    +0.000 HD
ENDBRANCH   4  30
TORSDOF 5
ENDMDL
MODEL 4
REMARK VINA RESULT:     0.000      6.224      9.314
REMARK INTER + INTRA:           0.169
REMARK INTER:                   0.000
REMARK INTRA:                   0.169
REMARK UNBOUND:                 0.169
REMARK  Name = 
REMARK  8 active torsions:
REMARK  status: ('A' for Active; 'I' for Inactive)
REMARK    1  A    between atoms: C_1  and  C_2
REMARK    2  A    between atoms: C_4  and  O_28
REMARK    3  A    between atoms: C_9  and  C_16
REMARK    4  A    between atoms: C_10  and  C_11
REMARK    5  A    between atoms: C_10  and  O_15
REMARK    6  A    between atoms: C_11  and  C_13
REMARK    7  A    between atoms: C_13  and  O_14
REMARK    8  A    between atoms: C_25  and  C_26
REMARK                            x       y       z     vdW  Elec       q    Type
REMARK                         _______ _______ _______ _____ _____    ______ ____
ROOT
ATOM      1  C   UNL     1      11.409  16.412  12.223  0.00  0.00    +0.000 C 
ATOM      2  C   UNL     1      10.380  15.812  13.167  0.00  0.00    +0.000 C 
ATOM      3  C   UNL     1      10.195  14.338  12.843  0.00  0.00    +0.000 C 
ATOM      4  C   UNL     1       9.714  14.191  11.410  0.00  0.00    +0.000 C 
ATOM      5  C   UNL     1      10.743  14.792  10.466  0.00  0.00    +0.000 C 
ATOM      6  C   UNL     1      10.262  14.645   9.031  0.00  0.00    +0.000 C 
ATOM      7  C   UNL     1       7.359  14.316  12.185  0.00  0.00    +0.000 C 
ATOM      8  C   UNL     1       8.389  14.917  11.243  0.00  0.00    +0.000 C 
ATOM      9  C   UNL     1       8.573  16.390  11.566  0.00  0.00    +0.000 C 
ATOM     10  C   UNL     1       9.055  16.538  13.000  0.00  0.00    +0.000 C 
ATOM     11  C   UNL     1       9.603  16.992  10.622  0.00  0.00    +0.000 C 
ATOM     12  C   UNL     1      11.291  15.245   8.087  0.00  0.00    +0.000 C 
ATOM     13  C   UNL     1      12.616  14.520   8.254  0.00  0.00    +0.000 C 
ATOM     14  C   UNL     1      12.431  13.046   7.930  0.00  0.00    +0.000 C 
ATOM     15  C   UNL     1      11.553  12.297   8.651  0.00  0.00    +0.000 C 
ATOM     16  C   UNL     1      10.757  12.933   9.778  0.00  0.00    +0.000 C 
ATOM     17  O   UNL     1       9.937  12.233  10.450  0.00  0.00    +0.000 OA
ATOM     18  C   UNL     1      10.942  14.407  10.102  0.00  0.00    +0.000 C 
ATOM     19  C   UNL     1      11.820  15.156   9.382  0.00  0.00    +0.000 C 
ATOM     20  C   UNL     1      12.068  14.066  10.633  0.00  0.00    +0.000 C 
ATOM     21  C   UNL     1      12.549  14.213  12.066  0.00  0.00    +0.000 C 
ATOM     22  F   UNL     1      10.904  16.081  10.748  0.00  0.00    +0.000 F 
ENDROOT
BRANCH  10  23
ATOM     23  C   UNL     1       9.239  18.011  13.324  0.00  0.00    +0.000 C 
ATOM     24  O   UNL     1       8.580  18.771  12.547  0.00  0.00    +0.000 OA
BRANCH  23  25
ATOM     25  C   UNL     1      10.081  18.610  14.439  0.00  0.00    +0.000 C 
BRANCH  25  26
ATOM     26  O   UNL     1       9.627  18.119  15.691  0.00  0.00    +0.000 OA
ATOM     27  H   UNL     1       8.769  17.622  15.563  0.00  0.00    +0.000 HD
ENDBRANCH  25  26
ENDBRANCH  23  25
ENDBRANCH  10  23
BRANCH  10  28
ATOM     28  O   UNL     1       8.094  15.976  13.881  0.00  0.00    +0.000 OA
ATOM     29  H   UNL     1       7.288  16.566  13.932  0.00  0.00    +0.000 HD
ENDBRANCH  10  28
BRANCH   4  30
ATOM     30  O   UNL     1       9.541  12.815  11.106  0.00  0.00    +0.000 OA
ATOM     31  H   UNL     1      10.253  12.281  11.563  0.00  0.00    +0.000 HD
ENDBRANCH   4  30
TORSDOF 5
ENDMDL
MODEL 5
REMARK VINA RESULT:     0.000      6.202      8.864
REMARK INTER + INTRA:           0.170
REMARK INTER:                   0.000
REMARK INTRA:                   0.170
REMARK UNBOUND:                 0.169
REMARK  Name = 
REMARK  8 active torsions:
REMARK  status: ('A' for Active; 'I' for Inactive)
REMARK    1  A    between atoms: C_1  and  C_2
REMARK    2  A    between atoms: C_4  and  O_28
REMARK    3  A    between atoms: C_9  and  C_16
REMARK    4  A    between atoms: C_10  and  C_11
REMARK    5  A    between atoms: C_10  and  O_15
REMARK    6  A    between atoms: C_11  and  C_13
REMARK    7  A    between atoms: C_13  and  O_14
REMARK    8  A    between atoms: C_25  and  C_26
REMARK                            x       y       z     vdW  Elec       q    Type
REMARK                         _______ _______ _______ _____ _____    ______ ____
ROOT
ATOM      1  C   UNL     1       7.265  14.592  10.407  0.00  0.00    +0.000 C 
ATOM      2  C   UNL     1       8.446  15.296  11.054  0.00  0.00    +0.000 C 
ATOM      3  C   UNL     1       9.635  14.351  11.102  0.00  0.00    +0.000 C 
ATOM      4  C   UNL     1       9.271  13.120  11.916  0.00  0.00    +0.000 C 
ATOM      5  C   UNL     1       8.090  12.416  11.269  0.00  0.00    +0.000 C 
ATOM      6  C   UNL     1       7.726  11.184  12.083  0.00  0.00    +0.000 C 
ATOM      7  C   UNL     1      10.081  14.243  13.977  0.00  0.00    +0.000 C 
ATOM      8  C   UNL     1       8.900  13.539  13.329  0.00  0.00    +0.000 C 
ATOM      9  C   UNL     1       7.711  14.484  13.282  0.00  0.00    +0.000 C 
ATOM     10  C   UNL     1       8.074  15.715  12.467  0.00  0.00    +0.000 C 
ATOM     11  C   UNL     1       6.529  13.780  12.634  0.00  0.00    +0.000 C 
ATOM     12  C   UNL     1       6.545  10.480  11.436  0.00  0.00    +0.000 C 
ATOM     13  C   UNL     1       6.916  10.061  10.023  0.00  0.00    +0.000 C 
ATOM     14  C   UNL     1       8.105   9.116  10.072  0.00  0.00    +0.000 C 
ATOM     15  C   UNL     1       9.283   9.531  10.611  0.00  0.00    +0.000 C 
ATOM     16  C   UNL     1       9.410  10.940  11.167  0.00  0.00    +0.000 C 
ATOM     17  O   UNL     1      10.510  11.328  11.671  0.00  0.00    +0.000 OA
ATOM     18  C   UNL     1       8.220  11.886  11.119  0.00  0.00    +0.000 C 
ATOM     19  C   UNL     1       7.043  11.471  10.579  0.00  0.00    +0.000 C 
ATOM     20  C   UNL     1       8.462  11.997   9.856  0.00  0.00    +0.000 C 
ATOM     21  C   UNL     1       8.825  13.228   9.043  0.00  0.00    +0.000 C 
ATOM     22  F   UNL     1       7.050  13.243  11.228  0.00  0.00    +0.000 F 
ENDROOT
BRANCH  10  23
ATOM     23  C   UNL     1       6.885  16.661  12.420  0.00  0.00    +0.000 C 
ATOM     24  O   UNL     1       6.058  16.457  13.363  0.00  0.00    +0.000 OA
BRANCH  23  25
ATOM     25  C   UNL     1       6.630  17.769  11.412  0.00  0.00    +0.000 C 
BRANCH  25  26
ATOM     26  O   UNL     1       7.704  18.698  11.447  0.00  0.00    +0.000 OA
ATOM     27  H   UNL     1       8.112  18.700  12.359  0.00  0.00    +0.000 HD
ENDBRANCH  25  26
ENDBRANCH  23  25
ENDBRANCH  10  23
BRANCH  10  28
ATOM     28  O   UNL     1       9.178  16.372  13.072  0.00  0.00    +0.000 OA
ATOM     29  H   UNL     1      10.023  15.876  12.874  0.00  0.00    +0.000 HD
ENDBRANCH  10  28
BRANCH   4  30
ATOM     30  O   UNL     1      10.382  12.237  11.961  0.00  0.00    +0.000 OA
ATOM     31  H   UNL     1      10.091  11.321  11.684  0.00  0.00    +0.000 HD
ENDBRANCH   4  30
TORSDOF 5
ENDMDL
