MODEL 1
REMARK VINA RESULT:    -0.000      0.000      0.000
REMARK INTER + INTRA:          -0.131
REMARK INTER:                   0.000
REMARK INTRA:                  -0.131
REMARK UNBOUND:                -0.131
REMARK  Name = 
REMARK  6 active torsions:
REMARK  status: ('A' for Active; 'I' for Inactive)
REMARK    1  A    between atoms: C_1  and  O_2
REMARK    2  A    between atoms: O_2  and  C_3
REMARK    3  A    between atoms: C_3  and  C_5
REMARK    4  A    between atoms: C_6  and  C_7
REMARK    5  A    between atoms: C_7  and  O_9
REMARK    6  A    between atoms: O_9  and  C_10
REMARK                            x       y       z     vdW  Elec       q    Type
REMARK                         _______ _______ _______ _____ _____    ______ ____
ROOT
ATOM      1  C   UNL     1       7.799   8.486  15.229  0.00  0.00    +0.000 C 
ATOM      2  C   UNL     1       8.496   9.532  14.710  0.00  0.00    +0.000 C 
ENDROOT
BRANCH   1   3
ATOM      3  C   UNL     1       6.349   8.265  14.828  0.00  0.00    +0.000 C 
ATOM      4  O   UNL     1       5.717   7.252  15.263  0.00  0.00    +0.000 OA
BRANCH   3   6
ATOM      5  C   UNL     1       5.366   8.812  12.641  0.00  0.00    +0.000 C 
ATOM      6  O   UNL     1       5.702   9.191  13.968  0.00  0.00    +0.000 OA
ENDBRANCH   3   6
ENDBRANCH   1   3
BRANCH   2   7
ATOM      7  C   UNL     1       9.946   9.752  15.111  0.00  0.00    +0.000 C 
ATOM      8  O   UNL     1      10.617  10.692  14.578  0.00  0.00    +0.000 OA
BRANCH   7   9
ATOM      9  O   UNL     1      10.551   8.909  16.079  0.00  0.00    +0.000 OA
ATOM     10  C   UNL     1      11.558   7.987  15.689  0.00  0.00    +0.000 C 
ENDBRANCH   7   9
ENDBRANCH   2   7
TORSDOF 4
ENDMDL
MODEL 2
REMARK VINA RESULT:    -0.000      8.245      9.547
REMARK INTER + INTRA:          -0.131
REMARK INTER:                   0.000
REMARK INTRA:                  -0.131
REMARK UNBOUND:                -0.131
REMARK  Name = 
REMARK  6 active torsions:
REMARK  status: ('A' for Active; 'I' for Inactive)
REMARK    1  A    between atoms: C_1  and  O_2
REMARK    2  A    between atoms: O_2  and  C_3
REMARK    3  A    between atoms: C_3  and  C_5
REMARK    4  A    between atoms: C_6  and  C_7
REMARK    5  A    between atoms: C_7  and  O_9
REMARK    6  A    between atoms: O_9  and  C_10
REMARK                            x       y       z     vdW  Elec       q    Type
REMARK                         _______ _______ _______ _____ _____    ______ ____
ROOT
ATOM      1  C   UNL     1       8.539  16.253  20.233  0.00  0.00    +0.000 C 
ATOM      2  C   UNL     1       8.057  15.041  19.845  0.00  0.00    +0.000 C 
ENDROOT
BRANCH   1   3
ATOM      3  C   UNL     1       9.189  17.174  19.213  0.00  0.00    +0.000 C 
ATOM      4  O   UNL     1       9.581  18.331  19.561  0.00  0.00    +0.000 OA
BRANCH   3   6
ATOM      5  C   UNL     1       8.588  17.330  16.833  0.00  0.00    +0.000 C 
ATOM      6  O   UNL     1       9.357  16.740  17.872  0.00  0.00    +0.000 OA
ENDBRANCH   3   6
ENDBRANCH   1   3
BRANCH   2   7
ATOM      7  C   UNL     1       7.407  14.121  20.865  0.00  0.00    +0.000 C 
ATOM      8  O   UNL     1       6.900  13.016  20.493  0.00  0.00    +0.000 OA
BRANCH   7   9
ATOM      9  O   UNL     1       7.365  14.494  22.235  0.00  0.00    +0.000 OA
ATOM     10  C   UNL     1       6.129  14.843  22.840  0.00  0.00    +0.000 C 
ENDBRANCH   7   9
ENDBRANCH   2   7
TORSDOF 4
ENDMDL
MODEL 3
REMARK VINA RESULT:    -0.000      9.297     11.341
REMARK INTER + INTRA:          -0.131
REMARK INTER:                   0.000
REMARK INTRA:                  -0.131
REMARK UNBOUND:                -0.131
REMARK  Name = 
REMARK  6 active torsions:
REMARK  status: ('A' for Active; 'I' for Inactive)
REMARK    1  A    between atoms: C_1  and  O_2
REMARK    2  A    between atoms: O_2  and  C_3
REMARK    3  A    between atoms: C_3  and  C_5
REMARK    4  A    between atoms: C_6  and  C_7
REMARK    5  A    between atoms: C_7  and  O_9
REMARK    6  A    between atoms: O_9  and  C_10
REMARK                            x       y       z     vdW  Elec       q    Type
REMARK                         _______ _______ _______ _____ _____    ______ ____
ROOT
ATOM      1  C   UNL     1      17.832  12.330  17.464  0.00  0.00    +0.000 C 
ATOM      2  C   UNL     1      17.937  11.422  18.471  0.00  0.00    +0.000 C 
ENDROOT
BRANCH   1   3
ATOM      3  C   UNL     1      18.863  12.350  16.348  0.00  0.00    +0.000 C 
ATOM      4  O   UNL     1      18.730  13.156  15.375  0.00  0.00    +0.000 OA
BRANCH   3   6
ATOM      5  C   UNL     1      20.065  10.392  15.471  0.00  0.00    +0.000 C 
ATOM      6  O   UNL     1      19.975  11.468  16.394  0.00  0.00    +0.000 OA
ENDBRANCH   3   6
ENDBRANCH   1   3
BRANCH   2   7
ATOM      7  C   UNL     1      16.905  11.402  19.587  0.00  0.00    +0.000 C 
ATOM      8  O   UNL     1      16.966  10.513  20.494  0.00  0.00    +0.000 OA
BRANCH   7   9
ATOM      9  O   UNL     1      15.873  12.377  19.618  0.00  0.00    +0.000 OA
ATOM     10  C   UNL     1      14.530  11.999  19.356  0.00  0.00    +0.000 C 
ENDBRANCH   7   9
ENDBRANCH   2   7
TORSDOF 4
ENDMDL
MODEL 4
REMARK VINA RESULT:     0.000      6.677      7.320
REMARK INTER + INTRA:          -0.131
REMARK INTER:                   0.000
REMARK INTRA:                  -0.131
REMARK UNBOUND:                -0.131
REMARK  Name = 
REMARK  6 active torsions:
REMARK  status: ('A' for Active; 'I' for Inactive)
REMARK    1  A    between atoms: C_1  and  O_2
REMARK    2  A    between atoms: O_2  and  C_3
REMARK    3  A    between atoms: C_3  and  C_5
REMARK    4  A    between atoms: C_6  and  C_7
REMARK    5  A    between atoms: C_7  and  O_9
REMARK    6  A    between atoms: O_9  and  C_10
REMARK                            x       y       z     vdW  Elec       q    Type
REMARK                         _______ _______ _______ _____ _____    ______ ____
ROOT
ATOM      1  C   UNL     1      14.088   6.753  12.477  0.00  0.00    +0.000 C 
ATOM      2  C   UNL     1      15.101   7.659  12.533  0.00  0.00    +0.000 C 
ENDROOT
BRANCH   1   3
ATOM      3  C   UNL     1      13.071   6.818  11.350  0.00  0.00    +0.000 C 
ATOM      4  O   UNL     1      12.163   5.933  11.261  0.00  0.00    +0.000 OA
BRANCH   3   6
ATOM      5  C   UNL     1      13.518   7.587   9.057  0.00  0.00    +0.000 C 
ATOM      6  O   UNL     1      13.135   7.868  10.396  0.00  0.00    +0.000 OA
ENDBRANCH   3   6
ENDBRANCH   1   3
BRANCH   2   7
ATOM      7  C   UNL     1      16.118   7.593  13.661  0.00  0.00    +0.000 C 
ATOM      8  O   UNL     1      17.100   8.401  13.679  0.00  0.00    +0.000 OA
BRANCH   7   9
ATOM      9  O   UNL     1      15.972   6.631  14.694  0.00  0.00    +0.000 OA
ATOM     10  C   UNL     1      16.880   5.543  14.787  0.00  0.00    +0.000 C 
ENDBRANCH   7   9
ENDBRANCH   2   7
TORSDOF 4
ENDMDL
MODEL 5
REMARK VINA RESULT:     0.000      5.941      6.557
REMARK INTER + INTRA:          -0.131
REMARK INTER:                   0.000
REMARK INTRA:                  -0.131
REMARK UNBOUND:                -0.131
REMARK  Name = 
REMARK  6 active torsions:
REMARK  status: ('A' for Active; 'I' for Inactive)
REMARK    1  A    between atoms: C_1  and  O_2
REMARK    2  A    between atoms: O_2  and  C_3
REMARK    3  A    between atoms: C_3  and  C_5
REMARK    4  A    between atoms: C_6  and  C_7
REMARK    5  A    between atoms: C_7  and  O_9
REMARK    6  A    between atoms: O_9  and  C_10
REMARK                            x       y       z     vdW  Elec       q    Type
REMARK                         _______ _______ _______ _____ _____    ______ ____
ROOT
ATOM      1  C   UNL     1      11.343   3.944  11.388  0.00  0.00    +0.000 C 
ATOM      2  C   UNL     1      11.793   4.810  12.337  0.00  0.00    +0.000 C 
ENDROOT
BRANCH   1   3
ATOM      3  C   UNL     1      10.006   3.245  11.571  0.00  0.00    +0.000 C 
ATOM      4  O   UNL     1       9.556   2.486  10.656  0.00  0.00    +0.000 OA
BRANCH   3   6
ATOM      5  C   UNL     1       8.046   4.175  12.729  0.00  0.00    +0.000 C 
ATOM      6  O   UNL     1       9.260   3.439  12.763  0.00  0.00    +0.000 OA
ENDBRANCH   3   6
ENDBRANCH   1   3
BRANCH   2   7
ATOM      7  C   UNL     1      13.130   5.509  12.154  0.00  0.00    +0.000 C 
ATOM      8  O   UNL     1      13.522   6.365  13.009  0.00  0.00    +0.000 OA
BRANCH   7   9
ATOM      9  O   UNL     1      13.942   5.208  11.029  0.00  0.00    +0.000 OA
ATOM     10  C   UNL     1      14.120   6.171  10.002  0.00  0.00    +0.000 C 
ENDBRANCH   7   9
ENDBRANCH   2   7
TORSDOF 4
ENDMDL
