MODEL 1
REMARK VINA RESULT:    -0.002      0.000      0.000
REMARK INTER + INTRA:          -1.196
REMARK INTER:                   0.000
REMARK INTRA:                  -1.196
REMARK UNBOUND:                -1.192
REMARK  Name = 
REMARK  8 active torsions:
REMARK  status: ('A' for Active; 'I' for Inactive)
REMARK    1  A    between atoms: C_1  and  O_2
REMARK    2  A    between atoms: O_2  and  C_3
REMARK    3  A    between atoms: C_4  and  O_27
REMARK    4  A    between atoms: C_10  and  C_13
REMARK    5  A    between atoms: C_13  and  C_14
REMARK    6  A    between atoms: N_17  and  C_20
REMARK    7  A    between atoms: C_20  and  C_21
REMARK    8  A    between atoms: O_27  and  C_28
REMARK                            x       y       z     vdW  Elec       q    Type
REMARK                         _______ _______ _______ _____ _____    ______ ____
ROOT
ATOM      1  C   UNL     1       3.824   7.001  24.133  0.00  0.00    +0.000 A 
ATOM      2  C   UNL     1       4.426   6.182  23.112  0.00  0.00    +0.000 A 
ATOM      3  C   UNL     1       3.861   6.153  21.787  0.00  0.00    +0.000 A 
ATOM      4  C   UNL     1       4.462   5.334  20.766  0.00  0.00    +0.000 A 
ATOM      5  C   UNL     1       5.628   4.545  21.070  0.00  0.00    +0.000 A 
ATOM      6  C   UNL     1       4.389   7.029  25.458  0.00  0.00    +0.000 A 
ATOM      7  C   UNL     1       6.263   3.681  19.992  0.00  0.00    +0.000 C 
ATOM      8  C   UNL     1       5.249   2.662  19.496  0.00  0.00    +0.000 C 
ATOM      9  C   UNL     1       3.868   5.304  19.368  0.00  0.00    +0.000 C 
ATOM     10  O   UNL     1       2.839   6.001  19.100  0.00  0.00    +0.000 OA
ENDROOT
BRANCH   1  12
ATOM     11  C   UNL     1       2.760   9.197  23.828  0.00  0.00    +0.000 C 
ATOM     12  O   UNL     1       2.675   7.779  23.834  0.00  0.00    +0.000 OA
ENDBRANCH   1  12
BRANCH   2  13
ATOM     13  O   UNL     1       5.575   5.403  23.412  0.00  0.00    +0.000 OA
ATOM     14  C   UNL     1       5.457   4.248  24.229  0.00  0.00    +0.000 C 
ENDBRANCH   2  13
BRANCH   8  15
ATOM     15  C   UNL     1       5.883   1.799  18.418  0.00  0.00    +0.000 C 
BRANCH  15  16
ATOM     16  C   UNL     1       5.910   0.351  18.880  0.00  0.00    +0.000 C 
ATOM     17  C   UNL     1       6.388  -0.535  17.741  0.00  0.00    +0.000 C 
ATOM     18  C   UNL     1       7.786  -0.111  17.322  0.00  0.00    +0.000 C 
ATOM     19  N   UNL     1       8.702  -0.245  18.464  0.00  0.00    +0.000 NA
ATOM     20  C   UNL     1      10.054   0.165  18.059  0.00  0.00    +0.000 C 
ATOM     21  C   UNL     1       4.511  -0.073  19.299  0.00  0.00    +0.000 C 
BRANCH  19  22
ATOM     22  C   UNL     1       8.239   0.612  19.566  0.00  0.00    +0.000 C 
BRANCH  22  23
ATOM     23  C   UNL     1       8.554  -0.056  20.894  0.00  0.00    +0.000 A 
ATOM     24  C   UNL     1       8.816   0.747  22.060  0.00  0.00    +0.000 A 
ATOM     25  C   UNL     1       8.779   2.184  21.968  0.00  0.00    +0.000 A 
ATOM     26  C   UNL     1       9.041   2.988  23.134  0.00  0.00    +0.000 A 
ATOM     27  C   UNL     1       9.004   4.425  23.041  0.00  0.00    +0.000 A 
ATOM     28  C   UNL     1       8.591  -1.492  20.987  0.00  0.00    +0.000 A 
ENDBRANCH  22  23
ENDBRANCH  19  22
ENDBRANCH  15  16
ENDBRANCH   8  15
TORSDOF 6
ENDMDL
MODEL 2
REMARK VINA RESULT:    -0.002      9.439     12.997
REMARK INTER + INTRA:          -1.195
REMARK INTER:                   0.000
REMARK INTRA:                  -1.195
REMARK UNBOUND:                -1.192
REMARK  Name = 
REMARK  8 active torsions:
REMARK  status: ('A' for Active; 'I' for Inactive)
REMARK    1  A    between atoms: C_1  and  O_2
REMARK    2  A    between atoms: O_2  and  C_3
REMARK    3  A    between atoms: C_4  and  O_27
REMARK    4  A    between atoms: C_10  and  C_13
REMARK    5  A    between atoms: C_13  and  C_14
REMARK    6  A    between atoms: N_17  and  C_20
REMARK    7  A    between atoms: C_20  and  C_21
REMARK    8  A    between atoms: O_27  and  C_28
REMARK                            x       y       z     vdW  Elec       q    Type
REMARK                         _______ _______ _______ _____ _____    ______ ____
ROOT
ATOM      1  C   UNL     1      18.365  -0.056  23.663  0.00  0.00    +0.000 A 
ATOM      2  C   UNL     1      17.934   1.294  23.407  0.00  0.00    +0.000 A 
ATOM      3  C   UNL     1      16.826   1.847  24.143  0.00  0.00    +0.000 A 
ATOM      4  C   UNL     1      16.395   3.197  23.888  0.00  0.00    +0.000 A 
ATOM      5  C   UNL     1      17.072   3.995  22.897  0.00  0.00    +0.000 A 
ATOM      6  C   UNL     1      19.474  -0.609  22.927  0.00  0.00    +0.000 A 
ATOM      7  C   UNL     1      16.617   5.420  22.629  0.00  0.00    +0.000 C 
ATOM      8  C   UNL     1      15.170   5.411  22.165  0.00  0.00    +0.000 C 
ATOM      9  C   UNL     1      15.226   3.782  24.663  0.00  0.00    +0.000 C 
ATOM     10  O   UNL     1      14.628   3.078  25.537  0.00  0.00    +0.000 OA
ENDROOT
BRANCH   1  12
ATOM     11  C   UNL     1      18.371  -1.217  25.831  0.00  0.00    +0.000 C 
ATOM     12  O   UNL     1      17.697  -0.842  24.639  0.00  0.00    +0.000 OA
ENDBRANCH   1  12
BRANCH   2  13
ATOM     13  O   UNL     1      18.602   2.080  22.431  0.00  0.00    +0.000 OA
ATOM     14  C   UNL     1      18.431   1.794  21.051  0.00  0.00    +0.000 C 
ENDBRANCH   2  13
BRANCH   8  15
ATOM     15  C   UNL     1      14.715   6.836  21.896  0.00  0.00    +0.000 C 
BRANCH  15  16
ATOM     16  C   UNL     1      14.341   6.981  20.429  0.00  0.00    +0.000 C 
ATOM     17  C   UNL     1      13.730   8.353  20.195  0.00  0.00    +0.000 C 
ATOM     18  C   UNL     1      14.738   9.427  20.570  0.00  0.00    +0.000 C 
ATOM     19  N   UNL     1      15.943   9.280  19.741  0.00  0.00    +0.000 NA
ATOM     20  C   UNL     1      16.917  10.319  20.103  0.00  0.00    +0.000 C 
ATOM     21  C   UNL     1      13.334   5.906  20.055  0.00  0.00    +0.000 C 
BRANCH  19  22
ATOM     22  C   UNL     1      16.534   7.953  19.968  0.00  0.00    +0.000 C 
BRANCH  22  23
ATOM     23  C   UNL     1      17.159   7.449  18.676  0.00  0.00    +0.000 A 
ATOM     24  C   UNL     1      18.297   6.570  18.723  0.00  0.00    +0.000 A 
ATOM     25  C   UNL     1      18.845   6.168  19.992  0.00  0.00    +0.000 A 
ATOM     26  C   UNL     1      19.984   5.288  20.039  0.00  0.00    +0.000 A 
ATOM     27  C   UNL     1      20.532   4.885  21.309  0.00  0.00    +0.000 A 
ATOM     28  C   UNL     1      16.611   7.852  17.407  0.00  0.00    +0.000 A 
ENDBRANCH  22  23
ENDBRANCH  19  22
ENDBRANCH  15  16
ENDBRANCH   8  15
TORSDOF 6
ENDMDL
MODEL 3
REMARK VINA RESULT:     0.000     11.160     13.409
REMARK INTER + INTRA:          -1.192
REMARK INTER:                   0.000
REMARK INTRA:                  -1.192
REMARK UNBOUND:                -1.192
REMARK  Name = 
REMARK  8 active torsions:
REMARK  status: ('A' for Active; 'I' for Inactive)
REMARK    1  A    between atoms: C_1  and  O_2
REMARK    2  A    between atoms: O_2  and  C_3
REMARK    3  A    between atoms: C_4  and  O_27
REMARK    4  A    between atoms: C_10  and  C_13
REMARK    5  A    between atoms: C_13  and  C_14
REMARK    6  A    between atoms: N_17  and  C_20
REMARK    7  A    between atoms: C_20  and  C_21
REMARK    8  A    between atoms: O_27  and  C_28
REMARK                            x       y       z     vdW  Elec       q    Type
REMARK                         _______ _______ _______ _____ _____    ______ ____
ROOT
ATOM      1  C   UNL     1       6.505   6.385  14.070  0.00  0.00    +0.000 A 
ATOM      2  C   UNL     1       7.599   6.752  13.208  0.00  0.00    +0.000 A 
ATOM      3  C   UNL     1       8.643   5.800  12.926  0.00  0.00    +0.000 A 
ATOM      4  C   UNL     1       9.737   6.166  12.064  0.00  0.00    +0.000 A 
ATOM      5  C   UNL     1       9.788   7.484  11.485  0.00  0.00    +0.000 A 
ATOM      6  C   UNL     1       5.462   7.337  14.353  0.00  0.00    +0.000 A 
ATOM      7  C   UNL     1      10.943   7.870  10.576  0.00  0.00    +0.000 C 
ATOM      8  C   UNL     1      12.252   7.755  11.341  0.00  0.00    +0.000 C 
ATOM      9  C   UNL     1      10.838   5.162  11.765  0.00  0.00    +0.000 C 
ATOM     10  O   UNL     1      10.794   3.999  12.276  0.00  0.00    +0.000 OA
ENDROOT
BRANCH   1  12
ATOM     11  C   UNL     1       5.439   4.176  14.246  0.00  0.00    +0.000 C 
ATOM     12  O   UNL     1       6.455   5.086  14.641  0.00  0.00    +0.000 OA
ENDBRANCH   1  12
BRANCH   2  13
ATOM     13  O   UNL     1       7.649   8.051  12.638  0.00  0.00    +0.000 OA
ATOM     14  C   UNL     1       7.946   9.174  13.454  0.00  0.00    +0.000 C 
ENDBRANCH   2  13
BRANCH   8  15
ATOM     15  C   UNL     1      13.406   8.141  10.431  0.00  0.00    +0.000 C 
BRANCH  15  16
ATOM     16  C   UNL     1      14.115   9.359  11.002  0.00  0.00    +0.000 C 
ATOM     17  C   UNL     1      15.364   9.647  10.185  0.00  0.00    +0.000 C 
ATOM     18  C   UNL     1      14.975   9.917   8.741  0.00  0.00    +0.000 C 
ATOM     19  N   UNL     1      14.075  11.078   8.685  0.00  0.00    +0.000 NA
ATOM     20  C   UNL     1      13.699  11.339   7.288  0.00  0.00    +0.000 C 
ATOM     21  C   UNL     1      14.504   9.089  12.446  0.00  0.00    +0.000 C 
BRANCH  19  22
ATOM     22  C   UNL     1      12.867  10.800   9.474  0.00  0.00    +0.000 C 
BRANCH  22  23
ATOM     23  C   UNL     1      12.371  12.087  10.113  0.00  0.00    +0.000 A 
ATOM     24  C   UNL     1      10.966  12.271  10.366  0.00  0.00    +0.000 A 
ATOM     25  C   UNL     1      10.030  11.236  10.014  0.00  0.00    +0.000 A 
ATOM     26  C   UNL     1       8.624  11.420  10.267  0.00  0.00    +0.000 A 
ATOM     27  C   UNL     1       7.687  10.384   9.914  0.00  0.00    +0.000 A 
ATOM     28  C   UNL     1      13.308  13.122  10.466  0.00  0.00    +0.000 A 
ENDBRANCH  22  23
ENDBRANCH  19  22
ENDBRANCH  15  16
ENDBRANCH   8  15
TORSDOF 6
ENDMDL
MODEL 4
REMARK VINA RESULT:     0.001      9.600     12.888
REMARK INTER + INTRA:          -1.192
REMARK INTER:                   0.000
REMARK INTRA:                  -1.192
REMARK UNBOUND:                -1.192
REMARK  Name = 
REMARK  8 active torsions:
REMARK  status: ('A' for Active; 'I' for Inactive)
REMARK    1  A    between atoms: C_1  and  O_2
REMARK    2  A    between atoms: O_2  and  C_3
REMARK    3  A    between atoms: C_4  and  O_27
REMARK    4  A    between atoms: C_10  and  C_13
REMARK    5  A    between atoms: C_13  and  C_14
REMARK    6  A    between atoms: N_17  and  C_20
REMARK    7  A    between atoms: C_20  and  C_21
REMARK    8  A    between atoms: O_27  and  C_28
REMARK                            x       y       z     vdW  Elec       q    Type
REMARK                         _______ _______ _______ _____ _____    ______ ____
ROOT
ATOM      1  C   UNL     1      10.989  -1.628  12.457  0.00  0.00    +0.000 A 
ATOM      2  C   UNL     1      12.020  -1.391  13.435  0.00  0.00    +0.000 A 
ATOM      3  C   UNL     1      11.695  -1.401  14.839  0.00  0.00    +0.000 A 
ATOM      4  C   UNL     1      12.725  -1.164  15.817  0.00  0.00    +0.000 A 
ATOM      5  C   UNL     1      14.079  -0.916  15.392  0.00  0.00    +0.000 A 
ATOM      6  C   UNL     1      11.314  -1.617  11.053  0.00  0.00    +0.000 A 
ATOM      7  C   UNL     1      15.166  -0.666  16.425  0.00  0.00    +0.000 C 
ATOM      8  C   UNL     1      14.810   0.561  17.249  0.00  0.00    +0.000 C 
ATOM      9  C   UNL     1      12.384  -1.176  17.298  0.00  0.00    +0.000 C 
ATOM     10  O   UNL     1      11.190  -1.394  17.673  0.00  0.00    +0.000 OA
ENDROOT
BRANCH   1  12
ATOM     11  C   UNL     1       9.064  -3.145  12.657  0.00  0.00    +0.000 C 
ATOM     12  O   UNL     1       9.655  -1.872  12.876  0.00  0.00    +0.000 OA
ENDBRANCH   1  12
BRANCH   2  13
ATOM     13  O   UNL     1      13.354  -1.146  13.016  0.00  0.00    +0.000 OA
ATOM     14  C   UNL     1      13.689   0.087  12.397  0.00  0.00    +0.000 C 
ENDBRANCH   2  13
BRANCH   8  15
ATOM     15  C   UNL     1      15.897   0.811  18.281  0.00  0.00    +0.000 C 
BRANCH  15  16
ATOM     16  C   UNL     1      16.534   2.168  18.027  0.00  0.00    +0.000 C 
ATOM     17  C   UNL     1      17.504   2.490  19.152  0.00  0.00    +0.000 C 
ATOM     18  C   UNL     1      18.586   1.424  19.210  0.00  0.00    +0.000 C 
ATOM     19  N   UNL     1      19.311   1.393  17.932  0.00  0.00    +0.000 NA
ATOM     20  C   UNL     1      20.358   0.363  17.987  0.00  0.00    +0.000 C 
ATOM     21  C   UNL     1      15.452   3.234  17.970  0.00  0.00    +0.000 C 
BRANCH  19  22
ATOM     22  C   UNL     1      18.374   1.081  16.843  0.00  0.00    +0.000 C 
BRANCH  22  23
ATOM     23  C   UNL     1      18.805   1.807  15.579  0.00  0.00    +0.000 A 
ATOM     24  C   UNL     1      18.522   1.235  14.289  0.00  0.00    +0.000 A 
ATOM     25  C   UNL     1      17.832  -0.026  14.195  0.00  0.00    +0.000 A 
ATOM     26  C   UNL     1      17.550  -0.598  12.904  0.00  0.00    +0.000 A 
ATOM     27  C   UNL     1      16.860  -1.859  12.811  0.00  0.00    +0.000 A 
ATOM     28  C   UNL     1      19.495   3.067  15.673  0.00  0.00    +0.000 A 
ENDBRANCH  22  23
ENDBRANCH  19  22
ENDBRANCH  15  16
ENDBRANCH   8  15
TORSDOF 6
ENDMDL
MODEL 5
REMARK VINA RESULT:     0.003     12.934     14.626
REMARK INTER + INTRA:          -1.189
REMARK INTER:                   0.000
REMARK INTRA:                  -1.189
REMARK UNBOUND:                -1.192
REMARK  Name = 
REMARK  8 active torsions:
REMARK  status: ('A' for Active; 'I' for Inactive)
REMARK    1  A    between atoms: C_1  and  O_2
REMARK    2  A    between atoms: O_2  and  C_3
REMARK    3  A    between atoms: C_4  and  O_27
REMARK    4  A    between atoms: C_10  and  C_13
REMARK    5  A    between atoms: C_13  and  C_14
REMARK    6  A    between atoms: N_17  and  C_20
REMARK    7  A    between atoms: C_20  and  C_21
REMARK    8  A    between atoms: O_27  and  C_28
REMARK                            x       y       z     vdW  Elec       q    Type
REMARK                         _______ _______ _______ _____ _____    ______ ____
ROOT
ATOM      1  C   UNL     1      18.377  15.135  13.688  0.00  0.00    +0.000 A 
ATOM      2  C   UNL     1      17.857  13.816  13.945  0.00  0.00    +0.000 A 
ATOM      3  C   UNL     1      18.251  12.712  13.108  0.00  0.00    +0.000 A 
ATOM      4  C   UNL     1      17.731  11.393  13.364  0.00  0.00    +0.000 A 
ATOM      5  C   UNL     1      16.818  11.179  14.457  0.00  0.00    +0.000 A 
ATOM      6  C   UNL     1      17.983  16.239  14.525  0.00  0.00    +0.000 A 
ATOM      7  C   UNL     1      16.270   9.788  14.728  0.00  0.00    +0.000 C 
ATOM      8  C   UNL     1      15.504   9.298  13.509  0.00  0.00    +0.000 C 
ATOM      9  C   UNL     1      18.146  10.228  12.481  0.00  0.00    +0.000 C 
ATOM     10  O   UNL     1      18.951  10.417  11.516  0.00  0.00    +0.000 OA
ENDROOT
BRANCH   1  12
ATOM     11  C   UNL     1      20.626  15.703  12.872  0.00  0.00    +0.000 C 
ATOM     12  O   UNL     1      19.277  15.346  12.610  0.00  0.00    +0.000 OA
ENDBRANCH   1  12
BRANCH   2  13
ATOM     13  O   UNL     1      16.957  13.605  15.023  0.00  0.00    +0.000 OA
ATOM     14  C   UNL     1      15.626  14.094  14.942  0.00  0.00    +0.000 C 
ENDBRANCH   2  13
BRANCH   8  15
ATOM     15  C   UNL     1      14.956   7.907  13.779  0.00  0.00    +0.000 C 
BRANCH  15  16
ATOM     16  C   UNL     1      13.437   7.938  13.708  0.00  0.00    +0.000 C 
ATOM     17  C   UNL     1      12.896   6.522  13.818  0.00  0.00    +0.000 C 
ATOM     18  C   UNL     1      13.330   5.915  15.142  0.00  0.00    +0.000 C 
ATOM     19  N   UNL     1      12.804   6.727  16.249  0.00  0.00    +0.000 NA
ATOM     20  C   UNL     1      13.223   6.140  17.530  0.00  0.00    +0.000 C 
ATOM     21  C   UNL     1      13.004   8.545  12.384  0.00  0.00    +0.000 C 
BRANCH  19  22
ATOM     22  C   UNL     1      13.328   8.096  16.143  0.00  0.00    +0.000 C 
BRANCH  22  23
ATOM     23  C   UNL     1      12.287   9.078  16.657  0.00  0.00    +0.000 A 
ATOM     24  C   UNL     1      12.702  10.313  17.269  0.00  0.00    +0.000 A 
ATOM     25  C   UNL     1      14.103  10.619  17.396  0.00  0.00    +0.000 A 
ATOM     26  C   UNL     1      14.519  11.854  18.008  0.00  0.00    +0.000 A 
ATOM     27  C   UNL     1      15.921  12.159  18.134  0.00  0.00    +0.000 A 
ATOM     28  C   UNL     1      10.885   8.773  16.531  0.00  0.00    +0.000 A 
ENDBRANCH  22  23
ENDBRANCH  19  22
ENDBRANCH  15  16
ENDBRANCH   8  15
TORSDOF 6
ENDMDL
