MODEL 1
REMARK VINA RESULT:     0.000      0.000      0.000
REMARK INTER + INTRA:          -0.192
REMARK INTER:                   0.000
REMARK INTRA:                  -0.192
REMARK UNBOUND:                -0.192
REMARK  Name = 
REMARK  8 active torsions:
REMARK  status: ('A' for Active; 'I' for Inactive)
REMARK    1  A    between atoms: C_1  and  N_2
REMARK    2  A    between atoms: N_2  and  C_3
REMARK    3  A    between atoms: N_2  and  C_4
REMARK    4  A    between atoms: C_4  and  C_5
REMARK    5  A    between atoms: C_5  and  C_6
REMARK    6  A    between atoms: C_6  and  C_7
REMARK    7  A    between atoms: C_7  and  C_18
REMARK    8  A    between atoms: C_13  and  C_16
REMARK                            x       y       z     vdW  Elec       q    Type
REMARK                         _______ _______ _______ _____ _____    ______ ____
ROOT
ATOM      1  C   UNL     1       9.856   7.544  18.293  0.00  0.00    +0.000 C 
ATOM      2  C   UNL     1      10.992   8.110  17.457  0.00  0.00    +0.000 A 
ATOM      3  C   UNL     1      10.782   9.298  16.669  0.00  0.00    +0.000 A 
ATOM      4  C   UNL     1       9.427   9.984  16.674  0.00  0.00    +0.000 C 
ATOM      5  O   UNL     1       8.767   7.207  17.447  0.00  0.00    +0.000 OA
ATOM      6  C   UNL     1      11.858   9.834  15.876  0.00  0.00    +0.000 A 
ATOM      7  C   UNL     1      13.143   9.184  15.871  0.00  0.00    +0.000 A 
ATOM      8  C   UNL     1      14.219   9.721  15.078  0.00  0.00    +0.000 A 
ATOM      9  C   UNL     1      12.276   7.459  17.451  0.00  0.00    +0.000 A 
ENDROOT
BRANCH   1  10
ATOM     10  C   UNL     1      10.336   6.299  19.022  0.00  0.00    +0.000 A 
ATOM     11  C   UNL     1      10.182   5.003  18.412  0.00  0.00    +0.000 A 
ATOM     12  C   UNL     1       9.572   4.887  17.113  0.00  0.00    +0.000 A 
ATOM     13  C   UNL     1       9.417   3.591  16.503  0.00  0.00    +0.000 A 
ATOM     14  C   UNL     1       8.808   3.475  15.204  0.00  0.00    +0.000 A 
ATOM     15  C   UNL     1      10.946   6.416  20.321  0.00  0.00    +0.000 A 
ATOM     16  F   UNL     1       9.837   2.502  17.142  0.00  0.00    +0.000 F 
ENDBRANCH   1  10
BRANCH   7  17
ATOM     17  C   UNL     1      13.364   7.931  16.702  0.00  0.00    +0.000 C 
ATOM     18  N   UNL     1      13.547   6.892  17.392  0.00  0.00    +0.000 NA
ENDBRANCH   7  17
BRANCH   1  19
ATOM     19  C   UNL     1       9.407   8.583  19.307  0.00  0.00    +0.000 C 
BRANCH  19  20
ATOM     20  C   UNL     1       7.921   8.415  19.581  0.00  0.00    +0.000 C 
BRANCH  20  21
ATOM     21  C   UNL     1       7.705   8.165  21.065  0.00  0.00    +0.000 C 
BRANCH  21  23
ATOM     22  C   UNL     1       6.699   6.554  22.533  0.00  0.00    +0.000 C 
ATOM     23  N   UNL     1       7.466   6.732  21.292  0.00  0.00    +0.000 NA
ATOM     24  C   UNL     1       6.706   6.177  20.162  0.00  0.00    +0.000 C 
ENDBRANCH  21  23
ENDBRANCH  20  21
ENDBRANCH  19  20
ENDBRANCH   1  19
TORSDOF 6
ENDMDL
MODEL 2
REMARK VINA RESULT:     0.000     10.690     12.804
REMARK INTER + INTRA:          -0.191
REMARK INTER:                   0.000
REMARK INTRA:                  -0.191
REMARK UNBOUND:                -0.192
REMARK  Name = 
REMARK  8 active torsions:
REMARK  status: ('A' for Active; 'I' for Inactive)
REMARK    1  A    between atoms: C_1  and  N_2
REMARK    2  A    between atoms: N_2  and  C_3
REMARK    3  A    between atoms: N_2  and  C_4
REMARK    4  A    between atoms: C_4  and  C_5
REMARK    5  A    between atoms: C_5  and  C_6
REMARK    6  A    between atoms: C_6  and  C_7
REMARK    7  A    between atoms: C_7  and  C_18
REMARK    8  A    between atoms: C_13  and  C_16
REMARK                            x       y       z     vdW  Elec       q    Type
REMARK                         _______ _______ _______ _____ _____    ______ ____
ROOT
ATOM      1  C   UNL     1       9.543   7.124   5.469  0.00  0.00    +0.000 C 
ATOM      2  C   UNL     1      10.354   6.094   4.700  0.00  0.00    +0.000 A 
ATOM      3  C   UNL     1      10.122   5.900   3.292  0.00  0.00    +0.000 A 
ATOM      4  C   UNL     1       9.066   6.726   2.575  0.00  0.00    +0.000 C 
ATOM      5  O   UNL     1       8.164   6.795   5.390  0.00  0.00    +0.000 OA
ATOM      6  C   UNL     1      10.890   4.925   2.562  0.00  0.00    +0.000 A 
ATOM      7  C   UNL     1      11.891   4.142   3.241  0.00  0.00    +0.000 A 
ATOM      8  C   UNL     1      12.659   3.167   2.512  0.00  0.00    +0.000 A 
ATOM      9  C   UNL     1      11.354   5.311   5.379  0.00  0.00    +0.000 A 
ENDROOT
BRANCH   1  10
ATOM     10  C   UNL     1       9.981   7.128   6.925  0.00  0.00    +0.000 A 
ATOM     11  C   UNL     1       9.316   6.279   7.879  0.00  0.00    +0.000 A 
ATOM     12  C   UNL     1       8.236   5.426   7.455  0.00  0.00    +0.000 A 
ATOM     13  C   UNL     1       7.571   4.577   8.410  0.00  0.00    +0.000 A 
ATOM     14  C   UNL     1       6.491   3.725   7.985  0.00  0.00    +0.000 A 
ATOM     15  C   UNL     1      11.061   7.981   7.349  0.00  0.00    +0.000 A 
ATOM     16  F   UNL     1       7.954   4.582   9.684  0.00  0.00    +0.000 F 
ENDBRANCH   1  10
BRANCH   7  17
ATOM     17  C   UNL     1      12.136   4.346   4.727  0.00  0.00    +0.000 C 
ATOM     18  N   UNL     1      12.338   4.516   5.960  0.00  0.00    +0.000 NA
ENDBRANCH   7  17
BRANCH   1  19
ATOM     19  C   UNL     1       9.770   8.501   4.867  0.00  0.00    +0.000 C 
BRANCH  19  20
ATOM     20  C   UNL     1       8.514   9.340   5.033  0.00  0.00    +0.000 C 
BRANCH  20  21
ATOM     21  C   UNL     1       8.848  10.601   5.815  0.00  0.00    +0.000 C 
BRANCH  21  23
ATOM     22  C   UNL     1       8.166  11.773   7.796  0.00  0.00    +0.000 C 
ATOM     23  N   UNL     1       8.404  10.446   7.208  0.00  0.00    +0.000 NA
ATOM     24  C   UNL     1       7.159   9.665   7.241  0.00  0.00    +0.000 C 
ENDBRANCH  21  23
ENDBRANCH  20  21
ENDBRANCH  19  20
ENDBRANCH   1  19
TORSDOF 6
ENDMDL
MODEL 3
REMARK VINA RESULT:     0.001      5.396      7.616
REMARK INTER + INTRA:          -0.191
REMARK INTER:                   0.000
REMARK INTRA:                  -0.191
REMARK UNBOUND:                -0.192
REMARK  Name = 
REMARK  8 active torsions:
REMARK  status: ('A' for Active; 'I' for Inactive)
REMARK    1  A    between atoms: C_1  and  N_2
REMARK    2  A    between atoms: N_2  and  C_3
REMARK    3  A    between atoms: N_2  and  C_4
REMARK    4  A    between atoms: C_4  and  C_5
REMARK    5  A    between atoms: C_5  and  C_6
REMARK    6  A    between atoms: C_6  and  C_7
REMARK    7  A    between atoms: C_7  and  C_18
REMARK    8  A    between atoms: C_13  and  C_16
REMARK                            x       y       z     vdW  Elec       q    Type
REMARK                         _______ _______ _______ _____ _____    ______ ____
ROOT
ATOM      1  C   UNL     1      14.584   5.668  12.826  0.00  0.00    +0.000 C 
ATOM      2  C   UNL     1      15.613   6.633  12.262  0.00  0.00    +0.000 A 
ATOM      3  C   UNL     1      15.515   7.071  10.893  0.00  0.00    +0.000 A 
ATOM      4  C   UNL     1      14.383   6.568  10.013  0.00  0.00    +0.000 C 
ATOM      5  O   UNL     1      14.606   4.461  12.077  0.00  0.00    +0.000 OA
ATOM      6  C   UNL     1      16.490   7.986  10.358  0.00  0.00    +0.000 A 
ATOM      7  C   UNL     1      17.563   8.463  11.192  0.00  0.00    +0.000 A 
ATOM      8  C   UNL     1      18.538   9.378  10.657  0.00  0.00    +0.000 A 
ATOM      9  C   UNL     1      16.686   7.110  13.095  0.00  0.00    +0.000 A 
ENDROOT
BRANCH   1  10
ATOM     10  C   UNL     1      14.914   5.369  14.279  0.00  0.00    +0.000 A 
ATOM     11  C   UNL     1      15.757   4.249  14.611  0.00  0.00    +0.000 A 
ATOM     12  C   UNL     1      16.288   3.413  13.565  0.00  0.00    +0.000 A 
ATOM     13  C   UNL     1      17.132   2.294  13.897  0.00  0.00    +0.000 A 
ATOM     14  C   UNL     1      17.663   1.458  12.851  0.00  0.00    +0.000 A 
ATOM     15  C   UNL     1      14.383   6.205  15.325  0.00  0.00    +0.000 A 
ATOM     16  F   UNL     1      17.420   2.032  15.169  0.00  0.00    +0.000 F 
ENDBRANCH   1  10
BRANCH   7  17
ATOM     17  C   UNL     1      17.666   8.002  12.636  0.00  0.00    +0.000 C 
ATOM     18  N   UNL     1      17.752   7.618  13.834  0.00  0.00    +0.000 NA
ENDBRANCH   7  17
BRANCH   1  19
ATOM     19  C   UNL     1      13.201   6.292  12.738  0.00  0.00    +0.000 C 
BRANCH  19  20
ATOM     20  C   UNL     1      12.163   5.200  12.539  0.00  0.00    +0.000 C 
BRANCH  20  21
ATOM     21  C   UNL     1      11.146   5.257  13.668  0.00  0.00    +0.000 C 
BRANCH  21  23
ATOM     22  C   UNL     1      10.211   3.852  15.375  0.00  0.00    +0.000 C 
ATOM     23  N   UNL     1      11.439   4.199  14.646  0.00  0.00    +0.000 NA
ATOM     24  C   UNL     1      11.944   3.009  13.944  0.00  0.00    +0.000 C 
ENDBRANCH  21  23
ENDBRANCH  20  21
ENDBRANCH  19  20
ENDBRANCH   1  19
TORSDOF 6
ENDMDL
MODEL 4
REMARK VINA RESULT:     0.003      9.283     11.700
REMARK INTER + INTRA:          -0.188
REMARK INTER:                   0.000
REMARK INTRA:                  -0.188
REMARK UNBOUND:                -0.192
REMARK  Name = 
REMARK  8 active torsions:
REMARK  status: ('A' for Active; 'I' for Inactive)
REMARK    1  A    between atoms: C_1  and  N_2
REMARK    2  A    between atoms: N_2  and  C_3
REMARK    3  A    between atoms: N_2  and  C_4
REMARK    4  A    between atoms: C_4  and  C_5
REMARK    5  A    between atoms: C_5  and  C_6
REMARK    6  A    between atoms: C_6  and  C_7
REMARK    7  A    between atoms: C_7  and  C_18
REMARK    8  A    between atoms: C_13  and  C_16
REMARK                            x       y       z     vdW  Elec       q    Type
REMARK                         _______ _______ _______ _____ _____    ______ ____
ROOT
ATOM      1  C   UNL     1      13.442  11.086   8.791  0.00  0.00    +0.000 C 
ATOM      2  C   UNL     1      13.531  10.400   7.438  0.00  0.00    +0.000 A 
ATOM      3  C   UNL     1      12.653   9.300   7.130  0.00  0.00    +0.000 A 
ATOM      4  C   UNL     1      11.638   8.826   8.158  0.00  0.00    +0.000 C 
ATOM      5  O   UNL     1      13.701  10.142   9.819  0.00  0.00    +0.000 OA
ATOM      6  C   UNL     1      12.737   8.649   5.849  0.00  0.00    +0.000 A 
ATOM      7  C   UNL     1      13.698   9.098   4.874  0.00  0.00    +0.000 A 
ATOM      8  C   UNL     1      13.782   8.447   3.592  0.00  0.00    +0.000 A 
ATOM      9  C   UNL     1      14.492  10.848   6.465  0.00  0.00    +0.000 A 
ENDROOT
BRANCH   1  10
ATOM     10  C   UNL     1      14.469  12.205   8.859  0.00  0.00    +0.000 A 
ATOM     11  C   UNL     1      15.788  11.941   9.375  0.00  0.00    +0.000 A 
ATOM     12  C   UNL     1      16.134  10.618   9.826  0.00  0.00    +0.000 A 
ATOM     13  C   UNL     1      17.452  10.354  10.341  0.00  0.00    +0.000 A 
ATOM     14  C   UNL     1      17.797   9.031  10.792  0.00  0.00    +0.000 A 
ATOM     15  C   UNL     1      14.123  13.528   8.408  0.00  0.00    +0.000 A 
ATOM     16  F   UNL     1      18.351  11.334  10.401  0.00  0.00    +0.000 F 
ENDBRANCH   1  10
BRANCH   7  17
ATOM     17  C   UNL     1      14.624  10.258   5.199  0.00  0.00    +0.000 C 
ATOM     18  N   UNL     1      15.392  11.221   5.469  0.00  0.00    +0.000 NA
ENDBRANCH   7  17
BRANCH   1  19
ATOM     19  C   UNL     1      12.049  11.666   8.975  0.00  0.00    +0.000 C 
BRANCH  19  20
ATOM     20  C   UNL     1      11.680  11.642  10.450  0.00  0.00    +0.000 C 
BRANCH  20  21
ATOM     21  C   UNL     1      11.366  13.055  10.915  0.00  0.00    +0.000 C 
BRANCH  21  23
ATOM     22  C   UNL     1      12.052  14.638  12.584  0.00  0.00    +0.000 C 
ATOM     23  N   UNL     1      12.515  13.594  11.658  0.00  0.00    +0.000 NA
ATOM     24  C   UNL     1      13.156  12.513  12.420  0.00  0.00    +0.000 C 
ENDBRANCH  21  23
ENDBRANCH  20  21
ENDBRANCH  19  20
ENDBRANCH   1  19
TORSDOF 6
ENDMDL
MODEL 5
REMARK VINA RESULT:     0.003      6.078      9.307
REMARK INTER + INTRA:          -0.188
REMARK INTER:                   0.000
REMARK INTRA:                  -0.188
REMARK UNBOUND:                -0.192
REMARK  Name = 
REMARK  8 active torsions:
REMARK  status: ('A' for Active; 'I' for Inactive)
REMARK    1  A    between atoms: C_1  and  N_2
REMARK    2  A    between atoms: N_2  and  C_3
REMARK    3  A    between atoms: N_2  and  C_4
REMARK    4  A    between atoms: C_4  and  C_5
REMARK    5  A    between atoms: C_5  and  C_6
REMARK    6  A    between atoms: C_6  and  C_7
REMARK    7  A    between atoms: C_7  and  C_18
REMARK    8  A    between atoms: C_13  and  C_16
REMARK                            x       y       z     vdW  Elec       q    Type
REMARK                         _______ _______ _______ _____ _____    ______ ____
ROOT
ATOM      1  C   UNL     1      11.240  14.663  16.030  0.00  0.00    +0.000 C 
ATOM      2  C   UNL     1      10.400  15.240  17.157  0.00  0.00    +0.000 A 
ATOM      3  C   UNL     1      10.732  16.525  17.717  0.00  0.00    +0.000 A 
ATOM      4  C   UNL     1      11.921  17.303  17.181  0.00  0.00    +0.000 C 
ATOM      5  O   UNL     1      12.581  14.509  16.469  0.00  0.00    +0.000 OA
ATOM      6  C   UNL     1       9.936  17.072  18.786  0.00  0.00    +0.000 A 
ATOM      7  C   UNL     1       8.808  16.334  19.294  0.00  0.00    +0.000 A 
ATOM      8  C   UNL     1       8.012  16.882  20.362  0.00  0.00    +0.000 A 
ATOM      9  C   UNL     1       9.273  14.502  17.666  0.00  0.00    +0.000 A 
ENDROOT
BRANCH   1  10
ATOM     10  C   UNL     1      10.681  13.308  15.624  0.00  0.00    +0.000 A 
ATOM     11  C   UNL     1      11.174  12.109  16.251  0.00  0.00    +0.000 A 
ATOM     12  C   UNL     1      12.197  12.193  17.262  0.00  0.00    +0.000 A 
ATOM     13  C   UNL     1      12.690  10.994  17.889  0.00  0.00    +0.000 A 
ATOM     14  C   UNL     1      13.712  11.078  18.899  0.00  0.00    +0.000 A 
ATOM     15  C   UNL     1       9.659  13.225  14.613  0.00  0.00    +0.000 A 
ATOM     16  F   UNL     1      12.201   9.808  17.533  0.00  0.00    +0.000 F 
ENDBRANCH   1  10
BRANCH   7  17
ATOM     17  C   UNL     1       8.458  14.979  18.703  0.00  0.00    +0.000 C 
ATOM     18  N   UNL     1       8.168  13.854  18.212  0.00  0.00    +0.000 NA
ENDBRANCH   7  17
BRANCH   1  19
ATOM     19  C   UNL     1      11.202  15.604  14.837  0.00  0.00    +0.000 C 
BRANCH  19  20
ATOM     20  C   UNL     1      12.516  15.514  14.078  0.00  0.00    +0.000 C 
BRANCH  20  21
ATOM     21  C   UNL     1      12.243  15.106  12.639  0.00  0.00    +0.000 C 
BRANCH  21  23
ATOM     22  C   UNL     1      12.863  13.410  11.057  0.00  0.00    +0.000 C 
ATOM     23  N   UNL     1      12.547  13.677  12.468  0.00  0.00    +0.000 NA
ATOM     24  C   UNL     1      13.701  13.318  13.305  0.00  0.00    +0.000 C 
ENDBRANCH  21  23
ENDBRANCH  20  21
ENDBRANCH  19  20
ENDBRANCH   1  19
TORSDOF 6
ENDMDL
