MODEL 1
REMARK VINA RESULT:    -0.007      0.000      0.000
REMARK INTER + INTRA:          -2.439
REMARK INTER:                   0.000
REMARK INTRA:                  -2.439
REMARK UNBOUND:                -2.427
REMARK  Name = 
REMARK  13 active torsions:
REMARK  status: ('A' for Active; 'I' for Inactive)
REMARK    1  A    between atoms: C_1  and  C_2
REMARK    2  A    between atoms: C_2  and  C_3
REMARK    3  A    between atoms: C_3  and  C_4
REMARK    4  A    between atoms: C_4  and  C_5
REMARK    5  A    between atoms: C_5  and  C_6
REMARK    6  A    between atoms: C_6  and  C_7
REMARK    7  A    between atoms: C_7  and  C_8
REMARK    8  A    between atoms: C_11  and  C_14
REMARK    9  A    between atoms: C_14  and  C_15
REMARK   10  A    between atoms: C_15  and  CA_16
REMARK   11  A    between atoms: CA_16  and  C_17
REMARK   12  A    between atoms: CA_16  and  N_19
REMARK   13  A    between atoms: C_17  and  O_18
REMARK                            x       y       z     vdW  Elec       q    Type
REMARK                         _______ _______ _______ _____ _____    ______ ____
ROOT
ATOM      1  C   UNL     1      18.451   4.593   8.727  0.00  0.00    +0.000 A 
ATOM      2  C   UNL     1      17.472   4.236   9.721  0.00  0.00    +0.000 A 
ATOM      3  C   UNL     1      16.086   4.102   9.351  0.00  0.00    +0.000 A 
ATOM      4  C   UNL     1      15.107   3.745  10.345  0.00  0.00    +0.000 A 
ATOM      5  C   UNL     1      13.721   3.612   9.975  0.00  0.00    +0.000 A 
ATOM      6  C   UNL     1      19.837   4.727   9.097  0.00  0.00    +0.000 A 
ENDROOT
BRANCH   1   7
ATOM      7  C   UNL     1      18.022   4.828   7.288  0.00  0.00    +0.000 C 
BRANCH   7   8
ATOM      8  C   UNL     1      18.198   6.298   6.940  0.00  0.00    +0.000 C 
BRANCH   8   9
ATOM      9  C   UNL     1      16.868   7.017   7.097  0.00  0.00    +0.000 C 
BRANCH   9  10
ATOM     10  C   UNL     1      16.940   7.963   8.285  0.00  0.00    +0.000 C 
BRANCH  10  11
ATOM     11  C   UNL     1      15.740   7.730   9.190  0.00  0.00    +0.000 C 
BRANCH  11  13
ATOM     12  C   UNL     1      17.719   7.768  10.689  0.00  0.00    +0.000 C 
ATOM     13  C   UNL     1      16.208   7.624  10.633  0.00  0.00    +0.000 C 
ENDBRANCH  11  13
ENDBRANCH  10  11
ENDBRANCH   9  10
ENDBRANCH   8   9
ENDBRANCH   7   8
ENDBRANCH   1   7
BRANCH   4  14
ATOM     14  C   UNL     1      15.535   3.509  11.784  0.00  0.00    +0.000 C 
BRANCH  14  15
ATOM     15  C   UNL     1      15.112   4.692  12.640  0.00  0.00    +0.000 C 
BRANCH  15  16
ATOM     16  CA  UNL     1      16.095   4.866  13.786  0.00  0.00    +0.000 C 
BRANCH  16  17
ATOM     17  N   UNL     1      16.310   6.298  14.036  0.00  0.00    +0.000 NA
ATOM     18  H1  UNL     1      16.480   6.776  13.151  0.00  0.00    +0.000 HD
ATOM     19  H2  UNL     1      15.481   6.694  14.481  0.00  0.00    +0.000 HD
ENDBRANCH  16  17
BRANCH  16  20
ATOM     20  C   UNL     1      17.418   4.211  13.422  0.00  0.00    +0.000 C 
BRANCH  20  21
ATOM     21  O   UNL     1      18.370   5.214  13.098  0.00  0.00    +0.000 OA
ATOM     22  H   UNL     1      19.281   4.804  13.045  0.00  0.00    +0.000 HD
ENDBRANCH  20  21
ENDBRANCH  16  20
ENDBRANCH  15  16
ENDBRANCH  14  15
ENDBRANCH   4  14
TORSDOF 12
ENDMDL
MODEL 2
REMARK VINA RESULT:    -0.005     11.647     13.450
REMARK INTER + INTRA:          -2.436
REMARK INTER:                   0.000
REMARK INTRA:                  -2.436
REMARK UNBOUND:                -2.427
REMARK  Name = 
REMARK  13 active torsions:
REMARK  status: ('A' for Active; 'I' for Inactive)
REMARK    1  A    between atoms: C_1  and  C_2
REMARK    2  A    between atoms: C_2  and  C_3
REMARK    3  A    between atoms: C_3  and  C_4
REMARK    4  A    between atoms: C_4  and  C_5
REMARK    5  A    between atoms: C_5  and  C_6
REMARK    6  A    between atoms: C_6  and  C_7
REMARK    7  A    between atoms: C_7  and  C_8
REMARK    8  A    between atoms: C_11  and  C_14
REMARK    9  A    between atoms: C_14  and  C_15
REMARK   10  A    between atoms: C_15  and  CA_16
REMARK   11  A    between atoms: CA_16  and  C_17
REMARK   12  A    between atoms: CA_16  and  N_19
REMARK   13  A    between atoms: C_17  and  O_18
REMARK                            x       y       z     vdW  Elec       q    Type
REMARK                         _______ _______ _______ _____ _____    ______ ____
ROOT
ATOM      1  C   UNL     1       5.858   6.115  11.352  0.00  0.00    +0.000 A 
ATOM      2  C   UNL     1       5.983   7.457  11.859  0.00  0.00    +0.000 A 
ATOM      3  C   UNL     1       6.243   7.676  13.259  0.00  0.00    +0.000 A 
ATOM      4  C   UNL     1       6.368   9.019  13.766  0.00  0.00    +0.000 A 
ATOM      5  C   UNL     1       6.629   9.238  15.166  0.00  0.00    +0.000 A 
ATOM      6  C   UNL     1       5.598   5.896   9.952  0.00  0.00    +0.000 A 
ENDROOT
BRANCH   1   7
ATOM      7  C   UNL     1       6.001   4.930  12.293  0.00  0.00    +0.000 C 
BRANCH   7   8
ATOM      8  C   UNL     1       4.660   4.227  12.430  0.00  0.00    +0.000 C 
BRANCH   8   9
ATOM      9  C   UNL     1       3.962   4.710  13.692  0.00  0.00    +0.000 C 
BRANCH   9  10
ATOM     10  C   UNL     1       2.749   5.544  13.313  0.00  0.00    +0.000 C 
BRANCH  10  11
ATOM     11  C   UNL     1       2.782   6.860  14.075  0.00  0.00    +0.000 C 
BRANCH  11  13
ATOM     12  C   UNL     1       2.316   7.459  11.711  0.00  0.00    +0.000 C 
ATOM     13  C   UNL     1       2.512   8.007  13.115  0.00  0.00    +0.000 C 
ENDBRANCH  11  13
ENDBRANCH  10  11
ENDBRANCH   9  10
ENDBRANCH   8   9
ENDBRANCH   7   8
ENDBRANCH   1   7
BRANCH   4  14
ATOM     14  C   UNL     1       6.226  10.204  12.825  0.00  0.00    +0.000 C 
BRANCH  14  15
ATOM     15  C   UNL     1       4.879  10.871  13.050  0.00  0.00    +0.000 C 
BRANCH  15  16
ATOM     16  CA  UNL     1       4.398  11.493  11.748  0.00  0.00    +0.000 C 
BRANCH  16  17
ATOM     17  N   UNL     1       2.943  11.320  11.632  0.00  0.00    +0.000 NA
ATOM     18  H1  UNL     1       2.520  12.196  11.325  0.00  0.00    +0.000 HD
ATOM     19  H2  UNL     1       2.740  10.588  10.951  0.00  0.00    +0.000 HD
ENDBRANCH  16  17
BRANCH  16  20
ATOM     20  C   UNL     1       5.084  10.809  10.577  0.00  0.00    +0.000 C 
BRANCH  20  21
ATOM     21  O   UNL     1       4.167   9.940   9.931  0.00  0.00    +0.000 OA
ATOM     22  H   UNL     1       3.974  10.283   9.012  0.00  0.00    +0.000 HD
ENDBRANCH  20  21
ENDBRANCH  16  20
ENDBRANCH  15  16
ENDBRANCH  14  15
ENDBRANCH   4  14
TORSDOF 12
ENDMDL
MODEL 3
REMARK VINA RESULT:    -0.004      7.929      9.961
REMARK INTER + INTRA:          -2.434
REMARK INTER:                   0.000
REMARK INTRA:                  -2.434
REMARK UNBOUND:                -2.427
REMARK  Name = 
REMARK  13 active torsions:
REMARK  status: ('A' for Active; 'I' for Inactive)
REMARK    1  A    between atoms: C_1  and  C_2
REMARK    2  A    between atoms: C_2  and  C_3
REMARK    3  A    between atoms: C_3  and  C_4
REMARK    4  A    between atoms: C_4  and  C_5
REMARK    5  A    between atoms: C_5  and  C_6
REMARK    6  A    between atoms: C_6  and  C_7
REMARK    7  A    between atoms: C_7  and  C_8
REMARK    8  A    between atoms: C_11  and  C_14
REMARK    9  A    between atoms: C_14  and  C_15
REMARK   10  A    between atoms: C_15  and  CA_16
REMARK   11  A    between atoms: CA_16  and  C_17
REMARK   12  A    between atoms: CA_16  and  N_19
REMARK   13  A    between atoms: C_17  and  O_18
REMARK                            x       y       z     vdW  Elec       q    Type
REMARK                         _______ _______ _______ _____ _____    ______ ____
ROOT
ATOM      1  C   UNL     1      11.663  11.747  16.606  0.00  0.00    +0.000 A 
ATOM      2  C   UNL     1      11.350  10.663  17.502  0.00  0.00    +0.000 A 
ATOM      3  C   UNL     1      11.066   9.353  16.976  0.00  0.00    +0.000 A 
ATOM      4  C   UNL     1      10.753   8.269  17.872  0.00  0.00    +0.000 A 
ATOM      5  C   UNL     1      10.469   6.959  17.345  0.00  0.00    +0.000 A 
ATOM      6  C   UNL     1      11.947  13.057  17.133  0.00  0.00    +0.000 A 
ENDROOT
BRANCH   1   7
ATOM      7  C   UNL     1      11.693  11.507  15.106  0.00  0.00    +0.000 C 
BRANCH   7   8
ATOM      8  C   UNL     1      13.125  11.605  14.605  0.00  0.00    +0.000 C 
BRANCH   8   9
ATOM      9  C   UNL     1      13.737  10.214  14.550  0.00  0.00    +0.000 C 
BRANCH   9  10
ATOM     10  C   UNL     1      14.781  10.075  15.646  0.00  0.00    +0.000 C 
BRANCH  10  11
ATOM     11  C   UNL     1      14.606   8.735  16.344  0.00  0.00    +0.000 C 
BRANCH  11  13
ATOM     12  C   UNL     1      14.918  10.403  18.156  0.00  0.00    +0.000 C 
ATOM     13  C   UNL     1      14.657   8.938  17.849  0.00  0.00    +0.000 C 
ENDBRANCH  11  13
ENDBRANCH  10  11
ENDBRANCH   9  10
ENDBRANCH   8   9
ENDBRANCH   7   8
ENDBRANCH   1   7
BRANCH   4  14
ATOM     14  C   UNL     1      10.723   8.508  19.373  0.00  0.00    +0.000 C 
BRANCH  14  15
ATOM     15  C   UNL     1      11.842   7.720  20.034  0.00  0.00    +0.000 C 
BRANCH  15  16
ATOM     16  CA  UNL     1      12.420   8.529  21.184  0.00  0.00    +0.000 C 
BRANCH  16  17
ATOM     17  N   UNL     1      12.404   9.957  20.836  0.00  0.00    +0.000 NA
ATOM     18  H1  UNL     1      12.332  10.514  21.688  0.00  0.00    +0.000 HD
ATOM     19  H2  UNL     1      13.266  10.197  20.346  0.00  0.00    +0.000 HD
ENDBRANCH  16  17
BRANCH  16  20
ATOM     20  C   UNL     1      13.851   8.086  21.445  0.00  0.00    +0.000 C 
BRANCH  20  21
ATOM     21  O   UNL     1      14.691   9.227  21.538  0.00  0.00    +0.000 OA
ATOM     22  H   UNL     1      14.274   9.899  22.150  0.00  0.00    +0.000 HD
ENDBRANCH  20  21
ENDBRANCH  16  20
ENDBRANCH  15  16
ENDBRANCH  14  15
ENDBRANCH   4  14
TORSDOF 12
ENDMDL
MODEL 4
REMARK VINA RESULT:    -0.003      6.486      9.159
REMARK INTER + INTRA:          -2.432
REMARK INTER:                   0.000
REMARK INTRA:                  -2.432
REMARK UNBOUND:                -2.427
REMARK  Name = 
REMARK  13 active torsions:
REMARK  status: ('A' for Active; 'I' for Inactive)
REMARK    1  A    between atoms: C_1  and  C_2
REMARK    2  A    between atoms: C_2  and  C_3
REMARK    3  A    between atoms: C_3  and  C_4
REMARK    4  A    between atoms: C_4  and  C_5
REMARK    5  A    between atoms: C_5  and  C_6
REMARK    6  A    between atoms: C_6  and  C_7
REMARK    7  A    between atoms: C_7  and  C_8
REMARK    8  A    between atoms: C_11  and  C_14
REMARK    9  A    between atoms: C_14  and  C_15
REMARK   10  A    between atoms: C_15  and  CA_16
REMARK   11  A    between atoms: CA_16  and  C_17
REMARK   12  A    between atoms: CA_16  and  N_19
REMARK   13  A    between atoms: C_17  and  O_18
REMARK                            x       y       z     vdW  Elec       q    Type
REMARK                         _______ _______ _______ _____ _____    ______ ____
ROOT
ATOM      1  C   UNL     1      13.141  10.921  12.525  0.00  0.00    +0.000 A 
ATOM      2  C   UNL     1      12.427  11.879  11.720  0.00  0.00    +0.000 A 
ATOM      3  C   UNL     1      13.153  12.796  10.881  0.00  0.00    +0.000 A 
ATOM      4  C   UNL     1      12.440  13.755  10.076  0.00  0.00    +0.000 A 
ATOM      5  C   UNL     1      13.166  14.672   9.236  0.00  0.00    +0.000 A 
ATOM      6  C   UNL     1      12.415  10.003  13.365  0.00  0.00    +0.000 A 
ENDROOT
BRANCH   1   7
ATOM      7  C   UNL     1      14.660  10.878  12.488  0.00  0.00    +0.000 C 
BRANCH   7   8
ATOM      8  C   UNL     1      15.115   9.600  11.802  0.00  0.00    +0.000 C 
BRANCH   8   9
ATOM      9  C   UNL     1      15.378   9.882  10.331  0.00  0.00    +0.000 C 
BRANCH   9  10
ATOM     10  C   UNL     1      14.300   9.220   9.487  0.00  0.00    +0.000 C 
BRANCH  10  11
ATOM     11  C   UNL     1      13.828  10.191   8.417  0.00  0.00    +0.000 C 
BRANCH  11  13
ATOM     12  C   UNL     1      11.768   9.185   9.367  0.00  0.00    +0.000 C 
ATOM     13  C   UNL     1      12.309  10.197   8.372  0.00  0.00    +0.000 C 
ENDBRANCH  11  13
ENDBRANCH  10  11
ENDBRANCH   9  10
ENDBRANCH   8   9
ENDBRANCH   7   8
ENDBRANCH   1   7
BRANCH   4  14
ATOM     14  C   UNL     1      10.921  13.797  10.112  0.00  0.00    +0.000 C 
BRANCH  14  15
ATOM     15  C   UNL     1      10.370  13.417   8.748  0.00  0.00    +0.000 C 
BRANCH  15  16
ATOM     16  CA  UNL     1       9.105  12.592   8.923  0.00  0.00    +0.000 C 
BRANCH  16  17
ATOM     17  N   UNL     1       9.227  11.758  10.128  0.00  0.00    +0.000 NA
ATOM     18  H1  UNL     1      10.198  11.468  10.243  0.00  0.00    +0.000 HD
ATOM     19  H2  UNL     1       8.933  12.295  10.944  0.00  0.00    +0.000 HD
ENDBRANCH  16  17
BRANCH  16  20
ATOM     20  C   UNL     1       8.909  11.701   7.707  0.00  0.00    +0.000 C 
BRANCH  20  21
ATOM     21  O   UNL     1       8.618  10.378   8.131  0.00  0.00    +0.000 OA
ATOM     22  H   UNL     1       9.045  10.211   9.020  0.00  0.00    +0.000 HD
ENDBRANCH  20  21
ENDBRANCH  16  20
ENDBRANCH  15  16
ENDBRANCH  14  15
ENDBRANCH   4  14
TORSDOF 12
ENDMDL
MODEL 5
REMARK VINA RESULT:     0.000      5.840      8.892
REMARK INTER + INTRA:          -2.427
REMARK INTER:                   0.000
REMARK INTRA:                  -2.427
REMARK UNBOUND:                -2.427
REMARK  Name = 
REMARK  13 active torsions:
REMARK  status: ('A' for Active; 'I' for Inactive)
REMARK    1  A    between atoms: C_1  and  C_2
REMARK    2  A    between atoms: C_2  and  C_3
REMARK    3  A    between atoms: C_3  and  C_4
REMARK    4  A    between atoms: C_4  and  C_5
REMARK    5  A    between atoms: C_5  and  C_6
REMARK    6  A    between atoms: C_6  and  C_7
REMARK    7  A    between atoms: C_7  and  C_8
REMARK    8  A    between atoms: C_11  and  C_14
REMARK    9  A    between atoms: C_14  and  C_15
REMARK   10  A    between atoms: C_15  and  CA_16
REMARK   11  A    between atoms: CA_16  and  C_17
REMARK   12  A    between atoms: CA_16  and  N_19
REMARK   13  A    between atoms: C_17  and  O_18
REMARK                            x       y       z     vdW  Elec       q    Type
REMARK                         _______ _______ _______ _____ _____    ______ ____
ROOT
ATOM      1  C   UNL     1      17.500   1.035  13.523  0.00  0.00    +0.000 A 
ATOM      2  C   UNL     1      18.593   0.990  12.586  0.00  0.00    +0.000 A 
ATOM      3  C   UNL     1      19.944   0.844  13.063  0.00  0.00    +0.000 A 
ATOM      4  C   UNL     1      21.037   0.799  12.125  0.00  0.00    +0.000 A 
ATOM      5  C   UNL     1      22.389   0.654  12.602  0.00  0.00    +0.000 A 
ATOM      6  C   UNL     1      16.149   1.180  13.047  0.00  0.00    +0.000 A 
ENDROOT
BRANCH   1   7
ATOM      7  C   UNL     1      17.774   0.929  15.015  0.00  0.00    +0.000 C 
BRANCH   7   8
ATOM      8  C   UNL     1      17.219  -0.385  15.540  0.00  0.00    +0.000 C 
BRANCH   8   9
ATOM      9  C   UNL     1      18.349  -1.393  15.676  0.00  0.00    +0.000 C 
BRANCH   9  10
ATOM     10  C   UNL     1      18.199  -2.469  14.613  0.00  0.00    +0.000 C 
BRANCH  10  11
ATOM     11  C   UNL     1      19.526  -2.659  13.895  0.00  0.00    +0.000 C 
BRANCH  11  13
ATOM     12  C   UNL     1      17.813  -2.488  12.106  0.00  0.00    +0.000 C 
ATOM     13  C   UNL     1      19.283  -2.738  12.396  0.00  0.00    +0.000 C 
ENDBRANCH  11  13
ENDBRANCH  10  11
ENDBRANCH   9  10
ENDBRANCH   8   9
ENDBRANCH   7   8
ENDBRANCH   1   7
BRANCH   4  14
ATOM     14  C   UNL     1      20.765   0.904  10.634  0.00  0.00    +0.000 C 
BRANCH  14  15
ATOM     15  C   UNL     1      21.029  -0.440   9.974  0.00  0.00    +0.000 C 
BRANCH  15  16
ATOM     16  CA  UNL     1      19.790  -0.883   9.213  0.00  0.00    +0.000 C 
BRANCH  16  17
ATOM     17  N   UNL     1      20.190  -1.474   7.928  0.00  0.00    +0.000 NA
ATOM     18  H1  UNL     1      20.097  -2.489   7.976  0.00  0.00    +0.000 HD
ATOM     19  H2  UNL     1      19.590  -1.113   7.186  0.00  0.00    +0.000 HD
ENDBRANCH  16  17
BRANCH  16  20
ATOM     20  C   UNL     1      18.894   0.319   8.961  0.00  0.00    +0.000 C 
BRANCH  20  21
ATOM     21  O   UNL     1      17.556  -0.007   9.305  0.00  0.00    +0.000 OA
ATOM     22  H   UNL     1      17.548  -0.521  10.163  0.00  0.00    +0.000 HD
ENDBRANCH  20  21
ENDBRANCH  16  20
ENDBRANCH  15  16
ENDBRANCH  14  15
ENDBRANCH   4  14
TORSDOF 12
ENDMDL
