MODEL 1
REMARK VINA RESULT:    -0.000      0.000      0.000
REMARK INTER + INTRA:          -2.659
REMARK INTER:                   0.000
REMARK INTRA:                  -2.659
REMARK UNBOUND:                -2.659
REMARK  Name = 
REMARK  9 active torsions:
REMARK  status: ('A' for Active; 'I' for Inactive)
REMARK    1  A    between atoms: C_3  and  N_19
REMARK    2  A    between atoms: C_6  and  C_7
REMARK    3  A    between atoms: N_9  and  CA_10
REMARK    4  A    between atoms: CA_10  and  CB_11
REMARK    5  A    between atoms: CA_10  and  C_16
REMARK    6  A    between atoms: CB_11  and  CG_12
REMARK    7  A    between atoms: CG_12  and  CD_13
REMARK    8  A    between atoms: CD_13  and  OE2_15
REMARK    9  A    between atoms: C_16  and  OXT_18
REMARK                            x       y       z     vdW  Elec       q    Type
REMARK                         _______ _______ _______ _____ _____    ______ ____
ROOT
ATOM      1  C   UNK A   0      18.518  11.554  13.858  0.00  0.00    +0.000 A 
ATOM      2  C   UNK A   0      19.382  12.587  13.350  0.00  0.00    +0.000 A 
ATOM      3  C   UNK A   0      19.252  13.029  11.986  0.00  0.00    +0.000 A 
ATOM      4  C   UNK A   0      20.116  14.063  11.477  0.00  0.00    +0.000 A 
ATOM      5  C   UNK A   0      19.986  14.505  10.112  0.00  0.00    +0.000 A 
ATOM      6  C   UNK A   0      18.650  11.112  15.223  0.00  0.00    +0.000 A 
ENDROOT
BRANCH   3   7
ATOM      7  N   UNK A   0      18.236  12.424  11.112  0.00  0.00    +0.000 N 
ATOM      8  C   UNK A   0      16.910  13.045  10.987  0.00  0.00    +0.000 A 
ATOM      9  N   UNK A   0      16.615  14.206  11.697  0.00  0.00    +0.000 NA
ATOM     10  C   UNK A   0      15.358  14.795  11.580  0.00  0.00    +0.000 A 
ATOM     11  O   UNK A   0      14.480  14.272  10.824  0.00  0.00    +0.000 OA
ATOM     12  C   UNK A   0      15.053  15.996  12.314  0.00  0.00    +0.000 A 
ATOM     13  C   UNK A   0      13.754  16.604  12.191  0.00  0.00    +0.000 A 
ATOM     14  N   UNK A   0      15.947  12.472  10.159  0.00  0.00    +0.000 N 
ATOM     15  N   UNK A   0      13.459  17.765  12.901  0.00  0.00    +0.000 NA
ATOM     16  C   UNK A   0      12.202  18.354  12.784  0.00  0.00    +0.000 A 
ATOM     17  N   UNK A   0      11.240  17.781  11.955  0.00  0.00    +0.000 NA
ATOM     18  C   UNK A   0      16.048  16.588  13.170  0.00  0.00    +0.000 A 
ATOM     19  N   UNK A   0      17.375  15.967  13.295  0.00  0.00    +0.000 N 
ATOM     20  H   UNK A   0      18.452  11.574  10.592  0.00  0.00    +0.000 HD
ATOM     21  H   UNK A   0      16.163  11.622   9.639  0.00  0.00    +0.000 HD
ATOM     22  H   UNK A   0      17.590  15.117  12.774  0.00  0.00    +0.000 HD
ATOM     23  H   UNK A   0      18.079  16.387  13.901  0.00  0.00    +0.000 HD
ENDBRANCH   3   7
BRANCH   6  24
ATOM     24  C   UNK A   0      17.737  10.021  15.760  0.00  0.00    +0.000 C 
ATOM     25  O   UNK A   0      18.072   8.800  15.647  0.00  0.00    +0.000 OA
ATOM     26  N   GLU A   1      16.468  10.377  16.410  0.00  0.00    +0.000 N 
ATOM     27  H   GLU A   1      15.856   9.645  16.770  0.00  0.00    +0.000 HD
BRANCH  26  28
ATOM     28  CA  GLU A   1      16.080  11.790  16.540  0.00  0.00    +0.000 C 
BRANCH  28  29
ATOM     29  C   GLU A   1      15.969  12.150  18.013  0.00  0.00    +0.000 C 
ATOM     30  O   GLU A   1      16.896  11.826  18.819  0.00  0.00    +0.000 OA
BRANCH  29  31
ATOM     31  OXT GLU A   1      14.828  12.849  18.488  0.00  0.00    +0.000 OA
ATOM     32  HXT GLU A   1      14.035  12.342  18.824  0.00  0.00    +0.000 HD
ENDBRANCH  29  31
ENDBRANCH  28  29
BRANCH  28  33
ATOM     33  CB  GLU A   1      14.739  12.012  15.861  0.00  0.00    +0.000 C 
BRANCH  33  34
ATOM     34  CG  GLU A   1      14.966  12.533  14.452  0.00  0.00    +0.000 C 
BRANCH  34  35
ATOM     35  CD  GLU A   1      14.604  11.452  13.447  0.00  0.00    +0.000 C 
ATOM     36  OE1 GLU A   1      15.007  10.260  13.623  0.00  0.00    +0.000 OA
BRANCH  35  37
ATOM     37  OE2 GLU A   1      13.815  11.775  12.311  0.00  0.00    +0.000 OA
ATOM     38  HE2 GLU A   1      14.257  11.986  11.439  0.00  0.00    +0.000 HD
ENDBRANCH  35  37
ENDBRANCH  34  35
ENDBRANCH  33  34
ENDBRANCH  28  33
ENDBRANCH  26  28
ENDBRANCH   6  24
TORSDOF 9
ENDMDL
MODEL 2
REMARK VINA RESULT:    -0.000      8.286     10.054
REMARK INTER + INTRA:          -2.659
REMARK INTER:                   0.000
REMARK INTRA:                  -2.659
REMARK UNBOUND:                -2.659
REMARK  Name = 
REMARK  9 active torsions:
REMARK  status: ('A' for Active; 'I' for Inactive)
REMARK    1  A    between atoms: C_3  and  N_19
REMARK    2  A    between atoms: C_6  and  C_7
REMARK    3  A    between atoms: N_9  and  CA_10
REMARK    4  A    between atoms: CA_10  and  CB_11
REMARK    5  A    between atoms: CA_10  and  C_16
REMARK    6  A    between atoms: CB_11  and  CG_12
REMARK    7  A    between atoms: CG_12  and  CD_13
REMARK    8  A    between atoms: CD_13  and  OE2_15
REMARK    9  A    between atoms: C_16  and  OXT_18
REMARK                            x       y       z     vdW  Elec       q    Type
REMARK                         _______ _______ _______ _____ _____    ______ ____
ROOT
ATOM      1  C   UNK A   0       7.952   9.147  17.017  0.00  0.00    +0.000 A 
ATOM      2  C   UNK A   0       8.397   8.439  15.846  0.00  0.00    +0.000 A 
ATOM      3  C   UNK A   0       7.453   8.082  14.818  0.00  0.00    +0.000 A 
ATOM      4  C   UNK A   0       7.898   7.374  13.645  0.00  0.00    +0.000 A 
ATOM      5  C   UNK A   0       6.954   7.017  12.618  0.00  0.00    +0.000 A 
ATOM      6  C   UNK A   0       8.895   9.503  18.045  0.00  0.00    +0.000 A 
ENDROOT
BRANCH   3   7
ATOM      7  N   UNK A   0       6.035   8.440  14.966  0.00  0.00    +0.000 N 
ATOM      8  C   UNK A   0       5.530   9.696  14.393  0.00  0.00    +0.000 A 
ATOM      9  N   UNK A   0       6.395  10.546  13.709  0.00  0.00    +0.000 NA
ATOM     10  C   UNK A   0       5.917  11.737  13.166  0.00  0.00    +0.000 A 
ATOM     11  O   UNK A   0       4.691  12.046  13.294  0.00  0.00    +0.000 OA
ATOM     12  C   UNK A   0       6.812  12.616  12.459  0.00  0.00    +0.000 A 
ATOM     13  C   UNK A   0       6.317  13.846  11.897  0.00  0.00    +0.000 A 
ATOM     14  N   UNK A   0       4.186  10.035  14.533  0.00  0.00    +0.000 N 
ATOM     15  N   UNK A   0       7.182  14.697  11.213  0.00  0.00    +0.000 NA
ATOM     16  C   UNK A   0       6.704  15.887  10.669  0.00  0.00    +0.000 A 
ATOM     17  N   UNK A   0       5.361  16.227  10.810  0.00  0.00    +0.000 NA
ATOM     18  C   UNK A   0       8.201  12.266  12.314  0.00  0.00    +0.000 A 
ATOM     19  N   UNK A   0       8.706  11.010  12.887  0.00  0.00    +0.000 N 
ATOM     20  H   UNK A   0       5.401   7.817  15.467  0.00  0.00    +0.000 HD
ATOM     21  H   UNK A   0       3.553   9.412  15.034  0.00  0.00    +0.000 HD
ATOM     22  H   UNK A   0       8.072  10.387  13.388  0.00  0.00    +0.000 HD
ATOM     23  H   UNK A   0       9.690  10.761  12.784  0.00  0.00    +0.000 HD
ENDBRANCH   3   7
BRANCH   6  24
ATOM     24  C   UNK A   0       8.426  10.251  19.283  0.00  0.00    +0.000 C 
ATOM     25  O   UNK A   0       8.018   9.605  20.299  0.00  0.00    +0.000 OA
ATOM     26  N   GLU A   1       8.443  11.721  19.305  0.00  0.00    +0.000 N 
ATOM     27  H   GLU A   1       8.128  12.222  20.135  0.00  0.00    +0.000 HD
BRANCH  26  28
ATOM     28  CA  GLU A   1       8.914  12.468  18.130  0.00  0.00    +0.000 C 
BRANCH  28  29
ATOM     29  C   GLU A   1      10.141  13.283  18.506  0.00  0.00    +0.000 C 
ATOM     30  O   GLU A   1      11.085  12.744  19.163  0.00  0.00    +0.000 OA
BRANCH  29  31
ATOM     31  OXT GLU A   1      10.231  14.647  18.123  0.00  0.00    +0.000 OA
ATOM     32  HXT GLU A   1       9.408  15.146  17.853  0.00  0.00    +0.000 HD
ENDBRANCH  29  31
ENDBRANCH  28  29
BRANCH  28  33
ATOM     33  CB  GLU A   1       7.814  13.400  17.647  0.00  0.00    +0.000 C 
BRANCH  33  34
ATOM     34  CG  GLU A   1       7.045  12.734  16.520  0.00  0.00    +0.000 C 
BRANCH  34  35
ATOM     35  CD  GLU A   1       5.658  12.349  17.011  0.00  0.00    +0.000 C 
ATOM     36  OE1 GLU A   1       5.519  11.773  18.135  0.00  0.00    +0.000 OA
BRANCH  35  37
ATOM     37  OE2 GLU A   1       4.519  12.633  16.212  0.00  0.00    +0.000 OA
ATOM     38  HE2 GLU A   1       4.496  12.346  15.254  0.00  0.00    +0.000 HD
ENDBRANCH  35  37
ENDBRANCH  34  35
ENDBRANCH  33  34
ENDBRANCH  28  33
ENDBRANCH  26  28
ENDBRANCH   6  24
TORSDOF 9
ENDMDL
MODEL 3
REMARK VINA RESULT:    -0.000      6.685     10.045
REMARK INTER + INTRA:          -2.659
REMARK INTER:                   0.000
REMARK INTRA:                  -2.659
REMARK UNBOUND:                -2.659
REMARK  Name = 
REMARK  9 active torsions:
REMARK  status: ('A' for Active; 'I' for Inactive)
REMARK    1  A    between atoms: C_3  and  N_19
REMARK    2  A    between atoms: C_6  and  C_7
REMARK    3  A    between atoms: N_9  and  CA_10
REMARK    4  A    between atoms: CA_10  and  CB_11
REMARK    5  A    between atoms: CA_10  and  C_16
REMARK    6  A    between atoms: CB_11  and  CG_12
REMARK    7  A    between atoms: CG_12  and  CD_13
REMARK    8  A    between atoms: CD_13  and  OE2_15
REMARK    9  A    between atoms: C_16  and  OXT_18
REMARK                            x       y       z     vdW  Elec       q    Type
REMARK                         _______ _______ _______ _____ _____    ______ ____
ROOT
ATOM      1  C   UNK A   0       5.757  14.204   9.975  0.00  0.00    +0.000 A 
ATOM      2  C   UNK A   0       6.289  13.967   8.658  0.00  0.00    +0.000 A 
ATOM      3  C   UNK A   0       7.169  14.933   8.053  0.00  0.00    +0.000 A 
ATOM      4  C   UNK A   0       7.702  14.696   6.735  0.00  0.00    +0.000 A 
ATOM      5  C   UNK A   0       8.582  15.663   6.130  0.00  0.00    +0.000 A 
ATOM      6  C   UNK A   0       4.876  13.238  10.580  0.00  0.00    +0.000 A 
ENDROOT
BRANCH   3   7
ATOM      7  N   UNK A   0       7.524  16.161   8.779  0.00  0.00    +0.000 N 
ATOM      8  C   UNK A   0       8.743  16.204   9.599  0.00  0.00    +0.000 A 
ATOM      9  N   UNK A   0       9.562  15.081   9.688  0.00  0.00    +0.000 NA
ATOM     10  C   UNK A   0      10.717  15.121  10.465  0.00  0.00    +0.000 A 
ATOM     11  O   UNK A   0      11.023  16.183  11.093  0.00  0.00    +0.000 OA
ATOM     12  C   UNK A   0      11.564  13.960  10.557  0.00  0.00    +0.000 A 
ATOM     13  C   UNK A   0      12.758  14.002  11.360  0.00  0.00    +0.000 A 
ATOM     14  N   UNK A   0       9.079  17.367  10.287  0.00  0.00    +0.000 N 
ATOM     15  N   UNK A   0      13.578  12.880  11.449  0.00  0.00    +0.000 NA
ATOM     16  C   UNK A   0      14.734  12.920  12.226  0.00  0.00    +0.000 A 
ATOM     17  N   UNK A   0      15.070  14.083  12.915  0.00  0.00    +0.000 NA
ATOM     18  C   UNK A   0      11.217  12.757   9.846  0.00  0.00    +0.000 A 
ATOM     19  N   UNK A   0       9.998  12.715   9.026  0.00  0.00    +0.000 N 
ATOM     20  H   UNK A   0       6.924  16.983   8.714  0.00  0.00    +0.000 HD
ATOM     21  H   UNK A   0       8.479  18.189  10.222  0.00  0.00    +0.000 HD
ATOM     22  H   UNK A   0       9.398  13.537   8.960  0.00  0.00    +0.000 HD
ATOM     23  H   UNK A   0       9.752  11.863   8.522  0.00  0.00    +0.000 HD
ENDBRANCH   3   7
BRANCH   6  24
ATOM     24  C   UNK A   0       4.314  13.487  11.970  0.00  0.00    +0.000 C 
ATOM     25  O   UNK A   0       3.223  14.125  12.110  0.00  0.00    +0.000 OA
ATOM     26  N   GLU A   1       5.032  12.992  13.153  0.00  0.00    +0.000 N 
ATOM     27  H   GLU A   1       4.655  13.159  14.086  0.00  0.00    +0.000 HD
BRANCH  26  28
ATOM     28  CA  GLU A   1       6.294  12.255  12.992  0.00  0.00    +0.000 C 
BRANCH  28  29
ATOM     29  C   GLU A   1       6.131  10.845  13.538  0.00  0.00    +0.000 C 
ATOM     30  O   GLU A   1       5.113  10.154  13.220  0.00  0.00    +0.000 OA
BRANCH  29  31
ATOM     31  OXT GLU A   1       7.116  10.302  14.404  0.00  0.00    +0.000 OA
ATOM     32  HXT GLU A   1       7.945   9.893  14.024  0.00  0.00    +0.000 HD
ENDBRANCH  29  31
ENDBRANCH  28  29
BRANCH  28  33
ATOM     33  CB  GLU A   1       7.399  12.969  13.754  0.00  0.00    +0.000 C 
BRANCH  33  34
ATOM     34  CG  GLU A   1       8.170  13.867  12.802  0.00  0.00    +0.000 C 
BRANCH  34  35
ATOM     35  CD  GLU A   1       7.857  15.322  13.112  0.00  0.00    +0.000 C 
ATOM     36  OE1 GLU A   1       6.654  15.688  13.297  0.00  0.00    +0.000 OA
BRANCH  35  37
ATOM     37  OE2 GLU A   1       8.909  16.272  13.193  0.00  0.00    +0.000 OA
ATOM     38  HE2 GLU A   1       9.317  16.491  14.080  0.00  0.00    +0.000 HD
ENDBRANCH  35  37
ENDBRANCH  34  35
ENDBRANCH  33  34
ENDBRANCH  28  33
ENDBRANCH  26  28
ENDBRANCH   6  24
TORSDOF 9
ENDMDL
MODEL 4
REMARK VINA RESULT:     0.000      7.168      9.732
REMARK INTER + INTRA:          -2.659
REMARK INTER:                   0.000
REMARK INTRA:                  -2.659
REMARK UNBOUND:                -2.659
REMARK  Name = 
REMARK  9 active torsions:
REMARK  status: ('A' for Active; 'I' for Inactive)
REMARK    1  A    between atoms: C_3  and  N_19
REMARK    2  A    between atoms: C_6  and  C_7
REMARK    3  A    between atoms: N_9  and  CA_10
REMARK    4  A    between atoms: CA_10  and  CB_11
REMARK    5  A    between atoms: CA_10  and  C_16
REMARK    6  A    between atoms: CB_11  and  CG_12
REMARK    7  A    between atoms: CG_12  and  CD_13
REMARK    8  A    between atoms: CD_13  and  OE2_15
REMARK    9  A    between atoms: C_16  and  OXT_18
REMARK                            x       y       z     vdW  Elec       q    Type
REMARK                         _______ _______ _______ _____ _____    ______ ____
ROOT
ATOM      1  C   UNK A   0      17.238   5.565  13.400  0.00  0.00    +0.000 A 
ATOM      2  C   UNK A   0      17.423   6.955  13.727  0.00  0.00    +0.000 A 
ATOM      3  C   UNK A   0      18.752   7.496  13.843  0.00  0.00    +0.000 A 
ATOM      4  C   UNK A   0      18.938   8.887  14.170  0.00  0.00    +0.000 A 
ATOM      5  C   UNK A   0      20.268   9.429  14.286  0.00  0.00    +0.000 A 
ATOM      6  C   UNK A   0      15.909   5.023  13.286  0.00  0.00    +0.000 A 
ENDROOT
BRANCH   3   7
ATOM      7  N   UNK A   0      19.920   6.630  13.627  0.00  0.00    +0.000 N 
ATOM      8  C   UNK A   0      20.536   6.544  12.295  0.00  0.00    +0.000 A 
ATOM      9  N   UNK A   0      20.012   7.283  11.238  0.00  0.00    +0.000 NA
ATOM     10  C   UNK A   0      20.594   7.201   9.975  0.00  0.00    +0.000 A 
ATOM     11  O   UNK A   0      21.604   6.452   9.788  0.00  0.00    +0.000 OA
ATOM     12  C   UNK A   0      20.053   7.966   8.881  0.00  0.00    +0.000 A 
ATOM     13  C   UNK A   0      20.656   7.882   7.576  0.00  0.00    +0.000 A 
ATOM     14  N   UNK A   0      21.642   5.723  12.091  0.00  0.00    +0.000 N 
ATOM     15  N   UNK A   0      20.133   8.621   6.518  0.00  0.00    +0.000 NA
ATOM     16  C   UNK A   0      20.715   8.540   5.255  0.00  0.00    +0.000 A 
ATOM     17  N   UNK A   0      21.822   7.719   5.051  0.00  0.00    +0.000 NA
ATOM     18  C   UNK A   0      18.909   8.815   9.092  0.00  0.00    +0.000 A 
ATOM     19  N   UNK A   0      18.294   8.901  10.424  0.00  0.00    +0.000 N 
ATOM     20  H   UNK A   0      20.304   6.089  14.402  0.00  0.00    +0.000 HD
ATOM     21  H   UNK A   0      22.026   5.182  12.865  0.00  0.00    +0.000 HD
ATOM     22  H   UNK A   0      18.677   8.359  11.199  0.00  0.00    +0.000 HD
ATOM     23  H   UNK A   0      17.484   9.502  10.574  0.00  0.00    +0.000 HD
ENDBRANCH   3   7
BRANCH   6  24
ATOM     24  C   UNK A   0      15.713   3.555  12.940  0.00  0.00    +0.000 C 
ATOM     25  O   UNK A   0      15.664   2.686  13.866  0.00  0.00    +0.000 OA
ATOM     26  N   GLU A   1      15.579   3.142  11.536  0.00  0.00    +0.000 N 
ATOM     27  H   GLU A   1      15.447   2.158  11.304  0.00  0.00    +0.000 HD
BRANCH  26  28
ATOM     28  CA  GLU A   1      15.635   4.148  10.465  0.00  0.00    +0.000 C 
BRANCH  28  29
ATOM     29  C   GLU A   1      14.314   4.162   9.713  0.00  0.00    +0.000 C 
ATOM     30  O   GLU A   1      13.218   4.194  10.355  0.00  0.00    +0.000 OA
BRANCH  29  31
ATOM     31  OXT GLU A   1      14.306   4.138   8.293  0.00  0.00    +0.000 OA
ATOM     32  HXT GLU A   1      14.224   3.268   7.809  0.00  0.00    +0.000 HD
ENDBRANCH  29  31
ENDBRANCH  28  29
BRANCH  28  33
ATOM     33  CB  GLU A   1      16.762   3.803   9.505  0.00  0.00    +0.000 C 
BRANCH  33  34
ATOM     34  CG  GLU A   1      18.004   4.594   9.877  0.00  0.00    +0.000 C 
BRANCH  34  35
ATOM     35  CD  GLU A   1      19.045   3.656  10.467  0.00  0.00    +0.000 C 
ATOM     36  OE1 GLU A   1      18.705   2.797  11.340  0.00  0.00    +0.000 OA
BRANCH  35  37
ATOM     37  OE2 GLU A   1      20.397   3.740  10.041  0.00  0.00    +0.000 OA
ATOM     38  HE2 GLU A   1      20.763   4.608   9.707  0.00  0.00    +0.000 HD
ENDBRANCH  35  37
ENDBRANCH  34  35
ENDBRANCH  33  34
ENDBRANCH  28  33
ENDBRANCH  26  28
ENDBRANCH   6  24
TORSDOF 9
ENDMDL
MODEL 5
REMARK VINA RESULT:     0.000      4.360      6.460
REMARK INTER + INTRA:          -2.659
REMARK INTER:                   0.000
REMARK INTRA:                  -2.659
REMARK UNBOUND:                -2.659
REMARK  Name = 
REMARK  9 active torsions:
REMARK  status: ('A' for Active; 'I' for Inactive)
REMARK    1  A    between atoms: C_3  and  N_19
REMARK    2  A    between atoms: C_6  and  C_7
REMARK    3  A    between atoms: N_9  and  CA_10
REMARK    4  A    between atoms: CA_10  and  CB_11
REMARK    5  A    between atoms: CA_10  and  C_16
REMARK    6  A    between atoms: CB_11  and  CG_12
REMARK    7  A    between atoms: CG_12  and  CD_13
REMARK    8  A    between atoms: CD_13  and  OE2_15
REMARK    9  A    between atoms: C_16  and  OXT_18
REMARK                            x       y       z     vdW  Elec       q    Type
REMARK                         _______ _______ _______ _____ _____    ______ ____
ROOT
ATOM      1  C   UNK A   0      16.001   9.430   8.740  0.00  0.00    +0.000 A 
ATOM      2  C   UNK A   0      16.922   9.010   7.717  0.00  0.00    +0.000 A 
ATOM      3  C   UNK A   0      16.724   9.428   6.354  0.00  0.00    +0.000 A 
ATOM      4  C   UNK A   0      17.646   9.008   5.330  0.00  0.00    +0.000 A 
ATOM      5  C   UNK A   0      17.448   9.427   3.966  0.00  0.00    +0.000 A 
ATOM      6  C   UNK A   0      16.198   9.010  10.104  0.00  0.00    +0.000 A 
ENDROOT
BRANCH   3   7
ATOM      7  N   UNK A   0      15.581  10.285   6.007  0.00  0.00    +0.000 N 
ATOM      8  C   UNK A   0      15.739  11.746   5.980  0.00  0.00    +0.000 A 
ATOM      9  N   UNK A   0      16.971  12.319   6.283  0.00  0.00    +0.000 NA
ATOM     10  C   UNK A   0      17.121  13.703   6.259  0.00  0.00    +0.000 A 
ATOM     11  O   UNK A   0      16.132  14.444   5.959  0.00  0.00    +0.000 OA
ATOM     12  C   UNK A   0      18.395  14.296   6.573  0.00  0.00    +0.000 A 
ATOM     13  C   UNK A   0      18.550  15.727   6.547  0.00  0.00    +0.000 A 
ATOM     14  N   UNK A   0      14.656  12.558   5.651  0.00  0.00    +0.000 N 
ATOM     15  N   UNK A   0      19.782  16.301   6.850  0.00  0.00    +0.000 NA
ATOM     16  C   UNK A   0      19.932  17.686   6.825  0.00  0.00    +0.000 A 
ATOM     17  N   UNK A   0      18.849  18.497   6.496  0.00  0.00    +0.000 NA
ATOM     18  C   UNK A   0      19.515  13.457   6.913  0.00  0.00    +0.000 A 
ATOM     19  N   UNK A   0      19.358  11.996   6.940  0.00  0.00    +0.000 N 
ATOM     20  H   UNK A   0      14.679   9.865   5.784  0.00  0.00    +0.000 HD
ATOM     21  H   UNK A   0      13.753  12.138   5.428  0.00  0.00    +0.000 HD
ATOM     22  H   UNK A   0      18.455  11.576   6.717  0.00  0.00    +0.000 HD
ATOM     23  H   UNK A   0      20.151  11.402   7.180  0.00  0.00    +0.000 HD
ENDBRANCH   3   7
BRANCH   6  24
ATOM     24  C   UNK A   0      15.225   9.454  11.185  0.00  0.00    +0.000 C 
ATOM     25  O   UNK A   0      14.192   8.757  11.435  0.00  0.00    +0.000 OA
ATOM     26  N   GLU A   1      15.480  10.689  11.941  0.00  0.00    +0.000 N 
ATOM     27  H   GLU A   1      14.827  10.986  12.666  0.00  0.00    +0.000 HD
BRANCH  26  28
ATOM     28  CA  GLU A   1      16.675  11.495  11.652  0.00  0.00    +0.000 C 
BRANCH  28  29
ATOM     29  C   GLU A   1      17.559  11.551  12.887  0.00  0.00    +0.000 C 
ATOM     30  O   GLU A   1      17.838  10.483  13.518  0.00  0.00    +0.000 OA
BRANCH  29  31
ATOM     31  OXT GLU A   1      18.074  12.796  13.335  0.00  0.00    +0.000 OA
ATOM     32  HXT GLU A   1      18.086  13.583  12.719  0.00  0.00    +0.000 HD
ENDBRANCH  29  31
ENDBRANCH  28  29
BRANCH  28  33
ATOM     33  CB  GLU A   1      16.254  12.904  11.265  0.00  0.00    +0.000 C 
BRANCH  33  34
ATOM     34  CG  GLU A   1      16.200  13.018   9.752  0.00  0.00    +0.000 C 
BRANCH  34  35
ATOM     35  CD  GLU A   1      14.751  13.121   9.302  0.00  0.00    +0.000 C 
ATOM     36  OE1 GLU A   1      13.878  12.336   9.788  0.00  0.00    +0.000 OA
BRANCH  35  37
ATOM     37  OE2 GLU A   1      14.375  14.094   8.340  0.00  0.00    +0.000 OA
ATOM     38  HE2 GLU A   1      13.704  14.798   8.575  0.00  0.00    +0.000 HD
ENDBRANCH  35  37
ENDBRANCH  34  35
ENDBRANCH  33  34
ENDBRANCH  28  33
ENDBRANCH  26  28
ENDBRANCH   6  24
TORSDOF 9
ENDMDL
