MODEL 1
REMARK VINA RESULT:     0.000      0.000      0.000
REMARK INTER + INTRA:          -0.427
REMARK INTER:                   0.000
REMARK INTRA:                  -0.427
REMARK UNBOUND:                -0.427
REMARK  Name = 
REMARK  4 active torsions:
REMARK  status: ('A' for Active; 'I' for Inactive)
REMARK    1  A    between atoms: C_3  and  O_20
REMARK    2  A    between atoms: C_6  and  C_7
REMARK    3  A    between atoms: C_12  and  O_19
REMARK    4  A    between atoms: C_14  and  O_18
REMARK                            x       y       z     vdW  Elec       q    Type
REMARK                         _______ _______ _______ _____ _____    ______ ____
ROOT
ATOM      1  C   UNL     1      15.870  11.796  13.223  0.00  0.00    +0.000 A 
ATOM      2  C   UNL     1      17.280  12.090  13.259  0.00  0.00    +0.000 A 
ATOM      3  O   UNL     1      17.703  13.366  13.210  0.00  0.00    +0.000 OA
ATOM      4  C   UNL     1      16.809  14.368  13.127  0.00  0.00    +0.000 A 
ATOM      5  C   UNL     1      17.261  15.734  13.074  0.00  0.00    +0.000 A 
ATOM      6  C   UNL     1      18.670  16.028  13.109  0.00  0.00    +0.000 A 
ATOM      7  C   UNL     1      19.122  17.394  13.057  0.00  0.00    +0.000 A 
ATOM      8  C   UNL     1      20.531  17.688  13.092  0.00  0.00    +0.000 A 
ATOM      9  C   UNL     1      15.399  14.074  13.092  0.00  0.00    +0.000 A 
ATOM     10  C   UNL     1      15.418  10.429  13.276  0.00  0.00    +0.000 A 
ATOM     11  O   UNL     1      14.174  10.170  13.245  0.00  0.00    +0.000 OA
ENDROOT
BRANCH   1  17
ATOM     12  C   UNL     1      14.362  13.344  11.844  0.00  0.00    +0.000 A 
ATOM     13  C   UNL     1      13.405  14.416  11.756  0.00  0.00    +0.000 A 
ATOM     14  C   UNL     1      12.907  14.832  10.470  0.00  0.00    +0.000 A 
ATOM     15  C   UNL     1      11.949  15.904  10.382  0.00  0.00    +0.000 A 
ATOM     16  C   UNL     1      11.451  16.320   9.096  0.00  0.00    +0.000 A 
ATOM     17  C   UNL     1      14.861  12.928  13.130  0.00  0.00    +0.000 A 
BRANCH  14  18
ATOM     18  O   UNL     1      13.359  14.185   9.289  0.00  0.00    +0.000 OA
ATOM     19  H   UNL     1      13.677  13.237   9.329  0.00  0.00    +0.000 HD
ENDBRANCH  14  18
ENDBRANCH   1  17
BRANCH   8  20
ATOM     20  O   UNL     1      21.475  16.630  13.179  0.00  0.00    +0.000 OA
ATOM     21  H   UNL     1      22.265  16.613  12.565  0.00  0.00    +0.000 HD
ENDBRANCH   8  20
BRANCH   6  22
ATOM     22  O   UNL     1      19.614  14.970  13.196  0.00  0.00    +0.000 OA
ATOM     23  H   UNL     1      19.740  14.482  14.060  0.00  0.00    +0.000 HD
ENDBRANCH   6  22
TORSDOF 4
ENDMDL
MODEL 2
REMARK VINA RESULT:     0.000      6.314      8.607
REMARK INTER + INTRA:          -0.427
REMARK INTER:                   0.000
REMARK INTRA:                  -0.427
REMARK UNBOUND:                -0.427
REMARK  Name = 
REMARK  4 active torsions:
REMARK  status: ('A' for Active; 'I' for Inactive)
REMARK    1  A    between atoms: C_3  and  O_20
REMARK    2  A    between atoms: C_6  and  C_7
REMARK    3  A    between atoms: C_12  and  O_19
REMARK    4  A    between atoms: C_14  and  O_18
REMARK                            x       y       z     vdW  Elec       q    Type
REMARK                         _______ _______ _______ _____ _____    ______ ____
ROOT
ATOM      1  C   UNL     1      13.490   9.423  19.226  0.00  0.00    +0.000 A 
ATOM      2  C   UNL     1      13.917   8.703  18.054  0.00  0.00    +0.000 A 
ATOM      3  O   UNL     1      13.646   9.190  16.830  0.00  0.00    +0.000 OA
ATOM      4  C   UNL     1      12.975  10.349  16.700  0.00  0.00    +0.000 A 
ATOM      5  C   UNL     1      12.684  10.870  15.390  0.00  0.00    +0.000 A 
ATOM      6  C   UNL     1      13.110  10.150  14.218  0.00  0.00    +0.000 A 
ATOM      7  C   UNL     1      12.819  10.671  12.907  0.00  0.00    +0.000 A 
ATOM      8  C   UNL     1      13.246   9.952  11.736  0.00  0.00    +0.000 A 
ATOM      9  C   UNL     1      12.548  11.068  17.873  0.00  0.00    +0.000 A 
ATOM     10  C   UNL     1      13.781   8.901  20.538  0.00  0.00    +0.000 A 
ATOM     11  O   UNL     1      13.405   9.537  21.572  0.00  0.00    +0.000 OA
ENDROOT
BRANCH   1  17
ATOM     12  C   UNL     1      11.292  10.734  19.088  0.00  0.00    +0.000 A 
ATOM     13  C   UNL     1      10.574  11.976  18.950  0.00  0.00    +0.000 A 
ATOM     14  C   UNL     1       9.134  11.978  18.957  0.00  0.00    +0.000 A 
ATOM     15  C   UNL     1       8.416  13.219  18.819  0.00  0.00    +0.000 A 
ATOM     16  C   UNL     1       6.975  13.222  18.827  0.00  0.00    +0.000 A 
ATOM     17  C   UNL     1      12.732  10.732  19.080  0.00  0.00    +0.000 A 
BRANCH  14  18
ATOM     18  O   UNL     1       8.422  10.758  19.101  0.00  0.00    +0.000 OA
ATOM     19  H   UNL     1       7.518  10.654  18.684  0.00  0.00    +0.000 HD
ENDBRANCH  14  18
ENDBRANCH   1  17
BRANCH   8  20
ATOM     20  O   UNL     1      13.953   8.728  11.872  0.00  0.00    +0.000 OA
ATOM     21  H   UNL     1      14.953   8.727  11.885  0.00  0.00    +0.000 HD
ENDBRANCH   8  20
BRANCH   6  22
ATOM     22  O   UNL     1      13.818   8.926  14.354  0.00  0.00    +0.000 OA
ATOM     23  H   UNL     1      13.940   8.518  15.259  0.00  0.00    +0.000 HD
ENDBRANCH   6  22
TORSDOF 4
ENDMDL
MODEL 3
REMARK VINA RESULT:     0.000      9.589     12.475
REMARK INTER + INTRA:          -0.427
REMARK INTER:                   0.000
REMARK INTRA:                  -0.427
REMARK UNBOUND:                -0.427
REMARK  Name = 
REMARK  4 active torsions:
REMARK  status: ('A' for Active; 'I' for Inactive)
REMARK    1  A    between atoms: C_3  and  O_20
REMARK    2  A    between atoms: C_6  and  C_7
REMARK    3  A    between atoms: C_12  and  O_19
REMARK    4  A    between atoms: C_14  and  O_18
REMARK                            x       y       z     vdW  Elec       q    Type
REMARK                         _______ _______ _______ _____ _____    ______ ____
ROOT
ATOM      1  C   UNL     1      11.935  10.677  19.754  0.00  0.00    +0.000 A 
ATOM      2  C   UNL     1      10.946   9.828  19.141  0.00  0.00    +0.000 A 
ATOM      3  O   UNL     1       9.683  10.266  18.990  0.00  0.00    +0.000 OA
ATOM      4  C   UNL     1       9.344  11.498  19.413  0.00  0.00    +0.000 A 
ATOM      5  C   UNL     1       7.992  11.967  19.252  0.00  0.00    +0.000 A 
ATOM      6  C   UNL     1       7.003  11.118  18.639  0.00  0.00    +0.000 A 
ATOM      7  C   UNL     1       5.651  11.588  18.478  0.00  0.00    +0.000 A 
ATOM      8  C   UNL     1       4.663  10.740  17.866  0.00  0.00    +0.000 A 
ATOM      9  C   UNL     1      10.333  12.347  20.025  0.00  0.00    +0.000 A 
ATOM     10  C   UNL     1      13.287  10.207  19.915  0.00  0.00    +0.000 A 
ATOM     11  O   UNL     1      14.160  10.957  20.455  0.00  0.00    +0.000 OA
ENDROOT
BRANCH   1  17
ATOM     12  C   UNL     1      11.157  12.276  21.601  0.00  0.00    +0.000 A 
ATOM     13  C   UNL     1      10.794  13.595  22.052  0.00  0.00    +0.000 A 
ATOM     14  C   UNL     1      10.400  13.803  23.422  0.00  0.00    +0.000 A 
ATOM     15  C   UNL     1      10.037  15.122  23.874  0.00  0.00    +0.000 A 
ATOM     16  C   UNL     1       9.642  15.329  25.244  0.00  0.00    +0.000 A 
ATOM     17  C   UNL     1      11.552  12.068  20.231  0.00  0.00    +0.000 A 
BRANCH  14  18
ATOM     18  O   UNL     1      10.368  12.708  24.326  0.00  0.00    +0.000 OA
ATOM     19  H   UNL     1       9.532  12.504  24.836  0.00  0.00    +0.000 HD
ENDBRANCH  14  18
ENDBRANCH   1  17
BRANCH   8  20
ATOM     20  O   UNL     1       5.020   9.439  17.421  0.00  0.00    +0.000 OA
ATOM     21  H   UNL     1       5.511   9.323  16.557  0.00  0.00    +0.000 HD
ENDBRANCH   8  20
BRANCH   6  22
ATOM     22  O   UNL     1       7.361   9.819  18.194  0.00  0.00    +0.000 OA
ATOM     23  H   UNL     1       8.068   9.706  17.495  0.00  0.00    +0.000 HD
ENDBRANCH   6  22
TORSDOF 4
ENDMDL
MODEL 4
REMARK VINA RESULT:     0.000      8.219     10.796
REMARK INTER + INTRA:          -0.427
REMARK INTER:                   0.000
REMARK INTRA:                  -0.427
REMARK UNBOUND:                -0.427
REMARK  Name = 
REMARK  4 active torsions:
REMARK  status: ('A' for Active; 'I' for Inactive)
REMARK    1  A    between atoms: C_3  and  O_20
REMARK    2  A    between atoms: C_6  and  C_7
REMARK    3  A    between atoms: C_12  and  O_19
REMARK    4  A    between atoms: C_14  and  O_18
REMARK                            x       y       z     vdW  Elec       q    Type
REMARK                         _______ _______ _______ _____ _____    ______ ____
ROOT
ATOM      1  C   UNL     1      12.752  12.011  19.199  0.00  0.00    +0.000 A 
ATOM      2  C   UNL     1      12.118  11.063  18.320  0.00  0.00    +0.000 A 
ATOM      3  O   UNL     1      10.960  11.379  17.713  0.00  0.00    +0.000 OA
ATOM      4  C   UNL     1      10.394  12.581  17.927  0.00  0.00    +0.000 A 
ATOM      5  C   UNL     1       9.154  12.919  17.277  0.00  0.00    +0.000 A 
ATOM      6  C   UNL     1       8.519  11.971  16.398  0.00  0.00    +0.000 A 
ATOM      7  C   UNL     1       7.280  12.309  15.749  0.00  0.00    +0.000 A 
ATOM      8  C   UNL     1       6.645  11.362  14.870  0.00  0.00    +0.000 A 
ATOM      9  C   UNL     1      11.028  13.529  18.805  0.00  0.00    +0.000 A 
ATOM     10  C   UNL     1      13.993  11.673  19.849  0.00  0.00    +0.000 A 
ATOM     11  O   UNL     1      14.552  12.510  20.624  0.00  0.00    +0.000 OA
ENDROOT
BRANCH   1  17
ATOM     12  C   UNL     1      11.242  13.563  20.572  0.00  0.00    +0.000 A 
ATOM     13  C   UNL     1      10.637  14.850  20.800  0.00  0.00    +0.000 A 
ATOM     14  C   UNL     1       9.766  15.045  21.931  0.00  0.00    +0.000 A 
ATOM     15  C   UNL     1       9.161  16.332  22.160  0.00  0.00    +0.000 A 
ATOM     16  C   UNL     1       8.290  16.526  23.291  0.00  0.00    +0.000 A 
ATOM     17  C   UNL     1      12.113  13.369  19.440  0.00  0.00    +0.000 A 
BRANCH  14  18
ATOM     18  O   UNL     1       9.504  13.968  22.820  0.00  0.00    +0.000 OA
ATOM     19  H   UNL     1       9.101  13.121  22.474  0.00  0.00    +0.000 HD
ENDBRANCH  14  18
ENDBRANCH   1  17
BRANCH   8  20
ATOM     20  O   UNL     1       7.242  10.092  14.645  0.00  0.00    +0.000 OA
ATOM     21  H   UNL     1       7.622   9.870  13.746  0.00  0.00    +0.000 HD
ENDBRANCH   8  20
BRANCH   6  22
ATOM     22  O   UNL     1       9.116  10.702  16.173  0.00  0.00    +0.000 OA
ATOM     23  H   UNL     1      10.013  10.495  16.564  0.00  0.00    +0.000 HD
ENDBRANCH   6  22
TORSDOF 4
ENDMDL
MODEL 5
REMARK VINA RESULT:     0.000      5.348      6.023
REMARK INTER + INTRA:          -0.427
REMARK INTER:                   0.000
REMARK INTRA:                  -0.427
REMARK UNBOUND:                -0.427
REMARK  Name = 
REMARK  4 active torsions:
REMARK  status: ('A' for Active; 'I' for Inactive)
REMARK    1  A    between atoms: C_3  and  O_20
REMARK    2  A    between atoms: C_6  and  C_7
REMARK    3  A    between atoms: C_12  and  O_19
REMARK    4  A    between atoms: C_14  and  O_18
REMARK                            x       y       z     vdW  Elec       q    Type
REMARK                         _______ _______ _______ _____ _____    ______ ____
ROOT
ATOM      1  C   UNL     1      15.076   9.685   8.527  0.00  0.00    +0.000 A 
ATOM      2  C   UNL     1      15.815   9.538   7.299  0.00  0.00    +0.000 A 
ATOM      3  O   UNL     1      16.844  10.361   7.031  0.00  0.00    +0.000 OA
ATOM      4  C   UNL     1      17.184  11.322   7.909  0.00  0.00    +0.000 A 
ATOM      5  C   UNL     1      18.286  12.203   7.622  0.00  0.00    +0.000 A 
ATOM      6  C   UNL     1      19.024  12.056   6.394  0.00  0.00    +0.000 A 
ATOM      7  C   UNL     1      20.127  12.937   6.107  0.00  0.00    +0.000 A 
ATOM      8  C   UNL     1      20.865  12.790   4.880  0.00  0.00    +0.000 A 
ATOM      9  C   UNL     1      16.446  11.469   9.137  0.00  0.00    +0.000 A 
ATOM     10  C   UNL     1      13.973   8.804   8.815  0.00  0.00    +0.000 A 
ATOM     11  O   UNL     1      13.322   8.934   9.898  0.00  0.00    +0.000 OA
ENDROOT
BRANCH   1  17
ATOM     12  C   UNL     1      14.799  12.050   9.478  0.00  0.00    +0.000 A 
ATOM     13  C   UNL     1      15.163  13.078  10.419  0.00  0.00    +0.000 A 
ATOM     14  C   UNL     1      14.502  14.358  10.377  0.00  0.00    +0.000 A 
ATOM     15  C   UNL     1      14.866  15.386  11.318  0.00  0.00    +0.000 A 
ATOM     16  C   UNL     1      14.205  16.665  11.277  0.00  0.00    +0.000 A 
ATOM     17  C   UNL     1      15.460  10.771   9.519  0.00  0.00    +0.000 A 
BRANCH  14  18
ATOM     18  O   UNL     1      13.492  14.605   9.409  0.00  0.00    +0.000 OA
ATOM     19  H   UNL     1      13.704  15.141   8.592  0.00  0.00    +0.000 HD
ENDBRANCH  14  18
ENDBRANCH   1  17
BRANCH   8  20
ATOM     20  O   UNL     1      20.506  11.776   3.952  0.00  0.00    +0.000 OA
ATOM     21  H   UNL     1      20.792  11.848   2.996  0.00  0.00    +0.000 HD
ENDBRANCH   8  20
BRANCH   6  22
ATOM     22  O   UNL     1      18.666  11.042   5.467  0.00  0.00    +0.000 OA
ATOM     23  H   UNL     1      18.472  11.280   4.515  0.00  0.00    +0.000 HD
ENDBRANCH   6  22
TORSDOF 4
ENDMDL
