MODEL 1
REMARK VINA RESULT:     0.000      0.000      0.000
REMARK INTER + INTRA:          -0.431
REMARK INTER:                   0.000
REMARK INTRA:                  -0.431
REMARK UNBOUND:                -0.431
REMARK  Name = 
REMARK  5 active torsions:
REMARK  status: ('A' for Active; 'I' for Inactive)
REMARK    1  A    between atoms: C_3  and  O_21
REMARK    2  A    between atoms: C_4  and  O_20
REMARK    3  A    between atoms: C_6  and  C_7
REMARK    4  A    between atoms: C_12  and  O_19
REMARK    5  A    between atoms: C_14  and  O_18
REMARK                            x       y       z     vdW  Elec       q    Type
REMARK                         _______ _______ _______ _____ _____    ______ ____
ROOT
ATOM      1  C   UNL     1      18.624  15.506  15.641  0.00  0.00    +0.000 A 
ATOM      2  C   UNL     1      17.777  16.105  16.639  0.00  0.00    +0.000 A 
ATOM      3  C   UNL     1      16.427  16.482  16.307  0.00  0.00    +0.000 A 
ATOM      4  O   UNL     1      15.679  17.011  17.187  0.00  0.00    +0.000 OA
ATOM      5  C   UNL     1      15.925  16.259  14.975  0.00  0.00    +0.000 A 
ATOM      6  C   UNL     1      14.575  16.635  14.643  0.00  0.00    +0.000 A 
ATOM      7  C   UNL     1      13.728  17.235  15.641  0.00  0.00    +0.000 A 
ATOM      8  C   UNL     1      12.378  17.611  15.308  0.00  0.00    +0.000 A 
ATOM      9  C   UNL     1      11.530  18.211  16.307  0.00  0.00    +0.000 A 
ATOM     10  C   UNL     1      16.772  15.659  13.977  0.00  0.00    +0.000 A 
ATOM     11  O   UNL     1      19.885  15.154  15.952  0.00  0.00    +0.000 OA
ENDROOT
BRANCH   1  17
ATOM     12  C   UNL     1      17.625  13.964  13.852  0.00  0.00    +0.000 A 
ATOM     13  C   UNL     1      17.123  13.740  12.521  0.00  0.00    +0.000 A 
ATOM     14  C   UNL     1      16.653  12.434  12.138  0.00  0.00    +0.000 A 
ATOM     15  C   UNL     1      16.151  12.211  10.807  0.00  0.00    +0.000 A 
ATOM     16  C   UNL     1      15.681  10.905  10.424  0.00  0.00    +0.000 A 
ATOM     17  C   UNL     1      18.094  15.270  14.236  0.00  0.00    +0.000 A 
BRANCH  15  18
ATOM     18  O   UNL     1      16.119  13.279   9.872  0.00  0.00    +0.000 OA
ATOM     19  H   UNL     1      16.072  14.225  10.195  0.00  0.00    +0.000 HD
ENDBRANCH  15  18
BRANCH  14  20
ATOM     20  O   UNL     1      16.685  11.366  13.073  0.00  0.00    +0.000 OA
ATOM     21  H   UNL     1      17.452  11.282  13.710  0.00  0.00    +0.000 HD
ENDBRANCH  14  20
ENDBRANCH   1  17
BRANCH   8  22
ATOM     22  O   UNL     1      11.883  17.392  13.995  0.00  0.00    +0.000 OA
ATOM     23  H   UNL     1      12.015  16.505  13.553  0.00  0.00    +0.000 HD
ENDBRANCH   8  22
BRANCH   6  24
ATOM     24  O   UNL     1      14.080  16.416  13.330  0.00  0.00    +0.000 OA
ATOM     25  H   UNL     1      13.506  17.106  12.891  0.00  0.00    +0.000 HD
ENDBRANCH   6  24
TORSDOF 5
ENDMDL
MODEL 2
REMARK VINA RESULT:     0.000      2.096      2.409
REMARK INTER + INTRA:          -0.431
REMARK INTER:                   0.000
REMARK INTRA:                  -0.431
REMARK UNBOUND:                -0.431
REMARK  Name = 
REMARK  5 active torsions:
REMARK  status: ('A' for Active; 'I' for Inactive)
REMARK    1  A    between atoms: C_3  and  O_21
REMARK    2  A    between atoms: C_4  and  O_20
REMARK    3  A    between atoms: C_6  and  C_7
REMARK    4  A    between atoms: C_12  and  O_19
REMARK    5  A    between atoms: C_14  and  O_18
REMARK                            x       y       z     vdW  Elec       q    Type
REMARK                         _______ _______ _______ _____ _____    ______ ____
ROOT
ATOM      1  C   UNL     1      18.645  13.900  14.998  0.00  0.00    +0.000 A 
ATOM      2  C   UNL     1      17.881  14.820  15.801  0.00  0.00    +0.000 A 
ATOM      3  C   UNL     1      16.486  15.036  15.518  0.00  0.00    +0.000 A 
ATOM      4  O   UNL     1      15.812  15.849  16.226  0.00  0.00    +0.000 OA
ATOM      5  C   UNL     1      15.854  14.332  14.432  0.00  0.00    +0.000 A 
ATOM      6  C   UNL     1      14.459  14.549  14.149  0.00  0.00    +0.000 A 
ATOM      7  C   UNL     1      13.696  15.469  14.952  0.00  0.00    +0.000 A 
ATOM      8  C   UNL     1      12.299  15.686  14.668  0.00  0.00    +0.000 A 
ATOM      9  C   UNL     1      11.536  16.606  15.471  0.00  0.00    +0.000 A 
ATOM     10  C   UNL     1      16.617  13.412  13.629  0.00  0.00    +0.000 A 
ATOM     11  O   UNL     1      19.949  13.697  15.262  0.00  0.00    +0.000 OA
ENDROOT
BRANCH   1  17
ATOM     12  C   UNL     1      17.537  11.797  14.034  0.00  0.00    +0.000 A 
ATOM     13  C   UNL     1      16.905  11.093  12.948  0.00  0.00    +0.000 A 
ATOM     14  C   UNL     1      16.465   9.735  13.131  0.00  0.00    +0.000 A 
ATOM     15  C   UNL     1      15.833   9.030  12.045  0.00  0.00    +0.000 A 
ATOM     16  C   UNL     1      15.392   7.671  12.228  0.00  0.00    +0.000 A 
ATOM     17  C   UNL     1      17.977  13.156  13.852  0.00  0.00    +0.000 A 
BRANCH  15  18
ATOM     18  O   UNL     1      15.644   9.676  10.794  0.00  0.00    +0.000 OA
ATOM     19  H   UNL     1      15.913  10.633  10.680  0.00  0.00    +0.000 HD
ENDBRANCH  15  18
BRANCH  14  20
ATOM     20  O   UNL     1      16.653   9.089  14.382  0.00  0.00    +0.000 OA
ATOM     21  H   UNL     1      15.979   8.427  14.709  0.00  0.00    +0.000 HD
ENDBRANCH  14  20
ENDBRANCH   1  17
BRANCH   8  22
ATOM     22  O   UNL     1      11.676  14.992  13.597  0.00  0.00    +0.000 OA
ATOM     23  H   UNL     1      11.805  14.005  13.499  0.00  0.00    +0.000 HD
ENDBRANCH   8  22
BRANCH   6  24
ATOM     24  O   UNL     1      13.836  13.855  13.078  0.00  0.00    +0.000 OA
ATOM     25  H   UNL     1      14.130  12.929  12.843  0.00  0.00    +0.000 HD
ENDBRANCH   6  24
TORSDOF 5
ENDMDL
MODEL 3
REMARK VINA RESULT:     0.000      3.114      4.259
REMARK INTER + INTRA:          -0.431
REMARK INTER:                   0.000
REMARK INTRA:                  -0.431
REMARK UNBOUND:                -0.431
REMARK  Name = 
REMARK  5 active torsions:
REMARK  status: ('A' for Active; 'I' for Inactive)
REMARK    1  A    between atoms: C_3  and  O_21
REMARK    2  A    between atoms: C_4  and  O_20
REMARK    3  A    between atoms: C_6  and  C_7
REMARK    4  A    between atoms: C_12  and  O_19
REMARK    5  A    between atoms: C_14  and  O_18
REMARK                            x       y       z     vdW  Elec       q    Type
REMARK                         _______ _______ _______ _____ _____    ______ ____
ROOT
ATOM      1  C   UNL     1      19.902  12.244  14.009  0.00  0.00    +0.000 A 
ATOM      2  C   UNL     1      19.139  13.165  14.812  0.00  0.00    +0.000 A 
ATOM      3  C   UNL     1      17.744  13.381  14.529  0.00  0.00    +0.000 A 
ATOM      4  O   UNL     1      17.070  14.193  15.237  0.00  0.00    +0.000 OA
ATOM      5  C   UNL     1      17.112  12.677  13.443  0.00  0.00    +0.000 A 
ATOM      6  C   UNL     1      15.716  12.894  13.160  0.00  0.00    +0.000 A 
ATOM      7  C   UNL     1      14.953  13.814  13.963  0.00  0.00    +0.000 A 
ATOM      8  C   UNL     1      13.557  14.031  13.680  0.00  0.00    +0.000 A 
ATOM      9  C   UNL     1      12.794  14.951  14.483  0.00  0.00    +0.000 A 
ATOM     10  C   UNL     1      17.875  11.757  12.640  0.00  0.00    +0.000 A 
ATOM     11  O   UNL     1      21.206  12.042  14.274  0.00  0.00    +0.000 OA
ENDROOT
BRANCH   1  17
ATOM     12  C   UNL     1      18.795  10.142  13.045  0.00  0.00    +0.000 A 
ATOM     13  C   UNL     1      18.163   9.438  11.960  0.00  0.00    +0.000 A 
ATOM     14  C   UNL     1      17.722   8.079  12.142  0.00  0.00    +0.000 A 
ATOM     15  C   UNL     1      17.090   7.375  11.057  0.00  0.00    +0.000 A 
ATOM     16  C   UNL     1      16.649   6.016  11.239  0.00  0.00    +0.000 A 
ATOM     17  C   UNL     1      19.235  11.501  12.863  0.00  0.00    +0.000 A 
BRANCH  15  18
ATOM     18  O   UNL     1      16.902   8.021   9.806  0.00  0.00    +0.000 OA
ATOM     19  H   UNL     1      17.682   8.431   9.332  0.00  0.00    +0.000 HD
ENDBRANCH  15  18
BRANCH  14  20
ATOM     20  O   UNL     1      17.911   7.434  13.393  0.00  0.00    +0.000 OA
ATOM     21  H   UNL     1      18.451   7.878  14.109  0.00  0.00    +0.000 HD
ENDBRANCH  14  20
ENDBRANCH   1  17
BRANCH   8  22
ATOM     22  O   UNL     1      12.934  13.336  12.609  0.00  0.00    +0.000 OA
ATOM     23  H   UNL     1      13.392  13.270  11.722  0.00  0.00    +0.000 HD
ENDBRANCH   8  22
BRANCH   6  24
ATOM     24  O   UNL     1      15.093  12.200  12.090  0.00  0.00    +0.000 OA
ATOM     25  H   UNL     1      14.897  12.676  11.232  0.00  0.00    +0.000 HD
ENDBRANCH   6  24
TORSDOF 5
ENDMDL
MODEL 4
REMARK VINA RESULT:     0.000     10.038     12.383
REMARK INTER + INTRA:          -0.431
REMARK INTER:                   0.000
REMARK INTRA:                  -0.431
REMARK UNBOUND:                -0.431
REMARK  Name = 
REMARK  5 active torsions:
REMARK  status: ('A' for Active; 'I' for Inactive)
REMARK    1  A    between atoms: C_3  and  O_21
REMARK    2  A    between atoms: C_4  and  O_20
REMARK    3  A    between atoms: C_6  and  C_7
REMARK    4  A    between atoms: C_12  and  O_19
REMARK    5  A    between atoms: C_14  and  O_18
REMARK                            x       y       z     vdW  Elec       q    Type
REMARK                         _______ _______ _______ _____ _____    ______ ____
ROOT
ATOM      1  C   UNL     1       4.080   8.893  11.001  0.00  0.00    +0.000 A 
ATOM      2  C   UNL     1       4.409  10.214  11.474  0.00  0.00    +0.000 A 
ATOM      3  C   UNL     1       5.456  10.390  12.446  0.00  0.00    +0.000 A 
ATOM      4  O   UNL     1       5.747  11.555  12.863  0.00  0.00    +0.000 OA
ATOM      5  C   UNL     1       6.175   9.246  12.946  0.00  0.00    +0.000 A 
ATOM      6  C   UNL     1       7.222   9.423  13.918  0.00  0.00    +0.000 A 
ATOM      7  C   UNL     1       7.551  10.743  14.391  0.00  0.00    +0.000 A 
ATOM      8  C   UNL     1       8.599  10.919  15.364  0.00  0.00    +0.000 A 
ATOM      9  C   UNL     1       8.928  12.240  15.836  0.00  0.00    +0.000 A 
ATOM     10  C   UNL     1       5.846   7.926  12.473  0.00  0.00    +0.000 A 
ATOM     11  O   UNL     1       3.101   8.728  10.092  0.00  0.00    +0.000 OA
ENDROOT
BRANCH   1  17
ATOM     12  C   UNL     1       5.910   7.114  10.754  0.00  0.00    +0.000 A 
ATOM     13  C   UNL     1       6.629   5.970  11.254  0.00  0.00    +0.000 A 
ATOM     14  C   UNL     1       7.700   5.399  10.480  0.00  0.00    +0.000 A 
ATOM     15  C   UNL     1       8.419   4.255  10.980  0.00  0.00    +0.000 A 
ATOM     16  C   UNL     1       9.490   3.684  10.206  0.00  0.00    +0.000 A 
ATOM     17  C   UNL     1       4.838   7.686  11.528  0.00  0.00    +0.000 A 
BRANCH  15  18
ATOM     18  O   UNL     1       8.070   3.691  12.235  0.00  0.00    +0.000 OA
ATOM     19  H   UNL     1       8.119   2.701  12.369  0.00  0.00    +0.000 HD
ENDBRANCH  15  18
BRANCH  14  20
ATOM     20  O   UNL     1       8.048   5.964   9.224  0.00  0.00    +0.000 OA
ATOM     21  H   UNL     1       7.462   6.660   8.809  0.00  0.00    +0.000 HD
ENDBRANCH  14  20
ENDBRANCH   1  17
BRANCH   8  22
ATOM     22  O   UNL     1       9.307   9.791  15.857  0.00  0.00    +0.000 OA
ATOM     23  H   UNL     1       8.846   8.908  15.939  0.00  0.00    +0.000 HD
ENDBRANCH   8  22
BRANCH   6  24
ATOM     24  O   UNL     1       7.930   8.295  14.411  0.00  0.00    +0.000 OA
ATOM     25  H   UNL     1       8.531   7.776  13.803  0.00  0.00    +0.000 HD
ENDBRANCH   6  24
TORSDOF 5
ENDMDL
MODEL 5
REMARK VINA RESULT:     0.000      8.357     11.847
REMARK INTER + INTRA:          -0.431
REMARK INTER:                   0.000
REMARK INTRA:                  -0.431
REMARK UNBOUND:                -0.431
REMARK  Name = 
REMARK  5 active torsions:
REMARK  status: ('A' for Active; 'I' for Inactive)
REMARK    1  A    between atoms: C_3  and  O_21
REMARK    2  A    between atoms: C_4  and  O_20
REMARK    3  A    between atoms: C_6  and  C_7
REMARK    4  A    between atoms: C_12  and  O_19
REMARK    5  A    between atoms: C_14  and  O_18
REMARK                            x       y       z     vdW  Elec       q    Type
REMARK                         _______ _______ _______ _____ _____    ______ ____
ROOT
ATOM      1  C   UNL     1      16.711   7.921  11.037  0.00  0.00    +0.000 A 
ATOM      2  C   UNL     1      16.128   8.688   9.967  0.00  0.00    +0.000 A 
ATOM      3  C   UNL     1      16.199   8.205   8.613  0.00  0.00    +0.000 A 
ATOM      4  O   UNL     1      15.684   8.882   7.668  0.00  0.00    +0.000 OA
ATOM      5  C   UNL     1      16.855   6.955   8.328  0.00  0.00    +0.000 A 
ATOM      6  C   UNL     1      16.926   6.472   6.973  0.00  0.00    +0.000 A 
ATOM      7  C   UNL     1      16.343   7.239   5.903  0.00  0.00    +0.000 A 
ATOM      8  C   UNL     1      16.414   6.756   4.548  0.00  0.00    +0.000 A 
ATOM      9  C   UNL     1      15.831   7.524   3.478  0.00  0.00    +0.000 A 
ATOM     10  C   UNL     1      17.438   6.187   9.398  0.00  0.00    +0.000 A 
ATOM     11  O   UNL     1      16.644   8.372  12.303  0.00  0.00    +0.000 OA
ENDROOT
BRANCH   1  17
ATOM     12  C   UNL     1      16.705   5.358  10.945  0.00  0.00    +0.000 A 
ATOM     13  C   UNL     1      17.360   4.107  10.660  0.00  0.00    +0.000 A 
ATOM     14  C   UNL     1      16.662   2.866  10.867  0.00  0.00    +0.000 A 
ATOM     15  C   UNL     1      17.317   1.615  10.582  0.00  0.00    +0.000 A 
ATOM     16  C   UNL     1      16.619   0.372  10.789  0.00  0.00    +0.000 A 
ATOM     17  C   UNL     1      17.403   6.601  10.737  0.00  0.00    +0.000 A 
BRANCH  15  18
ATOM     18  O   UNL     1      18.652   1.607  10.097  0.00  0.00    +0.000 OA
ATOM     19  H   UNL     1      19.256   2.383  10.282  0.00  0.00    +0.000 HD
ENDBRANCH  15  18
BRANCH  14  20
ATOM     20  O   UNL     1      15.327   2.874  11.352  0.00  0.00    +0.000 OA
ATOM     21  H   UNL     1      14.950   3.703  11.764  0.00  0.00    +0.000 HD
ENDBRANCH  14  20
ENDBRANCH   1  17
BRANCH   8  22
ATOM     22  O   UNL     1      17.061   5.523   4.267  0.00  0.00    +0.000 OA
ATOM     23  H   UNL     1      18.059   5.461   4.306  0.00  0.00    +0.000 HD
ENDBRANCH   8  22
BRANCH   6  24
ATOM     24  O   UNL     1      17.573   5.239   6.692  0.00  0.00    +0.000 OA
ATOM     25  H   UNL     1      17.476   4.469   7.322  0.00  0.00    +0.000 HD
ENDBRANCH   6  24
TORSDOF 5
ENDMDL
