MODEL 1
REMARK VINA RESULT:     0.000      0.000      0.000
REMARK INTER + INTRA:          -0.196
REMARK INTER:                   0.000
REMARK INTRA:                  -0.196
REMARK UNBOUND:                -0.196
REMARK  Name = 
REMARK  1 active torsions:
REMARK  status: ('A' for Active; 'I' for Inactive)
REMARK    1  A    between atoms: C_3  and  C_7
REMARK                            x       y       z     vdW  Elec       q    Type
REMARK                         _______ _______ _______ _____ _____    ______ ____
ROOT
ATOM      1  C   UNL     1       8.897  -3.563   8.427  0.00  0.00    +0.000 A 
ATOM      2  C   UNL     1      10.336  -3.524   8.462  0.00  0.00    +0.000 A 
ATOM      3  C   UNL     1      11.076  -3.169   7.279  0.00  0.00    +0.000 A 
ATOM      4  C   UNL     1      12.515  -3.129   7.314  0.00  0.00    +0.000 A 
ATOM      5  N   UNL     1      13.230  -2.785   6.169  0.00  0.00    +0.000 NA
ATOM      6  C   UNL     1       8.158  -3.918   9.611  0.00  0.00    +0.000 A 
ENDROOT
BRANCH   3   7
ATOM      7  C   UNL     1      10.338  -2.835   5.993  0.00  0.00    +0.000 C 
ATOM      8  O   UNL     1       9.891  -3.769   5.255  0.00  0.00    +0.000 OA
ATOM      9  N   UNL     1      10.139  -1.432   5.602  0.00  0.00    +0.000 N 
ATOM     10  H   UNL     1      10.497  -0.682   6.194  0.00  0.00    +0.000 HD
ATOM     11  H   UNL     1       9.644  -1.209   4.739  0.00  0.00    +0.000 HD
ENDBRANCH   3   7
TORSDOF 1
ENDMDL
MODEL 2
REMARK VINA RESULT:     0.000     13.207     13.581
REMARK INTER + INTRA:          -0.196
REMARK INTER:                   0.000
REMARK INTRA:                  -0.196
REMARK UNBOUND:                -0.196
REMARK  Name = 
REMARK  1 active torsions:
REMARK  status: ('A' for Active; 'I' for Inactive)
REMARK    1  A    between atoms: C_3  and  C_7
REMARK                            x       y       z     vdW  Elec       q    Type
REMARK                         _______ _______ _______ _____ _____    ______ ____
ROOT
ATOM      1  C   UNL     1      15.453   2.398  16.679  0.00  0.00    +0.000 A 
ATOM      2  C   UNL     1      15.441   3.415  17.698  0.00  0.00    +0.000 A 
ATOM      3  C   UNL     1      15.595   4.800  17.336  0.00  0.00    +0.000 A 
ATOM      4  C   UNL     1      15.581   5.817  18.355  0.00  0.00    +0.000 A 
ATOM      5  N   UNL     1      15.731   7.157  18.003  0.00  0.00    +0.000 NA
ATOM      6  C   UNL     1      15.298   1.013  17.042  0.00  0.00    +0.000 A 
ENDROOT
BRANCH   3   7
ATOM      7  C   UNL     1      15.773   5.188  15.877  0.00  0.00    +0.000 C 
ATOM      8  O   UNL     1      16.909   5.068  15.320  0.00  0.00    +0.000 OA
ATOM      9  N   UNL     1      14.630   5.702  15.109  0.00  0.00    +0.000 N 
ATOM     10  H   UNL     1      13.717   5.799  15.555  0.00  0.00    +0.000 HD
ATOM     11  H   UNL     1      14.749   5.963  14.130  0.00  0.00    +0.000 HD
ENDBRANCH   3   7
TORSDOF 1
ENDMDL
MODEL 3
REMARK VINA RESULT:     0.000     19.076     19.692
REMARK INTER + INTRA:          -0.196
REMARK INTER:                   0.000
REMARK INTRA:                  -0.196
REMARK UNBOUND:                -0.196
REMARK  Name = 
REMARK  1 active torsions:
REMARK  status: ('A' for Active; 'I' for Inactive)
REMARK    1  A    between atoms: C_3  and  C_7
REMARK                            x       y       z     vdW  Elec       q    Type
REMARK                         _______ _______ _______ _____ _____    ______ ____
ROOT
ATOM      1  C   UNL     1      17.239  14.412   4.803  0.00  0.00    +0.000 A 
ATOM      2  C   UNL     1      15.998  14.527   5.524  0.00  0.00    +0.000 A 
ATOM      3  C   UNL     1      15.972  15.167   6.814  0.00  0.00    +0.000 A 
ATOM      4  C   UNL     1      14.731  15.283   7.535  0.00  0.00    +0.000 A 
ATOM      5  N   UNL     1      14.706  15.903   8.783  0.00  0.00    +0.000 NA
ATOM      6  C   UNL     1      17.265  13.772   3.513  0.00  0.00    +0.000 A 
ENDROOT
BRANCH   3   7
ATOM      7  C   UNL     1      17.255  15.720   7.414  0.00  0.00    +0.000 C 
ATOM      8  O   UNL     1      18.080  14.938   7.983  0.00  0.00    +0.000 OA
ATOM      9  N   UNL     1      17.541  17.159   7.337  0.00  0.00    +0.000 N 
ATOM     10  H   UNL     1      16.879  17.788   6.881  0.00  0.00    +0.000 HD
ATOM     11  H   UNL     1      18.402  17.530   7.740  0.00  0.00    +0.000 HD
ENDBRANCH   3   7
TORSDOF 1
ENDMDL
MODEL 4
REMARK VINA RESULT:     0.000     18.001     18.692
REMARK INTER + INTRA:          -0.196
REMARK INTER:                   0.000
REMARK INTRA:                  -0.196
REMARK UNBOUND:                -0.196
REMARK  Name = 
REMARK  1 active torsions:
REMARK  status: ('A' for Active; 'I' for Inactive)
REMARK    1  A    between atoms: C_3  and  C_7
REMARK                            x       y       z     vdW  Elec       q    Type
REMARK                         _______ _______ _______ _____ _____    ______ ____
ROOT
ATOM      1  C   UNL     1      17.114  13.329   6.656  0.00  0.00    +0.000 A 
ATOM      2  C   UNL     1      15.874  13.445   7.377  0.00  0.00    +0.000 A 
ATOM      3  C   UNL     1      15.848  14.085   8.667  0.00  0.00    +0.000 A 
ATOM      4  C   UNL     1      14.607  14.201   9.388  0.00  0.00    +0.000 A 
ATOM      5  N   UNL     1      14.582  14.820  10.636  0.00  0.00    +0.000 NA
ATOM      6  C   UNL     1      17.141  12.689   5.366  0.00  0.00    +0.000 A 
ENDROOT
BRANCH   3   7
ATOM      7  C   UNL     1      17.130  14.638   9.267  0.00  0.00    +0.000 C 
ATOM      8  O   UNL     1      17.955  13.855   9.836  0.00  0.00    +0.000 OA
ATOM      9  N   UNL     1      17.417  16.077   9.190  0.00  0.00    +0.000 N 
ATOM     10  H   UNL     1      16.755  16.706   8.734  0.00  0.00    +0.000 HD
ATOM     11  H   UNL     1      18.277  16.448   9.593  0.00  0.00    +0.000 HD
ENDBRANCH   3   7
TORSDOF 1
ENDMDL
MODEL 5
REMARK VINA RESULT:     0.000     26.199     26.724
REMARK INTER + INTRA:          -0.196
REMARK INTER:                   0.000
REMARK INTRA:                  -0.196
REMARK UNBOUND:                -0.196
REMARK  Name = 
REMARK  1 active torsions:
REMARK  status: ('A' for Active; 'I' for Inactive)
REMARK    1  A    between atoms: C_3  and  C_7
REMARK                            x       y       z     vdW  Elec       q    Type
REMARK                         _______ _______ _______ _____ _____    ______ ____
ROOT
ATOM      1  C   UNL     1       7.119  19.003  21.524  0.00  0.00    +0.000 A 
ATOM      2  C   UNL     1       7.464  17.638  21.828  0.00  0.00    +0.000 A 
ATOM      3  C   UNL     1       8.172  17.328  23.043  0.00  0.00    +0.000 A 
ATOM      4  C   UNL     1       8.516  15.963  23.347  0.00  0.00    +0.000 A 
ATOM      5  N   UNL     1       9.201  15.663  24.523  0.00  0.00    +0.000 NA
ATOM      6  C   UNL     1       6.412  19.314  20.309  0.00  0.00    +0.000 A 
ENDROOT
BRANCH   3   7
ATOM      7  C   UNL     1       8.556  18.440  24.004  0.00  0.00    +0.000 C 
ATOM      8  O   UNL     1       9.576  19.161  23.768  0.00  0.00    +0.000 OA
ATOM      9  N   UNL     1       7.748  18.684  25.208  0.00  0.00    +0.000 N 
ATOM     10  H   UNL     1       6.929  18.105  25.398  0.00  0.00    +0.000 HD
ATOM     11  H   UNL     1       8.005  19.430  25.853  0.00  0.00    +0.000 HD
ENDBRANCH   3   7
TORSDOF 1
ENDMDL
