MODEL 1
REMARK VINA RESULT:     0.000      0.000      0.000
REMARK INTER + INTRA:          -0.430
REMARK INTER:                   0.000
REMARK INTRA:                  -0.430
REMARK UNBOUND:                -0.430
REMARK  Name = 
REMARK  6 active torsions:
REMARK  status: ('A' for Active; 'I' for Inactive)
REMARK    1  A    between atoms: C_3  and  O_22
REMARK    2  A    between atoms: C_4  and  O_21
REMARK    3  A    between atoms: C_6  and  C_7
REMARK    4  A    between atoms: C_8  and  O_20
REMARK    5  A    between atoms: C_12  and  O_19
REMARK    6  A    between atoms: C_14  and  O_18
REMARK                            x       y       z     vdW  Elec       q    Type
REMARK                         _______ _______ _______ _____ _____    ______ ____
ROOT
ATOM      1  C   UNL     1      11.224   2.636  16.622  0.00  0.00    +0.000 A 
ATOM      2  C   UNL     1      10.178   3.495  16.132  0.00  0.00    +0.000 A 
ATOM      3  C   UNL     1       9.839   4.699  16.848  0.00  0.00    +0.000 A 
ATOM      4  O   UNL     1       8.915   5.457  16.416  0.00  0.00    +0.000 OA
ATOM      5  C   UNL     1      10.547   5.042  18.055  0.00  0.00    +0.000 A 
ATOM      6  C   UNL     1      10.208   6.244  18.771  0.00  0.00    +0.000 A 
ATOM      7  C   UNL     1       9.162   7.104  18.281  0.00  0.00    +0.000 A 
ATOM      8  C   UNL     1       8.824   8.306  18.997  0.00  0.00    +0.000 A 
ATOM      9  C   UNL     1       7.777   9.165  18.507  0.00  0.00    +0.000 A 
ATOM     10  C   UNL     1      11.594   4.183  18.544  0.00  0.00    +0.000 A 
ATOM     11  O   UNL     1      11.540   1.512  15.953  0.00  0.00    +0.000 OA
ENDROOT
BRANCH   1  17
ATOM     12  C   UNL     1      11.611   2.377  19.143  0.00  0.00    +0.000 A 
ATOM     13  C   UNL     1      12.319   2.720  20.349  0.00  0.00    +0.000 A 
ATOM     14  C   UNL     1      11.959   2.099  21.598  0.00  0.00    +0.000 A 
ATOM     15  C   UNL     1      12.666   2.443  22.804  0.00  0.00    +0.000 A 
ATOM     16  C   UNL     1      12.306   1.822  24.052  0.00  0.00    +0.000 A 
ATOM     17  C   UNL     1      11.972   2.998  17.895  0.00  0.00    +0.000 A 
BRANCH  15  18
ATOM     18  O   UNL     1      13.721   3.393  22.763  0.00  0.00    +0.000 OA
ATOM     19  H   UNL     1      13.670   4.220  23.321  0.00  0.00    +0.000 HD
ENDBRANCH  15  18
BRANCH  14  20
ATOM     20  O   UNL     1      10.904   1.149  21.640  0.00  0.00    +0.000 OA
ATOM     21  H   UNL     1       9.967   1.432  21.437  0.00  0.00    +0.000 HD
ENDBRANCH  14  20
ENDBRANCH   1  17
BRANCH   8  22
ATOM     22  O   UNL     1       9.522   8.644  20.187  0.00  0.00    +0.000 OA
ATOM     23  H   UNL     1       9.883   9.569  20.309  0.00  0.00    +0.000 HD
ENDBRANCH   8  22
BRANCH   6  24
ATOM     24  O   UNL     1      10.907   6.583  19.960  0.00  0.00    +0.000 OA
ATOM     25  H   UNL     1      10.424   7.026  20.715  0.00  0.00    +0.000 HD
ENDBRANCH   6  24
BRANCH   2  26
ATOM     26  O   UNL     1       9.479   3.157  14.942  0.00  0.00    +0.000 OA
ATOM     27  H   UNL     1       9.973   3.082  14.077  0.00  0.00    +0.000 HD
ENDBRANCH   2  26
TORSDOF 6
ENDMDL
MODEL 2
REMARK VINA RESULT:     0.000      2.535      3.034
REMARK INTER + INTRA:          -0.430
REMARK INTER:                   0.000
REMARK INTRA:                  -0.430
REMARK UNBOUND:                -0.430
REMARK  Name = 
REMARK  6 active torsions:
REMARK  status: ('A' for Active; 'I' for Inactive)
REMARK    1  A    between atoms: C_3  and  O_22
REMARK    2  A    between atoms: C_4  and  O_21
REMARK    3  A    between atoms: C_6  and  C_7
REMARK    4  A    between atoms: C_8  and  O_20
REMARK    5  A    between atoms: C_12  and  O_19
REMARK    6  A    between atoms: C_14  and  O_18
REMARK                            x       y       z     vdW  Elec       q    Type
REMARK                         _______ _______ _______ _____ _____    ______ ____
ROOT
ATOM      1  C   UNL     1       9.828   2.034  14.287  0.00  0.00    +0.000 A 
ATOM      2  C   UNL     1       9.382   3.391  14.105  0.00  0.00    +0.000 A 
ATOM      3  C   UNL     1       9.655   4.381  15.116  0.00  0.00    +0.000 A 
ATOM      4  O   UNL     1       9.260   5.579  14.955  0.00  0.00    +0.000 OA
ATOM      5  C   UNL     1      10.374   4.014  16.308  0.00  0.00    +0.000 A 
ATOM      6  C   UNL     1      10.647   5.003  17.318  0.00  0.00    +0.000 A 
ATOM      7  C   UNL     1      10.201   6.360  17.136  0.00  0.00    +0.000 A 
ATOM      8  C   UNL     1      10.474   7.350  18.146  0.00  0.00    +0.000 A 
ATOM      9  C   UNL     1      10.027   8.706  17.964  0.00  0.00    +0.000 A 
ATOM     10  C   UNL     1      10.822   2.657  16.490  0.00  0.00    +0.000 A 
ATOM     11  O   UNL     1       9.573   1.110  13.344  0.00  0.00    +0.000 OA
ENDROOT
BRANCH   1  17
ATOM     12  C   UNL     1       9.899   0.999  16.632  0.00  0.00    +0.000 A 
ATOM     13  C   UNL     1      10.619   0.632  17.824  0.00  0.00    +0.000 A 
ATOM     14  C   UNL     1       9.930  -0.015  18.911  0.00  0.00    +0.000 A 
ATOM     15  C   UNL     1      10.650  -0.382  20.103  0.00  0.00    +0.000 A 
ATOM     16  C   UNL     1       9.961  -1.029  21.190  0.00  0.00    +0.000 A 
ATOM     17  C   UNL     1      10.588   1.646  15.545  0.00  0.00    +0.000 A 
BRANCH  15  18
ATOM     18  O   UNL     1      12.039  -0.107  20.207  0.00  0.00    +0.000 OA
ATOM     19  H   UNL     1      12.630  -0.207  19.407  0.00  0.00    +0.000 HD
ENDBRANCH  15  18
BRANCH  14  20
ATOM     20  O   UNL     1       8.541  -0.291  18.807  0.00  0.00    +0.000 OA
ATOM     21  H   UNL     1       8.012   0.087  18.048  0.00  0.00    +0.000 HD
ENDBRANCH  14  20
ENDBRANCH   1  17
BRANCH   8  22
ATOM     22  O   UNL     1      11.184   6.987  19.322  0.00  0.00    +0.000 OA
ATOM     23  H   UNL     1      12.180   7.070  19.350  0.00  0.00    +0.000 HD
ENDBRANCH   8  22
BRANCH   6  24
ATOM     24  O   UNL     1      11.358   4.641  18.493  0.00  0.00    +0.000 OA
ATOM     25  H   UNL     1      10.919   4.725  19.388  0.00  0.00    +0.000 HD
ENDBRANCH   6  24
BRANCH   2  26
ATOM     26  O   UNL     1       8.672   3.754  12.930  0.00  0.00    +0.000 OA
ATOM     27  H   UNL     1       8.524   4.718  12.713  0.00  0.00    +0.000 HD
ENDBRANCH   2  26
TORSDOF 6
ENDMDL
MODEL 3
REMARK VINA RESULT:     0.000      7.782      9.218
REMARK INTER + INTRA:          -0.430
REMARK INTER:                   0.000
REMARK INTRA:                  -0.430
REMARK UNBOUND:                -0.430
REMARK  Name = 
REMARK  6 active torsions:
REMARK  status: ('A' for Active; 'I' for Inactive)
REMARK    1  A    between atoms: C_3  and  O_22
REMARK    2  A    between atoms: C_4  and  O_21
REMARK    3  A    between atoms: C_6  and  C_7
REMARK    4  A    between atoms: C_8  and  O_20
REMARK    5  A    between atoms: C_12  and  O_19
REMARK    6  A    between atoms: C_14  and  O_18
REMARK                            x       y       z     vdW  Elec       q    Type
REMARK                         _______ _______ _______ _____ _____    ______ ____
ROOT
ATOM      1  C   UNL     1      15.454   7.961  22.696  0.00  0.00    +0.000 A 
ATOM      2  C   UNL     1      14.484   9.013  22.531  0.00  0.00    +0.000 A 
ATOM      3  C   UNL     1      14.597   9.931  21.426  0.00  0.00    +0.000 A 
ATOM      4  O   UNL     1      13.742  10.859  21.281  0.00  0.00    +0.000 OA
ATOM      5  C   UNL     1      15.680   9.796  20.486  0.00  0.00    +0.000 A 
ATOM      6  C   UNL     1      15.794  10.713  19.382  0.00  0.00    +0.000 A 
ATOM      7  C   UNL     1      14.824  11.764  19.217  0.00  0.00    +0.000 A 
ATOM      8  C   UNL     1      14.937  12.681  18.112  0.00  0.00    +0.000 A 
ATOM      9  C   UNL     1      13.968  13.734  17.948  0.00  0.00    +0.000 A 
ATOM     10  C   UNL     1      16.649   8.743  20.651  0.00  0.00    +0.000 A 
ATOM     11  O   UNL     1      15.348   7.105  23.728  0.00  0.00    +0.000 OA
ENDROOT
BRANCH   1  17
ATOM     12  C   UNL     1      17.900   8.340  22.026  0.00  0.00    +0.000 A 
ATOM     13  C   UNL     1      18.982   8.205  21.086  0.00  0.00    +0.000 A 
ATOM     14  C   UNL     1      20.286   8.726  21.409  0.00  0.00    +0.000 A 
ATOM     15  C   UNL     1      21.369   8.591  20.469  0.00  0.00    +0.000 A 
ATOM     16  C   UNL     1      22.671   9.112  20.791  0.00  0.00    +0.000 A 
ATOM     17  C   UNL     1      16.597   7.818  21.704  0.00  0.00    +0.000 A 
BRANCH  15  18
ATOM     18  O   UNL     1      21.151   7.943  19.224  0.00  0.00    +0.000 OA
ATOM     19  H   UNL     1      21.876   7.928  18.535  0.00  0.00    +0.000 HD
ENDBRANCH  15  18
BRANCH  14  20
ATOM     20  O   UNL     1      20.503   9.374  22.654  0.00  0.00    +0.000 OA
ATOM     21  H   UNL     1      20.465  10.371  22.712  0.00  0.00    +0.000 HD
ENDBRANCH  14  20
ENDBRANCH   1  17
BRANCH   8  22
ATOM     22  O   UNL     1      16.006  12.548  17.185  0.00  0.00    +0.000 OA
ATOM     23  H   UNL     1      15.906  12.899  16.254  0.00  0.00    +0.000 HD
ENDBRANCH   8  22
BRANCH   6  24
ATOM     24  O   UNL     1      16.861  10.579  18.454  0.00  0.00    +0.000 OA
ATOM     25  H   UNL     1      17.470   9.787  18.504  0.00  0.00    +0.000 HD
ENDBRANCH   6  24
BRANCH   2  26
ATOM     26  O   UNL     1      13.417   9.147  23.458  0.00  0.00    +0.000 OA
ATOM     27  H   UNL     1      13.580   9.565  24.351  0.00  0.00    +0.000 HD
ENDBRANCH   2  26
TORSDOF 6
ENDMDL
MODEL 4
REMARK VINA RESULT:     0.000      8.941     10.772
REMARK INTER + INTRA:          -0.430
REMARK INTER:                   0.000
REMARK INTRA:                  -0.430
REMARK UNBOUND:                -0.430
REMARK  Name = 
REMARK  6 active torsions:
REMARK  status: ('A' for Active; 'I' for Inactive)
REMARK    1  A    between atoms: C_3  and  O_22
REMARK    2  A    between atoms: C_4  and  O_21
REMARK    3  A    between atoms: C_6  and  C_7
REMARK    4  A    between atoms: C_8  and  O_20
REMARK    5  A    between atoms: C_12  and  O_19
REMARK    6  A    between atoms: C_14  and  O_18
REMARK                            x       y       z     vdW  Elec       q    Type
REMARK                         _______ _______ _______ _____ _____    ______ ____
ROOT
ATOM      1  C   UNL     1      12.928  11.907  21.810  0.00  0.00    +0.000 A 
ATOM      2  C   UNL     1      11.959  12.959  21.645  0.00  0.00    +0.000 A 
ATOM      3  C   UNL     1      12.072  13.876  20.540  0.00  0.00    +0.000 A 
ATOM      4  O   UNL     1      11.216  14.805  20.395  0.00  0.00    +0.000 OA
ATOM      5  C   UNL     1      13.155  13.741  19.600  0.00  0.00    +0.000 A 
ATOM      6  C   UNL     1      13.268  14.658  18.496  0.00  0.00    +0.000 A 
ATOM      7  C   UNL     1      12.298  15.710  18.331  0.00  0.00    +0.000 A 
ATOM      8  C   UNL     1      12.412  16.627  17.226  0.00  0.00    +0.000 A 
ATOM      9  C   UNL     1      11.443  17.679  17.062  0.00  0.00    +0.000 A 
ATOM     10  C   UNL     1      14.124  12.689  19.765  0.00  0.00    +0.000 A 
ATOM     11  O   UNL     1      12.823  11.050  22.842  0.00  0.00    +0.000 OA
ENDROOT
BRANCH   1  17
ATOM     12  C   UNL     1      15.374  12.285  21.141  0.00  0.00    +0.000 A 
ATOM     13  C   UNL     1      16.457  12.150  20.201  0.00  0.00    +0.000 A 
ATOM     14  C   UNL     1      17.760  12.671  20.523  0.00  0.00    +0.000 A 
ATOM     15  C   UNL     1      18.843  12.537  19.583  0.00  0.00    +0.000 A 
ATOM     16  C   UNL     1      20.146  13.058  19.906  0.00  0.00    +0.000 A 
ATOM     17  C   UNL     1      14.071  11.764  20.818  0.00  0.00    +0.000 A 
BRANCH  15  18
ATOM     18  O   UNL     1      18.626  11.889  18.338  0.00  0.00    +0.000 OA
ATOM     19  H   UNL     1      17.783  11.375  18.182  0.00  0.00    +0.000 HD
ENDBRANCH  15  18
BRANCH  14  20
ATOM     20  O   UNL     1      17.978  13.319  21.768  0.00  0.00    +0.000 OA
ATOM     21  H   UNL     1      17.249  13.345  22.452  0.00  0.00    +0.000 HD
ENDBRANCH  14  20
ENDBRANCH   1  17
BRANCH   8  22
ATOM     22  O   UNL     1      13.480  16.494  16.300  0.00  0.00    +0.000 OA
ATOM     23  H   UNL     1      13.381  16.844  15.369  0.00  0.00    +0.000 HD
ENDBRANCH   8  22
BRANCH   6  24
ATOM     24  O   UNL     1      14.336  14.524  17.569  0.00  0.00    +0.000 OA
ATOM     25  H   UNL     1      14.213  14.815  16.620  0.00  0.00    +0.000 HD
ENDBRANCH   6  24
BRANCH   2  26
ATOM     26  O   UNL     1      10.891  13.092  22.573  0.00  0.00    +0.000 OA
ATOM     27  H   UNL     1      10.868  12.523  23.394  0.00  0.00    +0.000 HD
ENDBRANCH   2  26
TORSDOF 6
ENDMDL
MODEL 5
REMARK VINA RESULT:     0.000      7.558      9.927
REMARK INTER + INTRA:          -0.430
REMARK INTER:                   0.000
REMARK INTRA:                  -0.430
REMARK UNBOUND:                -0.430
REMARK  Name = 
REMARK  6 active torsions:
REMARK  status: ('A' for Active; 'I' for Inactive)
REMARK    1  A    between atoms: C_3  and  O_22
REMARK    2  A    between atoms: C_4  and  O_21
REMARK    3  A    between atoms: C_6  and  C_7
REMARK    4  A    between atoms: C_8  and  O_20
REMARK    5  A    between atoms: C_12  and  O_19
REMARK    6  A    between atoms: C_14  and  O_18
REMARK                            x       y       z     vdW  Elec       q    Type
REMARK                         _______ _______ _______ _____ _____    ______ ____
ROOT
ATOM      1  C   UNL     1       9.198  10.503  22.986  0.00  0.00    +0.000 A 
ATOM      2  C   UNL     1       8.018   9.831  22.506  0.00  0.00    +0.000 A 
ATOM      3  C   UNL     1       7.534  10.088  21.173  0.00  0.00    +0.000 A 
ATOM      4  O   UNL     1       6.493   9.496  20.750  0.00  0.00    +0.000 OA
ATOM      5  C   UNL     1       8.231  11.017  20.321  0.00  0.00    +0.000 A 
ATOM      6  C   UNL     1       7.748  11.274  18.989  0.00  0.00    +0.000 A 
ATOM      7  C   UNL     1       6.568  10.602  18.509  0.00  0.00    +0.000 A 
ATOM      8  C   UNL     1       6.085  10.859  17.177  0.00  0.00    +0.000 A 
ATOM      9  C   UNL     1       4.905  10.188  16.697  0.00  0.00    +0.000 A 
ATOM     10  C   UNL     1       9.412  11.688  20.801  0.00  0.00    +0.000 A 
ATOM     11  O   UNL     1       9.649  10.263  24.230  0.00  0.00    +0.000 OA
ENDROOT
BRANCH   1  17
ATOM     12  C   UNL     1       9.718  12.898  22.236  0.00  0.00    +0.000 A 
ATOM     13  C   UNL     1      10.415  13.827  21.384  0.00  0.00    +0.000 A 
ATOM     14  C   UNL     1      10.200  15.243  21.533  0.00  0.00    +0.000 A 
ATOM     15  C   UNL     1      10.897  16.172  20.680  0.00  0.00    +0.000 A 
ATOM     16  C   UNL     1      10.681  17.588  20.830  0.00  0.00    +0.000 A 
ATOM     17  C   UNL     1       9.934  11.483  22.087  0.00  0.00    +0.000 A 
BRANCH  15  18
ATOM     18  O   UNL     1      11.797  15.691  19.693  0.00  0.00    +0.000 OA
ATOM     19  H   UNL     1      12.299  14.840  19.846  0.00  0.00    +0.000 HD
ENDBRANCH  15  18
BRANCH  14  20
ATOM     20  O   UNL     1       9.300  15.724  22.520  0.00  0.00    +0.000 OA
ATOM     21  H   UNL     1       8.314  15.610  22.396  0.00  0.00    +0.000 HD
ENDBRANCH  14  20
ENDBRANCH   1  17
BRANCH   8  22
ATOM     22  O   UNL     1       6.773  11.775  16.337  0.00  0.00    +0.000 OA
ATOM     23  H   UNL     1       7.436  11.439  15.668  0.00  0.00    +0.000 HD
ENDBRANCH   8  22
BRANCH   6  24
ATOM     24  O   UNL     1       8.436  12.189  18.149  0.00  0.00    +0.000 OA
ATOM     25  H   UNL     1       9.243  12.672  18.490  0.00  0.00    +0.000 HD
ENDBRANCH   6  24
BRANCH   2  26
ATOM     26  O   UNL     1       7.330   8.916  23.347  0.00  0.00    +0.000 OA
ATOM     27  H   UNL     1       6.804   9.252  24.127  0.00  0.00    +0.000 HD
ENDBRANCH   2  26
TORSDOF 6
ENDMDL
