MODEL 1
REMARK VINA RESULT:    -0.001      0.000      0.000
REMARK INTER + INTRA:          -2.650
REMARK INTER:                   0.000
REMARK INTRA:                  -2.650
REMARK UNBOUND:                -2.648
REMARK  Name = 
REMARK  12 active torsions:
REMARK  status: ('A' for Active; 'I' for Inactive)
REMARK    1  A    between atoms: C_1  and  C_2
REMARK    2  A    between atoms: C_2  and  C_3
REMARK    3  A    between atoms: C_3  and  C_4
REMARK    4  A    between atoms: C_3  and  C_5
REMARK    5  A    between atoms: C_5  and  O_7
REMARK    6  A    between atoms: O_7  and  C_8
REMARK    7  A    between atoms: C_10  and  C_29
REMARK    8  A    between atoms: C_14  and  C_19
REMARK    9  A    between atoms: C_15  and  C_18
REMARK   10  A    between atoms: C_19  and  C_20
REMARK   11  A    between atoms: C_20  and  C_21
REMARK   12  A    between atoms: C_23  and  O_28
REMARK                            x       y       z     vdW  Elec       q    Type
REMARK                         _______ _______ _______ _____ _____    ______ ____
ROOT
ATOM      1  C   UNL     1      17.616   2.724  15.252  0.00  0.00    +0.000 C 
ATOM      2  C   UNL     1      18.569   1.341  12.225  0.00  0.00    +0.000 C 
ATOM      3  C   UNL     1      19.549   1.955  13.212  0.00  0.00    +0.000 C 
ATOM      4  C   UNL     1      19.543   3.467  13.059  0.00  0.00    +0.000 C 
ATOM      5  C   UNL     1      19.202   4.257  14.113  0.00  0.00    +0.000 C 
ATOM      6  C   UNL     1      18.825   3.627  15.443  0.00  0.00    +0.000 C 
ATOM      7  C   UNL     1      18.489   4.719  16.444  0.00  0.00    +0.000 C 
ATOM      8  C   UNL     1      18.112   4.090  17.776  0.00  0.00    +0.000 C 
ATOM      9  C   UNL     1      19.280   3.268  18.296  0.00  0.00    +0.000 C 
ATOM     10  C   UNL     1      19.846   3.574  19.494  0.00  0.00    +0.000 C 
ATOM     11  C   UNL     1      16.903   3.188  17.585  0.00  0.00    +0.000 C 
ATOM     12  C   UNL     1      19.138   1.588  14.629  0.00  0.00    +0.000 C 
ENDROOT
BRANCH   1  13
ATOM     13  O   UNL     1      16.525   3.492  14.767  0.00  0.00    +0.000 OA
BRANCH  13  14
ATOM     14  C   UNL     1      15.675   2.939  13.772  0.00  0.00    +0.000 C 
ATOM     15  O   UNL     1      15.401   1.697  13.789  0.00  0.00    +0.000 OA
BRANCH  14  16
ATOM     16  C   UNL     1      15.093   3.831  12.688  0.00  0.00    +0.000 C 
ATOM     17  C   UNL     1      14.083   4.785  13.305  0.00  0.00    +0.000 C 
BRANCH  16  19
ATOM     18  C   UNL     1      16.507   4.050  10.660  0.00  0.00    +0.000 C 
ATOM     19  C   UNL     1      16.211   4.628  12.035  0.00  0.00    +0.000 C 
ENDBRANCH  16  19
ENDBRANCH  14  16
ENDBRANCH  13  14
ENDBRANCH   1  13
BRANCH   7  20
ATOM     20  C   UNL     1      17.321   5.540  15.924  0.00  0.00    +0.000 C 
BRANCH  20  21
ATOM     21  C   UNL     1      17.615   7.029  15.840  0.00  0.00    +0.000 C 
BRANCH  21  22
ATOM     22  C   UNL     1      17.533   7.635  14.448  0.00  0.00    +0.000 C 
ATOM     23  C   UNL     1      15.627   8.051   9.834  0.00  0.00    +0.000 C 
ATOM     24  C   UNL     1      16.972   7.929  10.533  0.00  0.00    +0.000 C 
ATOM     25  C   UNL     1      16.942   8.716  11.833  0.00  0.00    +0.000 C 
ATOM     26  C   UNL     1      15.850   8.163  12.734  0.00  0.00    +0.000 C 
ATOM     27  O   UNL     1      14.640   8.168  12.344  0.00  0.00    +0.000 OA
ATOM     28  O   UNL     1      16.182   7.641  14.012  0.00  0.00    +0.000 OA
BRANCH  24  29
ATOM     29  O   UNL     1      17.992   8.446   9.690  0.00  0.00    +0.000 OA
ATOM     30  H   UNL     1      18.878   8.084   9.979  0.00  0.00    +0.000 HD
ENDBRANCH  24  29
ENDBRANCH  21  22
ENDBRANCH  20  21
ENDBRANCH   7  20
TORSDOF 8
ENDMDL
MODEL 2
REMARK VINA RESULT:    -0.001      2.920      6.981
REMARK INTER + INTRA:          -2.650
REMARK INTER:                   0.000
REMARK INTRA:                  -2.650
REMARK UNBOUND:                -2.648
REMARK  Name = 
REMARK  12 active torsions:
REMARK  status: ('A' for Active; 'I' for Inactive)
REMARK    1  A    between atoms: C_1  and  C_2
REMARK    2  A    between atoms: C_2  and  C_3
REMARK    3  A    between atoms: C_3  and  C_4
REMARK    4  A    between atoms: C_3  and  C_5
REMARK    5  A    between atoms: C_5  and  O_7
REMARK    6  A    between atoms: O_7  and  C_8
REMARK    7  A    between atoms: C_10  and  C_29
REMARK    8  A    between atoms: C_14  and  C_19
REMARK    9  A    between atoms: C_15  and  C_18
REMARK   10  A    between atoms: C_19  and  C_20
REMARK   11  A    between atoms: C_20  and  C_21
REMARK   12  A    between atoms: C_23  and  O_28
REMARK                            x       y       z     vdW  Elec       q    Type
REMARK                         _______ _______ _______ _____ _____    ______ ____
ROOT
ATOM      1  C   UNL     1      13.530   4.473  13.369  0.00  0.00    +0.000 C 
ATOM      2  C   UNL     1      11.332   3.206  15.724  0.00  0.00    +0.000 C 
ATOM      3  C   UNL     1      11.033   4.427  14.870  0.00  0.00    +0.000 C 
ATOM      4  C   UNL     1      11.715   5.646  15.469  0.00  0.00    +0.000 C 
ATOM      5  C   UNL     1      12.634   6.337  14.742  0.00  0.00    +0.000 C 
ATOM      6  C   UNL     1      12.980   5.890  13.331  0.00  0.00    +0.000 C 
ATOM      7  C   UNL     1      14.024   6.824  12.745  0.00  0.00    +0.000 C 
ATOM      8  C   UNL     1      14.370   6.379  11.334  0.00  0.00    +0.000 C 
ATOM      9  C   UNL     1      13.119   6.413  10.472  0.00  0.00    +0.000 C 
ATOM     10  C   UNL     1      13.076   7.207   9.367  0.00  0.00    +0.000 C 
ATOM     11  C   UNL     1      14.921   4.962  11.371  0.00  0.00    +0.000 C 
ATOM     12  C   UNL     1      11.552   4.198  13.459  0.00  0.00    +0.000 C 
ENDROOT
BRANCH   1  13
ATOM     13  O   UNL     1      14.699   4.441  14.174  0.00  0.00    +0.000 OA
BRANCH  13  14
ATOM     14  C   UNL     1      14.915   3.337  15.041  0.00  0.00    +0.000 C 
ATOM     15  O   UNL     1      14.563   2.169  14.682  0.00  0.00    +0.000 OA
BRANCH  14  16
ATOM     16  C   UNL     1      15.565   3.551  16.397  0.00  0.00    +0.000 C 
ATOM     17  C   UNL     1      17.021   3.944  16.205  0.00  0.00    +0.000 C 
BRANCH  16  19
ATOM     18  C   UNL     1      13.980   4.052  18.240  0.00  0.00    +0.000 C 
ATOM     19  C   UNL     1      14.835   4.660  17.140  0.00  0.00    +0.000 C 
ENDBRANCH  16  19
ENDBRANCH  14  16
ENDBRANCH  13  14
ENDBRANCH   1  13
BRANCH   7  20
ATOM     20  C   UNL     1      15.276   6.790  13.608  0.00  0.00    +0.000 C 
BRANCH  20  21
ATOM     21  C   UNL     1      15.710   8.159  14.103  0.00  0.00    +0.000 C 
BRANCH  21  22
ATOM     22  C   UNL     1      15.727   8.335  15.613  0.00  0.00    +0.000 C 
ATOM     23  C   UNL     1      16.413   6.744  20.313  0.00  0.00    +0.000 C 
ATOM     24  C   UNL     1      15.387   7.485  19.472  0.00  0.00    +0.000 C 
ATOM     25  C   UNL     1      16.101   8.388  18.479  0.00  0.00    +0.000 C 
ATOM     26  C   UNL     1      16.984   7.545  17.574  0.00  0.00    +0.000 C 
ATOM     27  O   UNL     1      17.916   6.839  18.072  0.00  0.00    +0.000 OA
ATOM     28  O   UNL     1      16.768   7.546  16.170  0.00  0.00    +0.000 OA
BRANCH  24  29
ATOM     29  O   UNL     1      14.562   8.273  20.319  0.00  0.00    +0.000 OA
ATOM     30  H   UNL     1      13.618   8.241  19.989  0.00  0.00    +0.000 HD
ENDBRANCH  24  29
ENDBRANCH  21  22
ENDBRANCH  20  21
ENDBRANCH   7  20
TORSDOF 8
ENDMDL
MODEL 3
REMARK VINA RESULT:    -0.001     10.508     12.229
REMARK INTER + INTRA:          -2.650
REMARK INTER:                   0.000
REMARK INTRA:                  -2.650
REMARK UNBOUND:                -2.648
REMARK  Name = 
REMARK  12 active torsions:
REMARK  status: ('A' for Active; 'I' for Inactive)
REMARK    1  A    between atoms: C_1  and  C_2
REMARK    2  A    between atoms: C_2  and  C_3
REMARK    3  A    between atoms: C_3  and  C_4
REMARK    4  A    between atoms: C_3  and  C_5
REMARK    5  A    between atoms: C_5  and  O_7
REMARK    6  A    between atoms: O_7  and  C_8
REMARK    7  A    between atoms: C_10  and  C_29
REMARK    8  A    between atoms: C_14  and  C_19
REMARK    9  A    between atoms: C_15  and  C_18
REMARK   10  A    between atoms: C_19  and  C_20
REMARK   11  A    between atoms: C_20  and  C_21
REMARK   12  A    between atoms: C_23  and  O_28
REMARK                            x       y       z     vdW  Elec       q    Type
REMARK                         _______ _______ _______ _____ _____    ______ ____
ROOT
ATOM      1  C   UNL     1      16.097  13.057  22.119  0.00  0.00    +0.000 C 
ATOM      2  C   UNL     1      13.527  10.941  23.067  0.00  0.00    +0.000 C 
ATOM      3  C   UNL     1      14.555  10.587  22.005  0.00  0.00    +0.000 C 
ATOM      4  C   UNL     1      14.167  11.239  20.687  0.00  0.00    +0.000 C 
ATOM      5  C   UNL     1      15.012  12.122  20.091  0.00  0.00    +0.000 C 
ATOM      6  C   UNL     1      16.343  12.459  20.743  0.00  0.00    +0.000 C 
ATOM      7  C   UNL     1      17.090  13.463  19.880  0.00  0.00    +0.000 C 
ATOM      8  C   UNL     1      18.421  13.801  20.531  0.00  0.00    +0.000 C 
ATOM      9  C   UNL     1      19.252  12.535  20.670  0.00  0.00    +0.000 C 
ATOM     10  C   UNL     1      20.466  12.448  20.061  0.00  0.00    +0.000 C 
ATOM     11  C   UNL     1      18.175  14.399  21.907  0.00  0.00    +0.000 C 
ATOM     12  C   UNL     1      15.923  11.091  22.437  0.00  0.00    +0.000 C 
ENDROOT
BRANCH   1  13
ATOM     13  O   UNL     1      15.321  14.239  21.989  0.00  0.00    +0.000 OA
BRANCH  13  14
ATOM     14  C   UNL     1      14.298  14.507  22.937  0.00  0.00    +0.000 C 
ATOM     15  O   UNL     1      14.465  14.190  24.157  0.00  0.00    +0.000 OA
BRANCH  14  16
ATOM     16  C   UNL     1      13.005  15.170  22.494  0.00  0.00    +0.000 C 
ATOM     17  C   UNL     1      13.285  16.611  22.097  0.00  0.00    +0.000 C 
BRANCH  16  19
ATOM     18  C   UNL     1      11.233  13.599  21.753  0.00  0.00    +0.000 C 
ATOM     19  C   UNL     1      12.432  14.418  21.303  0.00  0.00    +0.000 C 
ENDBRANCH  16  19
ENDBRANCH  14  16
ENDBRANCH  13  14
ENDBRANCH   1  13
BRANCH   7  20
ATOM     20  C   UNL     1      16.259  14.728  19.742  0.00  0.00    +0.000 C 
BRANCH  20  21
ATOM     21  C   UNL     1      15.993  15.125  18.299  0.00  0.00    +0.000 C 
BRANCH  21  22
ATOM     22  C   UNL     1      14.530  15.162  17.888  0.00  0.00    +0.000 C 
ATOM     23  C   UNL     1       9.655  15.976  18.703  0.00  0.00    +0.000 C 
ATOM     24  C   UNL     1      10.579  14.913  18.132  0.00  0.00    +0.000 C 
ATOM     25  C   UNL     1      11.716  15.582  17.377  0.00  0.00    +0.000 C 
ATOM     26  C   UNL     1      12.498  16.476  18.326  0.00  0.00    +0.000 C 
ATOM     27  O   UNL     1      11.915  17.437  18.919  0.00  0.00    +0.000 OA
ATOM     28  O   UNL     1      13.879  16.236  18.550  0.00  0.00    +0.000 OA
BRANCH  24  29
ATOM     29  O   UNL     1       9.849  14.079  17.244  0.00  0.00    +0.000 OA
ATOM     30  H   UNL     1       9.422  13.336  17.760  0.00  0.00    +0.000 HD
ENDBRANCH  24  29
ENDBRANCH  21  22
ENDBRANCH  20  21
ENDBRANCH   7  20
TORSDOF 8
ENDMDL
MODEL 4
REMARK VINA RESULT:    -0.001      8.848     11.234
REMARK INTER + INTRA:          -2.650
REMARK INTER:                   0.000
REMARK INTRA:                  -2.650
REMARK UNBOUND:                -2.648
REMARK  Name = 
REMARK  12 active torsions:
REMARK  status: ('A' for Active; 'I' for Inactive)
REMARK    1  A    between atoms: C_1  and  C_2
REMARK    2  A    between atoms: C_2  and  C_3
REMARK    3  A    between atoms: C_3  and  C_4
REMARK    4  A    between atoms: C_3  and  C_5
REMARK    5  A    between atoms: C_5  and  O_7
REMARK    6  A    between atoms: O_7  and  C_8
REMARK    7  A    between atoms: C_10  and  C_29
REMARK    8  A    between atoms: C_14  and  C_19
REMARK    9  A    between atoms: C_15  and  C_18
REMARK   10  A    between atoms: C_19  and  C_20
REMARK   11  A    between atoms: C_20  and  C_21
REMARK   12  A    between atoms: C_23  and  O_28
REMARK                            x       y       z     vdW  Elec       q    Type
REMARK                         _______ _______ _______ _____ _____    ______ ____
ROOT
ATOM      1  C   UNL     1      13.450   7.097  20.500  0.00  0.00    +0.000 C 
ATOM      2  C   UNL     1      15.690   9.697  20.047  0.00  0.00    +0.000 C 
ATOM      3  C   UNL     1      15.942   8.528  20.984  0.00  0.00    +0.000 C 
ATOM      4  C   UNL     1      15.208   8.760  22.295  0.00  0.00    +0.000 C 
ATOM      5  C   UNL     1      14.263   7.874  22.712  0.00  0.00    +0.000 C 
ATOM      6  C   UNL     1      13.942   6.652  21.868  0.00  0.00    +0.000 C 
ATOM      7  C   UNL     1      12.861   5.833  22.553  0.00  0.00    +0.000 C 
ATOM      8  C   UNL     1      12.539   4.610  21.709  0.00  0.00    +0.000 C 
ATOM      9  C   UNL     1      13.791   3.763  21.547  0.00  0.00    +0.000 C 
ATOM     10  C   UNL     1      13.805   2.478  21.993  0.00  0.00    +0.000 C 
ATOM     11  C   UNL     1      12.047   5.055  20.341  0.00  0.00    +0.000 C 
ATOM     12  C   UNL     1      15.437   7.246  20.341  0.00  0.00    +0.000 C 
ENDROOT
BRANCH   1  13
ATOM     13  O   UNL     1      12.281   7.888  20.651  0.00  0.00    +0.000 OA
BRANCH  13  14
ATOM     14  C   UNL     1      12.107   9.034  19.831  0.00  0.00    +0.000 C 
ATOM     15  O   UNL     1      12.506   9.019  18.624  0.00  0.00    +0.000 OA
BRANCH  14  16
ATOM     16  C   UNL     1      11.445  10.280  20.396  0.00  0.00    +0.000 C 
ATOM     17  C   UNL     1       9.973   9.999  20.655  0.00  0.00    +0.000 C 
BRANCH  16  19
ATOM     18  C   UNL     1      13.000  11.887  21.472  0.00  0.00    +0.000 C 
ATOM     19  C   UNL     1      12.123  10.666  21.701  0.00  0.00    +0.000 C 
ENDBRANCH  16  19
ENDBRANCH  14  16
ENDBRANCH  13  14
ENDBRANCH   1  13
BRANCH   7  20
ATOM     20  C   UNL     1      11.609   6.680  22.715  0.00  0.00    +0.000 C 
BRANCH  20  21
ATOM     21  C   UNL     1      11.117   6.768  24.150  0.00  0.00    +0.000 C 
BRANCH  21  22
ATOM     22  C   UNL     1      11.087   8.165  24.748  0.00  0.00    +0.000 C 
ATOM     23  C   UNL     1      10.450  13.130  24.536  0.00  0.00    +0.000 C 
ATOM     24  C   UNL     1      11.448  12.103  25.049  0.00  0.00    +0.000 C 
ATOM     25  C   UNL     1      10.701  10.901  25.600  0.00  0.00    +0.000 C 
ATOM     26  C   UNL     1       9.857  10.280  24.499  0.00  0.00    +0.000 C 
ATOM     27  O   UNL     1       8.954  10.967  23.926  0.00  0.00    +0.000 OA
ATOM     28  O   UNL     1      10.078   8.933  24.109  0.00  0.00    +0.000 OA
BRANCH  24  29
ATOM     29  O   UNL     1      12.236  12.683  26.079  0.00  0.00    +0.000 OA
ATOM     30  H   UNL     1      12.322  12.037  26.837  0.00  0.00    +0.000 HD
ENDBRANCH  24  29
ENDBRANCH  21  22
ENDBRANCH  20  21
ENDBRANCH   7  20
TORSDOF 8
ENDMDL
MODEL 5
REMARK VINA RESULT:     0.000      3.750      5.878
REMARK INTER + INTRA:          -2.648
REMARK INTER:                   0.000
REMARK INTRA:                  -2.648
REMARK UNBOUND:                -2.648
REMARK  Name = 
REMARK  12 active torsions:
REMARK  status: ('A' for Active; 'I' for Inactive)
REMARK    1  A    between atoms: C_1  and  C_2
REMARK    2  A    between atoms: C_2  and  C_3
REMARK    3  A    between atoms: C_3  and  C_4
REMARK    4  A    between atoms: C_3  and  C_5
REMARK    5  A    between atoms: C_5  and  O_7
REMARK    6  A    between atoms: O_7  and  C_8
REMARK    7  A    between atoms: C_10  and  C_29
REMARK    8  A    between atoms: C_14  and  C_19
REMARK    9  A    between atoms: C_15  and  C_18
REMARK   10  A    between atoms: C_19  and  C_20
REMARK   11  A    between atoms: C_20  and  C_21
REMARK   12  A    between atoms: C_23  and  O_28
REMARK                            x       y       z     vdW  Elec       q    Type
REMARK                         _______ _______ _______ _____ _____    ______ ____
ROOT
ATOM      1  C   UNL     1      19.969   4.721  12.322  0.00  0.00    +0.000 C 
ATOM      2  C   UNL     1      21.205   7.405  10.519  0.00  0.00    +0.000 C 
ATOM      3  C   UNL     1      20.024   7.507  11.469  0.00  0.00    +0.000 C 
ATOM      4  C   UNL     1      18.768   7.009  10.773  0.00  0.00    +0.000 C 
ATOM      5  C   UNL     1      18.080   5.952  11.283  0.00  0.00    +0.000 C 
ATOM      6  C   UNL     1      18.569   5.267  12.549  0.00  0.00    +0.000 C 
ATOM      7  C   UNL     1      17.631   4.126  12.902  0.00  0.00    +0.000 C 
ATOM      8  C   UNL     1      18.118   3.440  14.169  0.00  0.00    +0.000 C 
ATOM      9  C   UNL     1      18.146   4.445  15.309  0.00  0.00    +0.000 C 
ATOM     10  C   UNL     1      17.394   4.231  16.423  0.00  0.00    +0.000 C 
ATOM     11  C   UNL     1      19.519   2.894  13.941  0.00  0.00    +0.000 C 
ATOM     12  C   UNL     1      20.291   6.657  12.702  0.00  0.00    +0.000 C 
ENDROOT
BRANCH   1  13
ATOM     13  O   UNL     1      19.944   3.783  11.257  0.00  0.00    +0.000 OA
BRANCH  13  14
ATOM     14  C   UNL     1      21.009   3.767  10.318  0.00  0.00    +0.000 C 
ATOM     15  O   UNL     1      22.198   4.004  10.703  0.00  0.00    +0.000 OA
BRANCH  14  16
ATOM     16  C   UNL     1      20.730   3.469   8.855  0.00  0.00    +0.000 C 
ATOM     17  C   UNL     1      20.305   2.017   8.706  0.00  0.00    +0.000 C 
BRANCH  16  19
ATOM     18  C   UNL     1      20.206   5.461   7.470  0.00  0.00    +0.000 C 
ATOM     19  C   UNL     1      19.616   4.376   8.357  0.00  0.00    +0.000 C 
ENDBRANCH  16  19
ENDBRANCH  14  16
ENDBRANCH  13  14
ENDBRANCH   1  13
BRANCH   7  20
ATOM     20  C   UNL     1      17.604   3.121  11.762  0.00  0.00    +0.000 C 
BRANCH  20  21
ATOM     21  C   UNL     1      16.207   2.842  11.232  0.00  0.00    +0.000 C 
BRANCH  21  22
ATOM     22  C   UNL     1      15.978   3.196   9.772  0.00  0.00    +0.000 C 
ATOM     23  C   UNL     1      17.382   3.645   4.984  0.00  0.00    +0.000 C 
ATOM     24  C   UNL     1      16.698   4.450   6.079  0.00  0.00    +0.000 C 
ATOM     25  C   UNL     1      15.813   3.532   6.905  0.00  0.00    +0.000 C 
ATOM     26  C   UNL     1      16.663   2.440   7.534  0.00  0.00    +0.000 C 
ATOM     27  O   UNL     1      17.325   1.645   6.796  0.00  0.00    +0.000 OA
ATOM     28  O   UNL     1      16.717   2.308   8.947  0.00  0.00    +0.000 OA
BRANCH  24  29
ATOM     29  O   UNL     1      15.904   5.470   5.490  0.00  0.00    +0.000 OA
ATOM     30  H   UNL     1      15.997   6.312   6.020  0.00  0.00    +0.000 HD
ENDBRANCH  24  29
ENDBRANCH  21  22
ENDBRANCH  20  21
ENDBRANCH   7  20
TORSDOF 8
ENDMDL
