MODEL 1
REMARK VINA RESULT:     0.000      0.000      0.000
REMARK INTER + INTRA:          -0.062
REMARK INTER:                   0.000
REMARK INTRA:                  -0.062
REMARK UNBOUND:                -0.062
REMARK  Name = 
REMARK  1 active torsions:
REMARK  status: ('A' for Active; 'I' for Inactive)
REMARK    1  A    between atoms: C_8  and  N_9
REMARK                            x       y       z     vdW  Elec       q    Type
REMARK                         _______ _______ _______ _____ _____    ______ ____
ROOT
ATOM      1  N   UNL     1      16.754  12.593  15.272  0.00  0.00    +0.000 N 
ATOM      2  C   UNL     1      16.701  13.980  15.754  0.00  0.00    +0.000 C 
ATOM      3  O   UNL     1      17.617  14.425  16.514  0.00  0.00    +0.000 OA
ATOM      4  C   UNL     1      15.550  14.884  15.343  0.00  0.00    +0.000 A 
ATOM      5  C   UNL     1      15.499  16.244  15.814  0.00  0.00    +0.000 A 
ATOM      6  C   UNL     1      16.537  16.747  16.676  0.00  0.00    +0.000 A 
ATOM      7  C   UNL     1      16.485  18.107  17.148  0.00  0.00    +0.000 A 
ATOM      8  C   UNL     1      17.523  18.610  18.010  0.00  0.00    +0.000 A 
ATOM      9  C   UNL     1      14.512  14.382  14.480  0.00  0.00    +0.000 A 
ATOM     10  C   UNL     1      15.694  12.079  14.392  0.00  0.00    +0.000 C 
ATOM     11  O   UNL     1      15.739  10.879  13.975  0.00  0.00    +0.000 OA
ENDROOT
BRANCH   1  19
ATOM     12  C   UNL     1      17.761  11.408  17.154  0.00  0.00    +0.000 C 
ATOM     13  C   UNL     1      16.441  10.707  17.432  0.00  0.00    +0.000 C 
ATOM     14  C   UNL     1      16.336  10.396  18.915  0.00  0.00    +0.000 C 
ATOM     15  O   UNL     1      15.381  10.881  19.600  0.00  0.00    +0.000 OA
ATOM     16  N   UNL     1      17.339   9.535  19.559  0.00  0.00    +0.000 N 
ATOM     17  C   UNL     1      18.442   8.974  18.768  0.00  0.00    +0.000 C 
ATOM     18  O   UNL     1      18.531   9.234  17.527  0.00  0.00    +0.000 OA
ATOM     19  C   UNL     1      17.867  11.719  15.670  0.00  0.00    +0.000 C 
ATOM     20  H   UNL     1      17.267   9.326  20.556  0.00  0.00    +0.000 HD
ENDBRANCH   1  19
TORSDOF 1
ENDMDL
MODEL 2
REMARK VINA RESULT:     0.000      4.968      6.819
REMARK INTER + INTRA:          -0.062
REMARK INTER:                   0.000
REMARK INTRA:                  -0.062
REMARK UNBOUND:                -0.062
REMARK  Name = 
REMARK  1 active torsions:
REMARK  status: ('A' for Active; 'I' for Inactive)
REMARK    1  A    between atoms: C_8  and  N_9
REMARK                            x       y       z     vdW  Elec       q    Type
REMARK                         _______ _______ _______ _____ _____    ______ ____
ROOT
ATOM      1  N   UNL     1      14.639   7.116  16.539  0.00  0.00    +0.000 N 
ATOM      2  C   UNL     1      14.112   8.380  17.073  0.00  0.00    +0.000 C 
ATOM      3  O   UNL     1      13.294   9.068  16.385  0.00  0.00    +0.000 OA
ATOM      4  C   UNL     1      14.545   8.864  18.447  0.00  0.00    +0.000 A 
ATOM      5  C   UNL     1      14.028  10.103  18.970  0.00  0.00    +0.000 A 
ATOM      6  C   UNL     1      13.101  10.882  18.190  0.00  0.00    +0.000 A 
ATOM      7  C   UNL     1      12.585  12.121  18.713  0.00  0.00    +0.000 A 
ATOM      8  C   UNL     1      11.658  12.900  17.934  0.00  0.00    +0.000 A 
ATOM      9  C   UNL     1      15.471   8.085  19.226  0.00  0.00    +0.000 A 
ATOM     10  C   UNL     1      15.585   6.320  17.335  0.00  0.00    +0.000 C 
ATOM     11  O   UNL     1      16.042   5.227  16.874  0.00  0.00    +0.000 OA
ENDROOT
BRANCH   1  19
ATOM     12  C   UNL     1      14.796   7.566  14.146  0.00  0.00    +0.000 C 
ATOM     13  C   UNL     1      16.314   7.554  14.232  0.00  0.00    +0.000 C 
ATOM     14  C   UNL     1      16.890   8.473  13.167  0.00  0.00    +0.000 C 
ATOM     15  O   UNL     1      17.610   9.464  13.505  0.00  0.00    +0.000 OA
ATOM     16  N   UNL     1      16.613   8.215  11.746  0.00  0.00    +0.000 N 
ATOM     17  C   UNL     1      15.780   7.068  11.356  0.00  0.00    +0.000 C 
ATOM     18  O   UNL     1      15.299   6.300  12.247  0.00  0.00    +0.000 OA
ATOM     19  C   UNL     1      14.221   6.648  15.210  0.00  0.00    +0.000 C 
ATOM     20  H   UNL     1      17.000   8.831  11.031  0.00  0.00    +0.000 HD
ENDBRANCH   1  19
TORSDOF 1
ENDMDL
MODEL 3
REMARK VINA RESULT:     0.000      4.155      6.004
REMARK INTER + INTRA:          -0.062
REMARK INTER:                   0.000
REMARK INTRA:                  -0.062
REMARK UNBOUND:                -0.062
REMARK  Name = 
REMARK  1 active torsions:
REMARK  status: ('A' for Active; 'I' for Inactive)
REMARK    1  A    between atoms: C_8  and  N_9
REMARK                            x       y       z     vdW  Elec       q    Type
REMARK                         _______ _______ _______ _____ _____    ______ ____
ROOT
ATOM      1  N   UNL     1      15.492   8.499  16.975  0.00  0.00    +0.000 N 
ATOM      2  C   UNL     1      14.515   9.429  17.559  0.00  0.00    +0.000 C 
ATOM      3  O   UNL     1      13.693  10.041  16.808  0.00  0.00    +0.000 OA
ATOM      4  C   UNL     1      14.487   9.657  19.061  0.00  0.00    +0.000 A 
ATOM      5  C   UNL     1      13.529  10.568  19.633  0.00  0.00    +0.000 A 
ATOM      6  C   UNL     1      12.597  11.262  18.782  0.00  0.00    +0.000 A 
ATOM      7  C   UNL     1      11.640  12.173  19.353  0.00  0.00    +0.000 A 
ATOM      8  C   UNL     1      10.709  12.867  18.502  0.00  0.00    +0.000 A 
ATOM      9  C   UNL     1      15.417   8.963  19.913  0.00  0.00    +0.000 A 
ATOM     10  C   UNL     1      16.442   7.790  17.845  0.00  0.00    +0.000 C 
ATOM     11  O   UNL     1      17.288   6.986  17.340  0.00  0.00    +0.000 OA
ENDROOT
BRANCH   1  19
ATOM     12  C   UNL     1      16.007   9.538  14.828  0.00  0.00    +0.000 C 
ATOM     13  C   UNL     1      17.407   9.876  15.315  0.00  0.00    +0.000 C 
ATOM     14  C   UNL     1      17.895  11.136  14.621  0.00  0.00    +0.000 C 
ATOM     15  O   UNL     1      18.202  12.162  15.306  0.00  0.00    +0.000 OA
ATOM     16  N   UNL     1      18.011  11.170  13.155  0.00  0.00    +0.000 N 
ATOM     17  C   UNL     1      17.657   9.984  12.362  0.00  0.00    +0.000 C 
ATOM     18  O   UNL     1      17.248   8.930  12.944  0.00  0.00    +0.000 OA
ATOM     19  C   UNL     1      15.519   8.278  15.522  0.00  0.00    +0.000 C 
ATOM     20  H   UNL     1      18.339  12.016  12.688  0.00  0.00    +0.000 HD
ENDBRANCH   1  19
TORSDOF 1
ENDMDL
MODEL 4
REMARK VINA RESULT:     0.000      2.339      2.679
REMARK INTER + INTRA:          -0.062
REMARK INTER:                   0.000
REMARK INTRA:                  -0.062
REMARK UNBOUND:                -0.062
REMARK  Name = 
REMARK  1 active torsions:
REMARK  status: ('A' for Active; 'I' for Inactive)
REMARK    1  A    between atoms: C_8  and  N_9
REMARK                            x       y       z     vdW  Elec       q    Type
REMARK                         _______ _______ _______ _____ _____    ______ ____
ROOT
ATOM      1  N   UNL     1      14.262  12.852  16.185  0.00  0.00    +0.000 N 
ATOM      2  C   UNL     1      14.542  14.232  15.764  0.00  0.00    +0.000 C 
ATOM      3  O   UNL     1      15.598  14.494  15.108  0.00  0.00    +0.000 OA
ATOM      4  C   UNL     1      13.567  15.346  16.111  0.00  0.00    +0.000 A 
ATOM      5  C   UNL     1      13.842  16.697  15.697  0.00  0.00    +0.000 A 
ATOM      6  C   UNL     1      15.039  16.994  14.954  0.00  0.00    +0.000 A 
ATOM      7  C   UNL     1      15.313  18.346  14.541  0.00  0.00    +0.000 A 
ATOM      8  C   UNL     1      16.511  18.643  13.798  0.00  0.00    +0.000 A 
ATOM      9  C   UNL     1      12.370  15.049  16.854  0.00  0.00    +0.000 A 
ATOM     10  C   UNL     1      13.040  12.549  16.944  0.00  0.00    +0.000 C 
ATOM     11  O   UNL     1      12.797  11.356  17.309  0.00  0.00    +0.000 OA
ENDROOT
BRANCH   1  19
ATOM     12  C   UNL     1      16.491  11.965  16.635  0.00  0.00    +0.000 C 
ATOM     13  C   UNL     1      16.186  11.924  18.124  0.00  0.00    +0.000 C 
ATOM     14  C   UNL     1      17.472  12.114  18.910  0.00  0.00    +0.000 C 
ATOM     15  O   UNL     1      17.591  13.097  19.707  0.00  0.00    +0.000 OA
ATOM     16  N   UNL     1      18.579  11.159  18.749  0.00  0.00    +0.000 N 
ATOM     17  C   UNL     1      18.441  10.023  17.828  0.00  0.00    +0.000 C 
ATOM     18  O   UNL     1      17.365   9.865  17.170  0.00  0.00    +0.000 OA
ATOM     19  C   UNL     1      15.204  11.775  15.849  0.00  0.00    +0.000 C 
ATOM     20  H   UNL     1      19.443  11.286  19.277  0.00  0.00    +0.000 HD
ENDBRANCH   1  19
TORSDOF 1
ENDMDL
MODEL 5
REMARK VINA RESULT:     0.000     11.081     13.774
REMARK INTER + INTRA:          -0.062
REMARK INTER:                   0.000
REMARK INTRA:                  -0.062
REMARK UNBOUND:                -0.062
REMARK  Name = 
REMARK  1 active torsions:
REMARK  status: ('A' for Active; 'I' for Inactive)
REMARK    1  A    between atoms: C_8  and  N_9
REMARK                            x       y       z     vdW  Elec       q    Type
REMARK                         _______ _______ _______ _____ _____    ______ ____
ROOT
ATOM      1  N   UNL     1       7.991   3.785  20.394  0.00  0.00    +0.000 N 
ATOM      2  C   UNL     1       7.169   4.188  21.543  0.00  0.00    +0.000 C 
ATOM      3  O   UNL     1       7.484   5.215  22.221  0.00  0.00    +0.000 OA
ATOM      4  C   UNL     1       5.941   3.376  21.921  0.00  0.00    +0.000 A 
ATOM      5  C   UNL     1       5.134   3.772  23.047  0.00  0.00    +0.000 A 
ATOM      6  C   UNL     1       5.492   4.937  23.815  0.00  0.00    +0.000 A 
ATOM      7  C   UNL     1       4.686   5.331  24.941  0.00  0.00    +0.000 A 
ATOM      8  C   UNL     1       5.044   6.496  25.709  0.00  0.00    +0.000 A 
ATOM      9  C   UNL     1       5.583   2.213  21.152  0.00  0.00    +0.000 A 
ATOM     10  C   UNL     1       7.626   2.597  19.609  0.00  0.00    +0.000 C 
ATOM     11  O   UNL     1       8.337   2.247  18.615  0.00  0.00    +0.000 OA
ENDROOT
BRANCH   1  19
ATOM     12  C   UNL     1      10.244   4.405  21.101  0.00  0.00    +0.000 C 
ATOM     13  C   UNL     1      10.623   2.938  21.217  0.00  0.00    +0.000 C 
ATOM     14  C   UNL     1      11.687   2.773  22.289  0.00  0.00    +0.000 C 
ATOM     15  O   UNL     1      11.462   2.039  23.302  0.00  0.00    +0.000 OA
ATOM     16  N   UNL     1      12.979   3.464  22.154  0.00  0.00    +0.000 N 
ATOM     17  C   UNL     1      13.240   4.313  20.983  0.00  0.00    +0.000 C 
ATOM     18  O   UNL     1      12.349   4.451  20.087  0.00  0.00    +0.000 OA
ATOM     19  C   UNL     1       9.180   4.570  20.029  0.00  0.00    +0.000 C 
ATOM     20  H   UNL     1      13.694   3.353  22.874  0.00  0.00    +0.000 HD
ENDBRANCH   1  19
TORSDOF 1
ENDMDL
