REMARK SMILES Fc1cc(Sc2ccc3c(c2)CC/C3=N\OCc2ccncc2)cc(C2CCOCC2)c1
REMARK SMILES IDX 6 1 7 2 8 3 9 4 10 5 11 6 12 7 13 8 14 9 15 10 5 11 4 12
REMARK SMILES IDX 2 13 3 14 32 15 25 16 24 17 1 18 26 19 27 20 31 21 28 22
REMARK SMILES IDX 30 23 29 24 16 25 17 26 18 27 19 28 23 29 20 30 22 31 21 32
REMARK H PARENT
ROOT
ATOM      1  C   UNL     1      -0.245  -2.314   0.199  1.00  0.00     0.013 A 
ATOM      2  C   UNL     1       0.705  -2.774   1.136  1.00  0.00     0.016 A 
ATOM      3  C   UNL     1       2.005  -2.266   1.140  1.00  0.00     0.011 A 
ATOM      4  C   UNL     1       2.321  -1.307   0.196  1.00  0.00     0.003 A 
ATOM      5  C   UNL     1       1.402  -0.839  -0.737  1.00  0.00    -0.037 A 
ATOM      6  C   UNL     1       0.110  -1.341  -0.747  1.00  0.00     0.019 A 
ATOM      7  C   UNL     1       1.977   0.208  -1.634  1.00  0.00     0.043 C 
ATOM      8  C   UNL     1       3.454   0.296  -1.216  1.00  0.00     0.065 C 
ATOM      9  C   UNL     1       3.587  -0.633  -0.035  1.00  0.00     0.088 C 
ATOM     10  N   UNL     1       4.643  -0.842   0.683  1.00  0.00    -0.091 NA
ENDROOT
BRANCH   1  11
ATOM     11  S   UNL     1      -1.889  -3.005   0.221  1.00  0.00    -0.090 SA
BRANCH  11  12
ATOM     12  C   UNL     1      -2.892  -1.592   0.646  1.00  0.00     0.015 A 
ATOM     13  C   UNL     1      -3.382   0.340   1.994  1.00  0.00     0.124 A 
ATOM     14  C   UNL     1      -2.550  -0.727   1.688  1.00  0.00     0.054 A 
ATOM     15  C   UNL     1      -4.561   0.561   1.291  1.00  0.00     0.043 A 
ATOM     16  C   UNL     1      -4.932  -0.301   0.249  1.00  0.00    -0.041 A 
ATOM     17  C   UNL     1      -4.084  -1.376  -0.063  1.00  0.00     0.019 A 
ATOM     18  F   UNL     1      -3.049   1.171   2.991  1.00  0.00    -0.207 F 
BRANCH  16  19
ATOM     19  C   UNL     1      -6.224  -0.108  -0.522  1.00  0.00     0.024 C 
ATOM     20  C   UNL     1      -6.241   1.209  -1.322  1.00  0.00     0.037 C 
ATOM     21  C   UNL     1      -7.456  -0.205   0.382  1.00  0.00     0.037 C 
ATOM     22  C   UNL     1      -7.659   1.728  -1.527  1.00  0.00     0.160 C 
ATOM     23  C   UNL     1      -8.738  -0.091  -0.440  1.00  0.00     0.160 C 
ATOM     24  O   UNL     1      -8.565   0.636  -1.659  1.00  0.00    -0.381 OA
ENDBRANCH  16  19
ENDBRANCH  11  12
ENDBRANCH   1  11
BRANCH  10  25
ATOM     25  O   UNL     1       5.710  -0.061   0.212  1.00  0.00    -0.391 OA
BRANCH  25  26
ATOM     26  C   UNL     1       6.843  -0.281   1.052  1.00  0.00     0.299 C 
BRANCH  26  27
ATOM     27  C   UNL     1       7.979   0.570   0.557  1.00  0.00    -0.005 A 
ATOM     28  C   UNL     1       8.289   1.779   1.175  1.00  0.00     0.027 A 
ATOM     29  C   UNL     1       8.727   0.183  -0.558  1.00  0.00     0.027 A 
ATOM     30  C   UNL     1       9.334   2.535   0.666  1.00  0.00     0.111 A 
ATOM     31  C   UNL     1       9.754   1.006  -0.991  1.00  0.00     0.111 A 
ATOM     32  N   UNL     1      10.076   2.175  -0.402  1.00  0.00    -0.265 NA
ENDBRANCH  26  27
ENDBRANCH  25  26
ENDBRANCH  10  25
TORSDOF 6
