REMARK SMILES NCCCC[C@H](N)C(=O)Nc1ccc2c(c1)C1c3cc(NC(=O)[C@@H](N)CCCCN)ccc3C2c2ccc(NC(=O)[C@@H](N)CCCCN)cc21
REMARK SMILES IDX 11 1 12 2 13 3 14 4 15 5 16 6 17 7 18 8 19 9 20 10 31 11
REMARK SMILES IDX 32 12 33 13 34 14 35 15 36 16 37 17 38 18 49 19 50 20 10 21
REMARK SMILES IDX 8 22 9 23 6 25 5 26 4 27 3 28 2 29 1 30 7 33 21 36 22 37
REMARK SMILES IDX 23 38 24 40 25 41 26 44 27 45 28 46 29 47 30 48 39 51 40 52
REMARK SMILES IDX 41 53 42 55 43 56 44 59 45 60 46 61 47 62 48 63
REMARK H PARENT 10 24 1 31 1 32 7 34 7 35 21 39 25 42 25 43 30 49 30 50 39 54
REMARK H PARENT 43 57 43 58 48 64 48 65
ROOT
ATOM      1  C   UNL     1       2.471  -0.732  -1.732  1.00  0.00     0.041 A 
ATOM      2  C   UNL     1       2.298  -1.143  -3.073  1.00  0.00     0.026 A 
ATOM      3  C   UNL     1       1.029  -1.261  -3.653  1.00  0.00     0.007 A 
ATOM      4  C   UNL     1      -0.074  -0.950  -2.878  1.00  0.00    -0.032 A 
ATOM      5  C   UNL     1       0.093  -0.520  -1.523  1.00  0.00    -0.030 A 
ATOM      6  C   UNL     1       1.357  -0.419  -0.951  1.00  0.00     0.031 A 
ATOM      7  C   UNL     1      -1.242  -0.192  -0.826  1.00  0.00     0.080 C 
ATOM      8  C   UNL     1      -1.930   0.865  -1.722  1.00  0.00    -0.030 A 
ATOM      9  C   UNL     1      -2.370   2.121  -1.320  1.00  0.00     0.031 A 
ATOM     10  C   UNL     1      -2.991   2.951  -2.260  1.00  0.00     0.041 A 
ATOM     11  C   UNL     1      -3.153   2.507  -3.592  1.00  0.00     0.026 A 
ATOM     12  C   UNL     1      -2.706   1.249  -4.008  1.00  0.00     0.007 A 
ATOM     13  C   UNL     1      -2.097   0.430  -3.075  1.00  0.00    -0.032 A 
ATOM     14  C   UNL     1      -1.552  -0.988  -3.321  1.00  0.00     0.080 C 
ATOM     15  C   UNL     1      -2.281  -1.891  -2.306  1.00  0.00    -0.032 A 
ATOM     16  C   UNL     1      -3.056  -2.999  -2.600  1.00  0.00     0.007 A 
ATOM     17  C   UNL     1      -3.632  -3.700  -1.536  1.00  0.00     0.026 A 
ATOM     18  C   UNL     1      -3.424  -3.318  -0.194  1.00  0.00     0.041 A 
ATOM     19  C   UNL     1      -2.654  -2.189   0.100  1.00  0.00     0.031 A 
ATOM     20  C   UNL     1      -2.099  -1.469  -0.951  1.00  0.00    -0.030 A 
ENDROOT
BRANCH   1  21
ATOM     21  N   UNL     1       3.795  -0.660  -1.263  1.00  0.00    -0.325 N 
ATOM     22  C   UNL     1       4.254  -0.305  -0.005  1.00  0.00     0.241 C 
ATOM     23  O   UNL     1       3.573  -0.001   0.968  1.00  0.00    -0.273 OA
ATOM     24  H   UNL     1       4.541  -0.799  -1.942  1.00  0.00     0.169 HD
BRANCH  22  25
ATOM     25  C   UNL     1       5.806  -0.398   0.056  1.00  0.00     0.141 C 
BRANCH  25  26
ATOM     26  C   UNL     1       6.370   0.263   1.329  1.00  0.00     0.029 C 
BRANCH  26  27
ATOM     27  C   UNL     1       7.887   0.098   1.478  1.00  0.00     0.003 C 
BRANCH  27  28
ATOM     28  C   UNL     1       8.426   0.624   2.813  1.00  0.00     0.015 C 
BRANCH  28  29
ATOM     29  C   UNL     1       8.066  -0.275   3.999  1.00  0.00     0.077 C 
BRANCH  29  30
ATOM     30  N   UNL     1       8.691   0.226   5.217  1.00  0.00    -0.330 NA
ATOM     31  H   UNL     1       8.339   1.162   5.423  1.00  0.00     0.118 HD
ATOM     32  H   UNL     1       8.411  -0.359   6.004  1.00  0.00     0.118 HD
ENDBRANCH  29  30
ENDBRANCH  28  29
ENDBRANCH  27  28
ENDBRANCH  26  27
ENDBRANCH  25  26
BRANCH  25  33
ATOM     33  N   UNL     1       6.368   0.176  -1.193  1.00  0.00    -0.320 NA
ATOM     34  H   UNL     1       6.191   1.185  -1.183  1.00  0.00     0.119 HD
ATOM     35  H   UNL     1       7.382   0.083  -1.180  1.00  0.00     0.119 HD
ENDBRANCH  25  33
ENDBRANCH  22  25
ENDBRANCH   1  21
BRANCH  10  36
ATOM     36  N   UNL     1      -3.493   4.237  -1.965  1.00  0.00    -0.325 N 
ATOM     37  C   UNL     1      -3.425   4.922  -0.762  1.00  0.00     0.241 C 
ATOM     38  O   UNL     1      -2.882   4.534   0.270  1.00  0.00    -0.273 OA
ATOM     39  H   UNL     1      -3.958   4.707  -2.731  1.00  0.00     0.169 HD
BRANCH  37  40
ATOM     40  C   UNL     1      -4.142   6.295  -0.818  1.00  0.00     0.141 C 
BRANCH  40  41
ATOM     41  N   UNL     1      -4.773   6.557   0.495  1.00  0.00    -0.320 NA
ATOM     42  H   UNL     1      -4.029   6.502   1.199  1.00  0.00     0.119 HD
ATOM     43  H   UNL     1      -5.374   5.763   0.725  1.00  0.00     0.119 HD
ENDBRANCH  40  41
BRANCH  40  44
ATOM     44  C   UNL     1      -3.182   7.449  -1.141  1.00  0.00     0.029 C 
BRANCH  44  45
ATOM     45  C   UNL     1      -2.625   7.428  -2.570  1.00  0.00     0.003 C 
BRANCH  45  46
ATOM     46  C   UNL     1      -1.221   6.824  -2.659  1.00  0.00     0.015 C 
BRANCH  46  47
ATOM     47  C   UNL     1      -0.735   6.774  -4.109  1.00  0.00     0.077 C 
BRANCH  47  48
ATOM     48  N   UNL     1       0.617   6.237  -4.170  1.00  0.00    -0.330 NA
ATOM     49  H   UNL     1       0.639   5.298  -3.769  1.00  0.00     0.118 HD
ATOM     50  H   UNL     1       0.910   6.148  -5.141  1.00  0.00     0.118 HD
ENDBRANCH  47  48
ENDBRANCH  46  47
ENDBRANCH  45  46
ENDBRANCH  44  45
ENDBRANCH  40  44
ENDBRANCH  37  40
ENDBRANCH  10  36
BRANCH  18  51
ATOM     51  N   UNL     1      -4.015  -4.130   0.789  1.00  0.00    -0.325 N 
ATOM     52  C   UNL     1      -3.851  -4.077   2.162  1.00  0.00     0.241 C 
ATOM     53  O   UNL     1      -3.187  -3.261   2.796  1.00  0.00    -0.273 OA
ATOM     54  H   UNL     1      -4.643  -4.865   0.480  1.00  0.00     0.169 HD
BRANCH  52  55
ATOM     55  C   UNL     1      -4.563  -5.248   2.878  1.00  0.00     0.141 C 
BRANCH  55  56
ATOM     56  N   UNL     1      -5.954  -5.350   2.372  1.00  0.00    -0.320 NA
ATOM     57  H   UNL     1      -6.437  -4.481   2.608  1.00  0.00     0.119 HD
ATOM     58  H   UNL     1      -6.437  -6.079   2.899  1.00  0.00     0.119 HD
ENDBRANCH  55  56
BRANCH  55  59
ATOM     59  C   UNL     1      -3.858  -6.589   2.627  1.00  0.00     0.029 C 
BRANCH  59  60
ATOM     60  C   UNL     1      -2.386  -6.590   3.056  1.00  0.00     0.003 C 
BRANCH  60  61
ATOM     61  C   UNL     1      -1.764  -7.979   2.872  1.00  0.00     0.015 C 
BRANCH  61  62
ATOM     62  C   UNL     1      -0.243  -7.994   3.037  1.00  0.00     0.077 C 
BRANCH  62  63
ATOM     63  N   UNL     1       0.176  -7.620   4.379  1.00  0.00    -0.330 NA
ATOM     64  H   UNL     1      -0.044  -6.637   4.546  1.00  0.00     0.118 HD
ATOM     65  H   UNL     1       1.193  -7.686   4.440  1.00  0.00     0.118 HD
ENDBRANCH  62  63
ENDBRANCH  61  62
ENDBRANCH  60  61
ENDBRANCH  59  60
ENDBRANCH  55  59
ENDBRANCH  52  55
ENDBRANCH  18  51
TORSDOF 24
