REMARK SMILES CN(C)CCCOc1ccc2nc3n(c2c1)CC(CN(C)C)CN3
REMARK SMILES IDX 6 1 5 2 4 3 2 4 1 5 3 6 7 7 8 8 9 9 16 10 10 11 15 12 11 13
REMARK SMILES IDX 14 14 12 15 13 16 17 17 24 18 18 19 23 20 19 22 20 23 21 24
REMARK SMILES IDX 22 25
REMARK H PARENT 24 21
ROOT
ATOM      1  C   UNL     1       1.554  -1.683   3.710  1.00  0.00     0.231 C 
ENDROOT
BRANCH   1   2
ATOM      2  C   UNL     1       1.508  -3.135   4.185  1.00  0.00     0.057 C 
BRANCH   2   3
ATOM      3  C   UNL     1       0.136  -3.793   3.981  1.00  0.00     0.087 C 
BRANCH   3   4
ATOM      4  N   UNL     1      -0.947  -3.160   4.756  1.00  0.00    -0.309 NA
ATOM      5  C   UNL     1      -2.249  -3.616   4.260  1.00  0.00     0.104 C 
ATOM      6  C   UNL     1      -0.838  -3.445   6.188  1.00  0.00     0.104 C 
ENDBRANCH   3   4
ENDBRANCH   2   3
ENDBRANCH   1   2
BRANCH   1   7
ATOM      7  O   UNL     1       1.412  -1.662   2.288  1.00  0.00    -0.493 OA
BRANCH   7   8
ATOM      8  C   UNL     1       1.423  -0.437   1.674  1.00  0.00     0.121 A 
ATOM      9  C   UNL     1       1.573   0.795   2.317  1.00  0.00     0.049 A 
ATOM     10  C   UNL     1       1.267  -0.499   0.281  1.00  0.00     0.075 A 
ATOM     11  C   UNL     1       1.575   1.995   1.587  1.00  0.00     0.034 A 
ATOM     12  C   UNL     1       1.269   0.708  -0.426  1.00  0.00     0.073 A 
ATOM     13  C   UNL     1       1.422   1.945   0.194  1.00  0.00     0.091 A 
ATOM     14  N   UNL     1       1.148   1.025  -1.752  1.00  0.00    -0.310 N 
ATOM     15  N   UNL     1       1.400   2.971  -0.722  1.00  0.00    -0.213 NA
ATOM     16  C   UNL     1       1.229   2.388  -1.881  1.00  0.00     0.203 A 
ATOM     17  C   UNL     1       1.042   0.117  -2.876  1.00  0.00     0.132 C 
ATOM     18  N   UNL     1       1.121   2.971  -3.092  1.00  0.00    -0.355 N 
ATOM     19  C   UNL     1       0.577   0.820  -4.161  1.00  0.00     0.042 C 
ATOM     20  C   UNL     1       1.305   2.169  -4.286  1.00  0.00     0.122 C 
ATOM     21  H   UNL     1       1.434   3.938  -3.137  1.00  0.00     0.163 HD
BRANCH  19  22
ATOM     22  C   UNL     1      -0.956   1.014  -4.197  1.00  0.00     0.091 C 
BRANCH  22  23
ATOM     23  N   UNL     1      -1.697  -0.264  -4.185  1.00  0.00    -0.309 NA
ATOM     24  C   UNL     1      -3.093  -0.028  -3.802  1.00  0.00     0.105 C 
ATOM     25  C   UNL     1      -1.656  -0.933  -5.488  1.00  0.00     0.105 C 
ENDBRANCH  22  23
ENDBRANCH  19  22
ENDBRANCH   7   8
ENDBRANCH   1   7
TORSDOF 7
