REMARK SMILES O=C(Nc1cccc(C2=NCCN2)c1)c1ccc(-c2ccc(C(=O)Nc3cccc(C4=NCCN4)c3)cc2)cc1
REMARK SMILES IDX 15 1 16 2 17 3 18 4 39 5 40 6 2 7 1 8 3 9 4 11 5 12 14 13
REMARK SMILES IDX 6 14 8 15 7 16 9 17 10 18 13 19 11 20 12 21 19 23 20 24
REMARK SMILES IDX 38 25 21 26 37 27 22 28 23 29 24 30 25 31 26 33 27 34 36 35
REMARK SMILES IDX 28 36 30 37 29 38 31 39 32 40 35 41 33 42 34 43
REMARK H PARENT 3 10 13 22 25 32 35 44
ROOT
ATOM      1  C   UNL     1       1.649   2.728  -0.790  1.00  0.00     0.040 A 
ATOM      2  C   UNL     1       2.120   1.694   0.025  1.00  0.00     0.014 A 
ATOM      3  C   UNL     1       1.389   0.505   0.134  1.00  0.00     0.009 A 
ATOM      4  C   UNL     1       0.181   0.321  -0.563  1.00  0.00    -0.018 A 
ATOM      5  C   UNL     1      -0.280   1.381  -1.365  1.00  0.00     0.009 A 
ATOM      6  C   UNL     1       0.440   2.575  -1.472  1.00  0.00     0.014 A 
ENDROOT
BRANCH   1   7
ATOM      7  C   UNL     1       2.396   4.006  -0.947  1.00  0.00     0.255 C 
ATOM      8  O   UNL     1       1.754   5.048  -1.001  1.00  0.00    -0.269 OA
ATOM      9  N   UNL     1       3.765   3.860  -1.063  1.00  0.00    -0.322 N 
ATOM     10  H   UNL     1       4.125   2.915  -1.116  1.00  0.00     0.170 HD
BRANCH   9  11
ATOM     11  C   UNL     1       4.722   4.882  -1.244  1.00  0.00     0.042 A 
ATOM     12  C   UNL     1       4.418   6.244  -1.243  1.00  0.00     0.026 A 
ATOM     13  C   UNL     1       6.051   4.486  -1.438  1.00  0.00     0.038 A 
ATOM     14  C   UNL     1       5.422   7.197  -1.446  1.00  0.00     0.003 A 
ATOM     15  C   UNL     1       7.061   5.436  -1.639  1.00  0.00     0.018 A 
ATOM     16  C   UNL     1       6.741   6.796  -1.651  1.00  0.00     0.012 A 
BRANCH  15  17
ATOM     17  C   UNL     1       8.460   4.980  -1.849  1.00  0.00     0.128 C 
ATOM     18  N   UNL     1       8.747   3.708  -1.998  1.00  0.00    -0.266 NA
ATOM     19  N   UNL     1       9.531   5.845  -1.877  1.00  0.00    -0.368 N 
ATOM     20  C   UNL     1      10.222   3.675  -2.198  1.00  0.00     0.165 C 
ATOM     21  C   UNL     1      10.741   5.059  -1.802  1.00  0.00     0.138 C 
ATOM     22  H   UNL     1       9.483   6.654  -1.271  1.00  0.00     0.162 HD
ENDBRANCH  15  17
ENDBRANCH   9  11
ENDBRANCH   1   7
BRANCH   4  23
ATOM     23  C   UNL     1      -0.580  -0.940  -0.460  1.00  0.00    -0.018 A 
ATOM     24  C   UNL     1      -1.974  -0.938  -0.277  1.00  0.00     0.009 A 
ATOM     25  C   UNL     1       0.061  -2.186  -0.564  1.00  0.00     0.009 A 
ATOM     26  C   UNL     1      -2.705  -2.131  -0.205  1.00  0.00     0.014 A 
ATOM     27  C   UNL     1      -0.662  -3.382  -0.489  1.00  0.00     0.014 A 
ATOM     28  C   UNL     1      -2.048  -3.362  -0.301  1.00  0.00     0.040 A 
BRANCH  28  29
ATOM     29  C   UNL     1      -2.775  -4.666  -0.255  1.00  0.00     0.255 C 
ATOM     30  O   UNL     1      -2.295  -5.614  -0.867  1.00  0.00    -0.269 OA
ATOM     31  N   UNL     1      -3.927  -4.678   0.511  1.00  0.00    -0.322 N 
ATOM     32  H   UNL     1      -4.132  -3.852   1.057  1.00  0.00     0.170 HD
BRANCH  31  33
ATOM     33  C   UNL     1      -4.827  -5.753   0.687  1.00  0.00     0.042 A 
ATOM     34  C   UNL     1      -4.692  -6.995   0.065  1.00  0.00     0.026 A 
ATOM     35  C   UNL     1      -5.923  -5.536   1.533  1.00  0.00     0.038 A 
ATOM     36  C   UNL     1      -5.627  -8.010   0.290  1.00  0.00     0.003 A 
ATOM     37  C   UNL     1      -6.871  -6.545   1.748  1.00  0.00     0.018 A 
ATOM     38  C   UNL     1      -6.716  -7.789   1.133  1.00  0.00     0.012 A 
BRANCH  37  39
ATOM     39  C   UNL     1      -8.034  -6.278   2.632  1.00  0.00     0.128 C 
ATOM     40  N   UNL     1      -8.080  -5.215   3.399  1.00  0.00    -0.266 NA
ATOM     41  N   UNL     1      -9.135  -7.104   2.676  1.00  0.00    -0.368 N 
ATOM     42  C   UNL     1      -9.380  -5.328   4.117  1.00  0.00     0.165 C 
ATOM     43  C   UNL     1     -10.183  -6.402   3.384  1.00  0.00     0.138 C 
ATOM     44  H   UNL     1      -9.407  -7.541   1.803  1.00  0.00     0.162 HD
ENDBRANCH  37  39
ENDBRANCH  31  33
ENDBRANCH  28  29
ENDBRANCH   4  23
TORSDOF 7
