MODEL 1
REMARK VINA RESULT:    -7.662      0.000      0.000
REMARK INTER + INTRA:         -11.641
REMARK INTER:                 -10.673
REMARK INTRA:                  -0.969
REMARK UNBOUND:                -1.515
REMARK  Name = 
REMARK  10 active torsions:
REMARK  status: ('A' for Active; 'I' for Inactive)
REMARK    1  A    between atoms: C_1  and  O_2
REMARK    2  A    between atoms: O_2  and  C_3
REMARK    3  A    between atoms: N_21  and  C_22
REMARK    4  A    between atoms: C_23  and  O_24
REMARK    5  A    between atoms: C_25  and  O_26
REMARK    6  A    between atoms: O_26  and  C_27
REMARK    7  A    between atoms: C_27  and  C_29
REMARK    8  A    between atoms: C_30  and  C_31
REMARK    9  A    between atoms: C_38  and  C_39
REMARK   10  A    between atoms: C_38  and  C_40
REMARK                            x       y       z     vdW  Elec       q    Type
REMARK                         _______ _______ _______ _____ _____    ______ ____
ROOT
ATOM      1  C   UNL     1      17.816  37.424  46.273  0.00  0.00    +0.000 A 
ATOM      2  C   UNL     1      18.247  36.852  47.468  0.00  0.00    +0.000 A 
ATOM      3  C   UNL     1      17.773  37.310  48.701  0.00  0.00    +0.000 A 
ATOM      4  C   UNL     1      16.831  38.344  48.772  0.00  0.00    +0.000 A 
ATOM      5  C   UNL     1      16.368  38.940  47.568  0.00  0.00    +0.000 A 
ATOM      6  C   UNL     1      16.889  38.479  46.328  0.00  0.00    +0.000 A 
ATOM      7  C   UNL     1      16.429  39.163  45.083  0.00  0.00    +0.000 A 
ATOM      8  O   UNL     1      16.490  38.647  43.973  0.00  0.00    +0.000 OA
ATOM      9  C   UNL     1      15.857  40.517  45.206  0.00  0.00    +0.000 A 
ATOM     10  C   UNL     1      15.755  41.347  44.085  0.00  0.00    +0.000 A 
ATOM     11  C   UNL     1      15.207  42.630  44.206  0.00  0.00    +0.000 A 
ATOM     12  C   UNL     1      15.105  43.486  43.099  0.00  0.00    +0.000 A 
ATOM     13  C   UNL     1      14.568  44.766  43.235  0.00  0.00    +0.000 A 
ATOM     14  C   UNL     1      14.128  45.206  44.479  0.00  0.00    +0.000 A 
ATOM     15  C   UNL     1      14.219  44.365  45.590  0.00  0.00    +0.000 A 
ATOM     16  C   UNL     1      14.753  43.072  45.469  0.00  0.00    +0.000 A 
ATOM     17  C   UNL     1      14.848  42.213  46.576  0.00  0.00    +0.000 A 
ATOM     18  C   UNL     1      15.388  40.924  46.456  0.00  0.00    +0.000 A 
ATOM     19  N   UNL     1      15.482  40.055  47.572  0.00  0.00    +0.000 N 
ATOM     20  C   UNL     1      14.162  39.810  48.184  0.00  0.00    +0.000 C 
ATOM     21  C   UNL     1      16.398  38.827  50.134  0.00  0.00    +0.000 C 
ATOM     22  C   UNL     1      17.490  38.549  51.182  0.00  0.00    +0.000 C 
ATOM     23  C   UNL     1      17.962  37.081  51.101  0.00  0.00    +0.000 C 
ATOM     24  C   UNL     1      19.225  36.926  51.971  0.00  0.00    +0.000 C 
ATOM     25  C   UNL     1      16.938  36.045  51.594  0.00  0.00    +0.000 C 
ATOM     26  O   UNL     1      18.362  36.701  49.774  0.00  0.00    +0.000 OA
ENDROOT
BRANCH   1  28
ATOM     27  C   UNL     1      19.640  36.566  44.990  0.00  0.00    +0.000 C 
ATOM     28  O   UNL     1      18.309  37.058  45.051  0.00  0.00    +0.000 OA
ENDBRANCH   1  28
BRANCH  21  29
ATOM     29  O   UNL     1      15.167  38.205  50.525  0.00  0.00    +0.000 OA
ATOM     30  H   UNL     1      15.250  37.924  51.452  0.00  0.00    +0.000 HD
ENDBRANCH  21  29
BRANCH  22  31
ATOM     31  O   UNL     1      17.028  38.833  52.522  0.00  0.00    +0.000 OA
BRANCH  31  32
ATOM     32  C   UNL     1      17.410  40.022  53.042  0.00  0.00    +0.000 C 
ATOM     33  O   UNL     1      18.543  40.326  53.380  0.00  0.00    +0.000 OA
BRANCH  32  34
ATOM     34  C   UNL     1      16.277  40.961  53.170  0.00  0.00    +0.000 C 
ATOM     35  C   UNL     1      16.389  42.296  53.093  0.00  0.00    +0.000 C 
BRANCH  35  36
ATOM     36  C   UNL     1      15.251  43.207  53.273  0.00  0.00    +0.000 A 
ATOM     37  C   UNL     1      15.482  44.589  53.265  0.00  0.00    +0.000 A 
ATOM     38  C   UNL     1      14.423  45.487  53.425  0.00  0.00    +0.000 A 
ATOM     39  C   UNL     1      13.125  45.005  53.580  0.00  0.00    +0.000 A 
ATOM     40 BR   UNL     1      11.694  46.220  53.802  0.00  0.00    +0.000 Br
ATOM     41  C   UNL     1      12.876  43.636  53.570  0.00  0.00    +0.000 A 
ATOM     42  C   UNL     1      13.937  42.739  53.411  0.00  0.00    +0.000 A 
ENDBRANCH  35  36
ENDBRANCH  32  34
ENDBRANCH  31  32
ENDBRANCH  22  31
TORSDOF 6
ENDMDL
MODEL 2
REMARK VINA RESULT:    -7.320      5.247     10.083
REMARK INTER + INTRA:         -11.188
REMARK INTER:                 -10.225
REMARK INTRA:                  -0.963
REMARK UNBOUND:                -1.515
REMARK  Name = 
REMARK  10 active torsions:
REMARK  status: ('A' for Active; 'I' for Inactive)
REMARK    1  A    between atoms: C_1  and  O_2
REMARK    2  A    between atoms: O_2  and  C_3
REMARK    3  A    between atoms: N_21  and  C_22
REMARK    4  A    between atoms: C_23  and  O_24
REMARK    5  A    between atoms: C_25  and  O_26
REMARK    6  A    between atoms: O_26  and  C_27
REMARK    7  A    between atoms: C_27  and  C_29
REMARK    8  A    between atoms: C_30  and  C_31
REMARK    9  A    between atoms: C_38  and  C_39
REMARK   10  A    between atoms: C_38  and  C_40
REMARK                            x       y       z     vdW  Elec       q    Type
REMARK                         _______ _______ _______ _____ _____    ______ ____
ROOT
ATOM      1  C   UNL     1      21.906  33.760  54.648  0.00  0.00    +0.000 A 
ATOM      2  C   UNL     1      20.704  34.312  55.087  0.00  0.00    +0.000 A 
ATOM      3  C   UNL     1      19.826  34.933  54.193  0.00  0.00    +0.000 A 
ATOM      4  C   UNL     1      20.116  34.997  52.825  0.00  0.00    +0.000 A 
ATOM      5  C   UNL     1      21.332  34.434  52.349  0.00  0.00    +0.000 A 
ATOM      6  C   UNL     1      22.224  33.838  53.281  0.00  0.00    +0.000 A 
ATOM      7  C   UNL     1      23.520  33.308  52.763  0.00  0.00    +0.000 A 
ATOM      8  O   UNL     1      24.183  32.463  53.353  0.00  0.00    +0.000 OA
ATOM      9  C   UNL     1      24.009  33.817  51.468  0.00  0.00    +0.000 A 
ATOM     10  C   UNL     1      25.351  33.658  51.106  0.00  0.00    +0.000 A 
ATOM     11  C   UNL     1      25.810  34.139  49.873  0.00  0.00    +0.000 A 
ATOM     12  C   UNL     1      27.153  34.003  49.493  0.00  0.00    +0.000 A 
ATOM     13  C   UNL     1      27.600  34.498  48.267  0.00  0.00    +0.000 A 
ATOM     14  C   UNL     1      26.710  35.134  47.409  0.00  0.00    +0.000 A 
ATOM     15  C   UNL     1      25.369  35.274  47.771  0.00  0.00    +0.000 A 
ATOM     16  C   UNL     1      24.902  34.779  48.999  0.00  0.00    +0.000 A 
ATOM     17  C   UNL     1      23.554  34.908  49.376  0.00  0.00    +0.000 A 
ATOM     18  C   UNL     1      23.091  34.419  50.606  0.00  0.00    +0.000 A 
ATOM     19  N   UNL     1      21.732  34.547  50.987  0.00  0.00    +0.000 N 
ATOM     20  C   UNL     1      20.830  33.907  50.010  0.00  0.00    +0.000 C 
ATOM     21  C   UNL     1      19.152  35.726  51.921  0.00  0.00    +0.000 C 
ATOM     22  C   UNL     1      18.359  36.782  52.710  0.00  0.00    +0.000 C 
ATOM     23  C   UNL     1      17.756  36.166  53.991  0.00  0.00    +0.000 C 
ATOM     24  C   UNL     1      17.209  37.308  54.870  0.00  0.00    +0.000 C 
ATOM     25  C   UNL     1      16.599  35.181  53.751  0.00  0.00    +0.000 C 
ATOM     26  O   UNL     1      18.738  35.497  54.799  0.00  0.00    +0.000 OA
ENDROOT
BRANCH   1  28
ATOM     27  C   UNL     1      23.339  34.026  56.542  0.00  0.00    +0.000 C 
ATOM     28  O   UNL     1      22.827  33.212  55.497  0.00  0.00    +0.000 OA
ENDBRANCH   1  28
BRANCH  21  29
ATOM     29  O   UNL     1      18.255  34.803  51.289  0.00  0.00    +0.000 OA
ATOM     30  H   UNL     1      18.783  34.101  50.875  0.00  0.00    +0.000 HD
ENDBRANCH  21  29
BRANCH  22  31
ATOM     31  O   UNL     1      17.304  37.364  51.912  0.00  0.00    +0.000 OA
BRANCH  31  32
ATOM     32  C   UNL     1      17.476  38.656  51.551  0.00  0.00    +0.000 C 
ATOM     33  O   UNL     1      17.813  39.567  52.289  0.00  0.00    +0.000 OA
BRANCH  32  34
ATOM     34  C   UNL     1      17.204  38.871  50.115  0.00  0.00    +0.000 C 
ATOM     35  C   UNL     1      17.450  37.965  49.155  0.00  0.00    +0.000 C 
BRANCH  35  36
ATOM     36  C   UNL     1      17.214  38.225  47.729  0.00  0.00    +0.000 A 
ATOM     37  C   UNL     1      16.399  39.303  47.362  0.00  0.00    +0.000 A 
ATOM     38  C   UNL     1      16.159  39.586  46.014  0.00  0.00    +0.000 A 
ATOM     39  C   UNL     1      16.746  38.798  45.027  0.00  0.00    +0.000 A 
ATOM     40 BR   UNL     1      16.417  39.177  43.205  0.00  0.00    +0.000 Br
ATOM     41  C   UNL     1      17.576  37.735  45.375  0.00  0.00    +0.000 A 
ATOM     42  C   UNL     1      17.813  37.453  46.723  0.00  0.00    +0.000 A 
ENDBRANCH  35  36
ENDBRANCH  32  34
ENDBRANCH  31  32
ENDBRANCH  22  31
TORSDOF 6
ENDMDL
MODEL 3
REMARK VINA RESULT:    -7.203      5.411     11.136
REMARK INTER + INTRA:         -11.034
REMARK INTER:                  -9.519
REMARK INTRA:                  -1.515
REMARK UNBOUND:                -1.515
REMARK  Name = 
REMARK  10 active torsions:
REMARK  status: ('A' for Active; 'I' for Inactive)
REMARK    1  A    between atoms: C_1  and  O_2
REMARK    2  A    between atoms: O_2  and  C_3
REMARK    3  A    between atoms: N_21  and  C_22
REMARK    4  A    between atoms: C_23  and  O_24
REMARK    5  A    between atoms: C_25  and  O_26
REMARK    6  A    between atoms: O_26  and  C_27
REMARK    7  A    between atoms: C_27  and  C_29
REMARK    8  A    between atoms: C_30  and  C_31
REMARK    9  A    between atoms: C_38  and  C_39
REMARK   10  A    between atoms: C_38  and  C_40
REMARK                            x       y       z     vdW  Elec       q    Type
REMARK                         _______ _______ _______ _____ _____    ______ ____
ROOT
ATOM      1  C   UNL     1      16.327  36.985  56.832  0.00  0.00    +0.000 A 
ATOM      2  C   UNL     1      15.348  37.642  56.088  0.00  0.00    +0.000 A 
ATOM      3  C   UNL     1      15.284  37.505  54.699  0.00  0.00    +0.000 A 
ATOM      4  C   UNL     1      16.187  36.683  54.012  0.00  0.00    +0.000 A 
ATOM      5  C   UNL     1      17.190  35.994  54.748  0.00  0.00    +0.000 A 
ATOM      6  C   UNL     1      17.256  36.175  56.156  0.00  0.00    +0.000 A 
ATOM      7  C   UNL     1      18.355  35.487  56.896  0.00  0.00    +0.000 A 
ATOM      8  O   UNL     1      18.309  35.248  58.096  0.00  0.00    +0.000 OA
ATOM      9  C   UNL     1      19.542  35.060  56.132  0.00  0.00    +0.000 A 
ATOM     10  C   UNL     1      20.738  34.757  56.793  0.00  0.00    +0.000 A 
ATOM     11  C   UNL     1      21.862  34.347  56.064  0.00  0.00    +0.000 A 
ATOM     12  C   UNL     1      23.075  34.051  56.702  0.00  0.00    +0.000 A 
ATOM     13  C   UNL     1      24.190  33.655  55.963  0.00  0.00    +0.000 A 
ATOM     14  C   UNL     1      24.106  33.552  54.579  0.00  0.00    +0.000 A 
ATOM     15  C   UNL     1      22.904  33.841  53.929  0.00  0.00    +0.000 A 
ATOM     16  C   UNL     1      21.771  34.236  54.658  0.00  0.00    +0.000 A 
ATOM     17  C   UNL     1      20.554  34.525  54.019  0.00  0.00    +0.000 A 
ATOM     18  C   UNL     1      19.424  34.927  54.748  0.00  0.00    +0.000 A 
ATOM     19  N   UNL     1      18.195  35.218  54.104  0.00  0.00    +0.000 N 
ATOM     20  C   UNL     1      17.701  34.064  53.329  0.00  0.00    +0.000 C 
ATOM     21  C   UNL     1      16.097  36.618  52.508  0.00  0.00    +0.000 C 
ATOM     22  C   UNL     1      15.463  37.903  51.945  0.00  0.00    +0.000 C 
ATOM     23  C   UNL     1      14.153  38.235  52.690  0.00  0.00    +0.000 C 
ATOM     24  C   UNL     1      13.705  39.653  52.281  0.00  0.00    +0.000 C 
ATOM     25  C   UNL     1      12.982  37.283  52.393  0.00  0.00    +0.000 C 
ATOM     26  O   UNL     1      14.324  38.284  54.116  0.00  0.00    +0.000 OA
ENDROOT
BRANCH   1  28
ATOM     27  C   UNL     1      15.308  37.074  58.992  0.00  0.00    +0.000 C 
ATOM     28  O   UNL     1      16.472  37.150  58.182  0.00  0.00    +0.000 OA
ENDBRANCH   1  28
BRANCH  21  29
ATOM     29  O   UNL     1      15.342  35.472  52.094  0.00  0.00    +0.000 OA
ATOM     30  H   UNL     1      15.294  34.854  52.843  0.00  0.00    +0.000 HD
ENDBRANCH  21  29
BRANCH  22  31
ATOM     31  O   UNL     1      15.198  37.791  50.528  0.00  0.00    +0.000 OA
BRANCH  31  32
ATOM     32  C   UNL     1      16.040  38.463  49.712  0.00  0.00    +0.000 C 
ATOM     33  O   UNL     1      15.737  39.382  48.968  0.00  0.00    +0.000 OA
BRANCH  32  34
ATOM     34  C   UNL     1      17.425  37.957  49.806  0.00  0.00    +0.000 C 
ATOM     35  C   UNL     1      17.793  36.702  49.501  0.00  0.00    +0.000 C 
BRANCH  35  36
ATOM     36  C   UNL     1      19.169  36.212  49.650  0.00  0.00    +0.000 A 
ATOM     37  C   UNL     1      19.877  36.526  50.818  0.00  0.00    +0.000 A 
ATOM     38  C   UNL     1      21.186  36.070  50.999  0.00  0.00    +0.000 A 
ATOM     39  C   UNL     1      21.788  35.286  50.017  0.00  0.00    +0.000 A 
ATOM     40 BR   UNL     1      23.560  34.674  50.260  0.00  0.00    +0.000 Br
ATOM     41  C   UNL     1      21.091  34.948  48.860  0.00  0.00    +0.000 A 
ATOM     42  C   UNL     1      19.782  35.407  48.680  0.00  0.00    +0.000 A 
ENDBRANCH  35  36
ENDBRANCH  32  34
ENDBRANCH  31  32
ENDBRANCH  22  31
TORSDOF 6
ENDMDL
