MODEL 1
REMARK VINA RESULT:      -8.0      0.000      0.000
REMARK SMILES CC(=O)N1CCN(c2ccc(OCC3COC(Cn4ccnc4)(c4ccc(Cl)cc4Cl)O3)cc2)CC1
REMARK SMILES IDX 12 1 11 2 8 3 9 4 34 5 10 6 33 7 7 8 2 9 3 10 4 11 5 12
REMARK SMILES IDX 36 13 6 14 35 15 1 16 13 17 14 18 15 19 32 20 16 21 17 22
REMARK SMILES IDX 18 23 19 24 20 25 23 26 21 27 22 28 24 29 30 30 25 31 29 32
REMARK SMILES IDX 26 33 27 34 31 35 28 36
REMARK H PARENT
ROOT
ATOM      1  O   UNL     1      24.950  23.258  -7.838  1.00  0.00    -0.491 OA
ENDROOT
BRANCH   1   2
ATOM      2  C   UNL     1      25.790  23.942  -8.671  1.00  0.00     0.119 A 
ATOM      3  C   UNL     1      27.595  25.547 -10.174  1.00  0.00     0.037 A 
ATOM      4  C   UNL     1      26.955  24.429 -10.734  1.00  0.00     0.030 A 
ATOM      5  C   UNL     1      27.291  25.848  -8.840  1.00  0.00     0.030 A 
ATOM      6  C   UNL     1      26.066  23.633  -9.997  1.00  0.00     0.048 A 
ATOM      7  C   UNL     1      26.405  25.054  -8.098  1.00  0.00     0.048 A 
BRANCH   3   8
ATOM      8  N   UNL     1      28.464  26.313 -10.966  1.00  0.00    -0.368 N 
ATOM      9  C   UNL     1      31.992  27.941 -11.511  1.00  0.00     0.219 C 
ATOM     10  O   UNL     1      32.880  27.089 -11.521  1.00  0.00    -0.275 OA
ATOM     11  N   UNL     1      30.728  27.714 -12.035  1.00  0.00    -0.339 N 
ATOM     12  C   UNL     1      29.532  28.460 -11.625  1.00  0.00     0.141 C 
ATOM     13  C   UNL     1      30.413  26.365 -12.515  1.00  0.00     0.141 C 
ATOM     14  C   UNL     1      28.775  27.692 -10.518  1.00  0.00     0.138 C 
ATOM     15  C   UNL     1      29.665  25.559 -11.433  1.00  0.00     0.138 C 
ATOM     16  C   UNL     1      32.255  29.304 -10.922  1.00  0.00     0.114 C 
ENDBRANCH   3   8
ENDBRANCH   1   2
BRANCH   1  17
ATOM     17  C   UNL     1      25.380  23.082  -6.490  1.00  0.00     0.264 C 
BRANCH  17  18
ATOM     18  C   UNL     1      24.925  21.711  -6.008  1.00  0.00     0.185 C 
ATOM     19  C   UNL     1      26.000  20.660  -6.076  1.00  0.00     0.200 C 
ATOM     20  O   UNL     1      23.888  21.182  -6.842  1.00  0.00    -0.335 OA
ATOM     21  O   UNL     1      25.245  19.449  -6.062  1.00  0.00    -0.342 OA
ATOM     22  C   UNL     1      24.036  19.738  -6.799  1.00  0.00     0.215 C 
BRANCH  22  23
ATOM     23  C   UNL     1      22.841  19.152  -6.013  1.00  0.00     0.194 C 
BRANCH  23  24
ATOM     24  N   UNL     1      23.214  18.387  -4.840  1.00  0.00    -0.332 N 
ATOM     25  C   UNL     1      23.424  17.037  -4.785  1.00  0.00     0.107 A 
ATOM     26  C   UNL     1      23.453  18.895  -3.595  1.00  0.00     0.199 A 
ATOM     27  C   UNL     1      23.765  16.786  -3.477  1.00  0.00     0.130 A 
ATOM     28  N   UNL     1      23.778  17.946  -2.746  1.00  0.00    -0.245 NA
ENDBRANCH  23  24
ENDBRANCH  22  23
BRANCH  22  29
ATOM     29  C   UNL     1      24.166  19.180  -8.221  1.00  0.00     0.032 A 
ATOM     30  C   UNL     1      23.179  18.381  -8.834  1.00  0.00     0.051 A 
ATOM     31  C   UNL     1      25.309  19.497  -8.990  1.00  0.00     0.012 A 
ATOM     32  C   UNL     1      23.343  17.905 -10.142  1.00  0.00     0.041 A 
ATOM     33  C   UNL     1      25.469  19.024 -10.295  1.00  0.00     0.021 A 
ATOM     34  C   UNL     1      24.487  18.227 -10.863  1.00  0.00     0.042 A 
ATOM     35  Cl  UNL     1      21.698  17.947  -8.053  1.00  0.00    -0.084 Cl
ATOM     36  Cl  UNL     1      24.680  17.642 -12.469  1.00  0.00    -0.084 Cl
ENDBRANCH  22  29
ENDBRANCH  17  18
ENDBRANCH   1  17
TORSDOF 7
ENDMDL
MODEL 2
REMARK VINA RESULT:      -7.6      1.138      1.612
REMARK SMILES CC(=O)N1CCN(c2ccc(OCC3COC(Cn4ccnc4)(c4ccc(Cl)cc4Cl)O3)cc2)CC1
REMARK SMILES IDX 12 1 11 2 8 3 9 4 34 5 10 6 33 7 7 8 2 9 3 10 4 11 5 12
REMARK SMILES IDX 36 13 6 14 35 15 1 16 13 17 14 18 15 19 32 20 16 21 17 22
REMARK SMILES IDX 18 23 19 24 20 25 23 26 21 27 22 28 24 29 30 30 25 31 29 32
REMARK SMILES IDX 26 33 27 34 31 35 28 36
REMARK H PARENT
ROOT
ATOM      1  O   UNL     1      25.077  22.867  -7.662  1.00  0.00    -0.491 OA
ENDROOT
BRANCH   1   2
ATOM      2  C   UNL     1      25.902  23.687  -8.379  1.00  0.00     0.119 A 
ATOM      3  C   UNL     1      27.515  25.259 -10.118  1.00  0.00     0.037 A 
ATOM      4  C   UNL     1      27.537  25.436  -8.724  1.00  0.00     0.030 A 
ATOM      5  C   UNL     1      26.670  24.258 -10.614  1.00  0.00     0.030 A 
ATOM      6  C   UNL     1      26.744  24.665  -7.862  1.00  0.00     0.048 A 
ATOM      7  C   UNL     1      25.872  23.487  -9.758  1.00  0.00     0.048 A 
BRANCH   3   8
ATOM      8  N   UNL     1      28.343  26.052 -10.927  1.00  0.00    -0.368 N 
ATOM      9  C   UNL     1      31.751  27.920 -11.468  1.00  0.00     0.219 C 
ATOM     10  O   UNL     1      32.701  27.139 -11.416  1.00  0.00    -0.275 OA
ATOM     11  N   UNL     1      30.522  27.572 -12.010  1.00  0.00    -0.339 N 
ATOM     12  C   UNL     1      29.263  28.241 -11.664  1.00  0.00     0.141 C 
ATOM     13  C   UNL     1      30.324  26.182 -12.431  1.00  0.00     0.141 C 
ATOM     14  C   UNL     1      28.537  27.470 -10.539  1.00  0.00     0.138 C 
ATOM     15  C   UNL     1      29.610  25.372 -11.328  1.00  0.00     0.138 C 
ATOM     16  C   UNL     1      31.894  29.325 -10.941  1.00  0.00     0.114 C 
ENDBRANCH   3   8
ENDBRANCH   1   2
BRANCH   1  17
ATOM     17  C   UNL     1      25.519  22.483  -6.362  1.00  0.00     0.264 C 
BRANCH  17  18
ATOM     18  C   UNL     1      24.713  21.272  -5.911  1.00  0.00     0.185 C 
ATOM     19  C   UNL     1      25.501  19.989  -5.909  1.00  0.00     0.200 C 
ATOM     20  O   UNL     1      23.634  20.999  -6.811  1.00  0.00    -0.335 OA
ATOM     21  O   UNL     1      24.473  19.000  -5.944  1.00  0.00    -0.342 OA
ATOM     22  C   UNL     1      23.420  19.563  -6.759  1.00  0.00     0.215 C 
BRANCH  22  23
ATOM     23  C   UNL     1      22.071  19.300  -6.053  1.00  0.00     0.194 C 
BRANCH  23  24
ATOM     24  N   UNL     1      22.117  18.263  -5.042  1.00  0.00    -0.332 N 
ATOM     25  C   UNL     1      22.963  17.189  -5.020  1.00  0.00     0.107 A 
ATOM     26  C   UNL     1      21.341  18.203  -3.919  1.00  0.00     0.199 A 
ATOM     27  C   UNL     1      22.636  16.506  -3.872  1.00  0.00     0.130 A 
ATOM     28  N   UNL     1      21.626  17.143  -3.197  1.00  0.00    -0.245 NA
ENDBRANCH  23  24
ENDBRANCH  22  23
BRANCH  22  29
ATOM     29  C   UNL     1      23.500  18.968  -8.169  1.00  0.00     0.032 A 
ATOM     30  C   UNL     1      24.609  19.138  -9.022  1.00  0.00     0.051 A 
ATOM     31  C   UNL     1      22.433  18.174  -8.649  1.00  0.00     0.012 A 
ATOM     32  C   UNL     1      24.635  18.563 -10.300  1.00  0.00     0.041 A 
ATOM     33  C   UNL     1      22.461  17.599  -9.922  1.00  0.00     0.021 A 
ATOM     34  C   UNL     1      23.562  17.799 -10.743  1.00  0.00     0.042 A 
ATOM     35  Cl  UNL     1      26.019  20.033  -8.569  1.00  0.00    -0.084 Cl
ATOM     36  Cl  UNL     1      23.601  17.093 -12.311  1.00  0.00    -0.084 Cl
ENDBRANCH  22  29
ENDBRANCH  17  18
ENDBRANCH   1  17
TORSDOF 7
ENDMDL
MODEL 3
REMARK VINA RESULT:      -7.6     17.785     19.504
REMARK SMILES CC(=O)N1CCN(c2ccc(OCC3COC(Cn4ccnc4)(c4ccc(Cl)cc4Cl)O3)cc2)CC1
REMARK SMILES IDX 12 1 11 2 8 3 9 4 34 5 10 6 33 7 7 8 2 9 3 10 4 11 5 12
REMARK SMILES IDX 36 13 6 14 35 15 1 16 13 17 14 18 15 19 32 20 16 21 17 22
REMARK SMILES IDX 18 23 19 24 20 25 23 26 21 27 22 28 24 29 30 30 25 31 29 32
REMARK SMILES IDX 26 33 27 34 31 35 28 36
REMARK H PARENT
ROOT
ATOM      1  O   UNL     1      21.019  13.228 -24.033  1.00  0.00    -0.491 OA
ENDROOT
BRANCH   1   2
ATOM      2  C   UNL     1      22.344  12.896 -24.076  1.00  0.00     0.119 A 
ATOM      3  C   UNL     1      25.021  11.934 -24.063  1.00  0.00     0.037 A 
ATOM      4  C   UNL     1      24.702  13.232 -24.495  1.00  0.00     0.030 A 
ATOM      5  C   UNL     1      23.959  11.136 -23.621  1.00  0.00     0.030 A 
ATOM      6  C   UNL     1      23.384  13.711 -24.506  1.00  0.00     0.048 A 
ATOM      7  C   UNL     1      22.639  11.607 -23.632  1.00  0.00     0.048 A 
BRANCH   3   8
ATOM      8  N   UNL     1      26.362  11.518 -24.062  1.00  0.00    -0.368 N 
ATOM      9  C   UNL     1      30.065  12.047 -25.245  1.00  0.00     0.219 C 
ATOM     10  O   UNL     1      30.499  13.140 -24.880  1.00  0.00    -0.275 OA
ATOM     11  N   UNL     1      29.192  11.291 -24.477  1.00  0.00    -0.339 N 
ATOM     12  C   UNL     1      28.286  10.280 -25.035  1.00  0.00     0.141 C 
ATOM     13  C   UNL     1      28.683  11.878 -23.234  1.00  0.00     0.141 C 
ATOM     14  C   UNL     1      26.893  10.894 -25.298  1.00  0.00     0.138 C 
ATOM     15  C   UNL     1      27.294  12.514 -23.457  1.00  0.00     0.138 C 
ATOM     16  C   UNL     1      30.487  11.468 -26.572  1.00  0.00     0.114 C 
ENDBRANCH   3   8
ENDBRANCH   1   2
BRANCH   1  17
ATOM     17  C   UNL     1      20.619  14.161 -23.032  1.00  0.00     0.264 C 
BRANCH  17  18
ATOM     18  C   UNL     1      19.548  13.515 -22.163  1.00  0.00     0.185 C 
ATOM     19  C   UNL     1      20.103  12.687 -21.036  1.00  0.00     0.200 C 
ATOM     20  O   UNL     1      18.765  12.578 -22.911  1.00  0.00    -0.335 OA
ATOM     21  O   UNL     1      19.002  11.840 -20.709  1.00  0.00    -0.342 OA
ATOM     22  C   UNL     1      18.340  11.563 -21.963  1.00  0.00     0.215 C 
BRANCH  22  23
ATOM     23  C   UNL     1      16.817  11.710 -21.747  1.00  0.00     0.194 C 
BRANCH  23  24
ATOM     24  N   UNL     1      16.116  12.343 -22.846  1.00  0.00    -0.332 N 
ATOM     25  C   UNL     1      15.796  11.768 -24.043  1.00  0.00     0.107 A 
ATOM     26  C   UNL     1      15.625  13.618 -22.854  1.00  0.00     0.199 A 
ATOM     27  C   UNL     1      15.133  12.749 -24.742  1.00  0.00     0.130 A 
ATOM     28  N   UNL     1      15.033  13.895 -23.995  1.00  0.00    -0.245 NA
ENDBRANCH  23  24
ENDBRANCH  22  23
BRANCH  22  29
ATOM     29  C   UNL     1      18.756  10.173 -22.459  1.00  0.00     0.032 A 
ATOM     30  C   UNL     1      18.593   8.997 -21.699  1.00  0.00     0.051 A 
ATOM     31  C   UNL     1      19.304  10.033 -23.755  1.00  0.00     0.012 A 
ATOM     32  C   UNL     1      18.982   7.749 -22.204  1.00  0.00     0.041 A 
ATOM     33  C   UNL     1      19.687   8.788 -24.258  1.00  0.00     0.021 A 
ATOM     34  C   UNL     1      19.528   7.652 -23.478  1.00  0.00     0.042 A 
ATOM     35  Cl  UNL     1      17.890   8.986 -20.118  1.00  0.00    -0.084 Cl
ATOM     36  Cl  UNL     1      20.000   6.116 -24.094  1.00  0.00    -0.084 Cl
ENDBRANCH  22  29
ENDBRANCH  17  18
ENDBRANCH   1  17
TORSDOF 7
ENDMDL
