MODEL 1
REMARK VINA RESULT:      -7.8      0.000      0.000
REMARK SMILES COc1cc2c[n+](C)c3c4cc5c(cc4ccc3c2cc1OC)OCO5
REMARK SMILES IDX 8 1 7 2 6 3 5 4 4 5 3 6 21 7 20 8 19 9 18 10 9 11 10 12
REMARK SMILES IDX 11 13 12 14 13 15 14 16 15 17 16 18 17 19 24 20 25 21 26 22
REMARK SMILES IDX 2 23 1 24 22 25 23 26
REMARK H PARENT
ROOT
ATOM      1  C   UNL     1      21.480  17.975  -7.570  1.00  0.00     0.440 C 
ATOM      2  N   UNL     1      22.601  18.581  -8.326  1.00  0.00    -0.200 N 
ATOM      3  C   UNL     1      22.877  17.979  -9.506  1.00  0.00     0.317 A 
ATOM      4  C   UNL     1      24.052  18.193 -10.203  1.00  0.00     0.050 A 
ATOM      5  C   UNL     1      24.280  17.519 -11.419  1.00  0.00     0.065 A 
ATOM      6  C   UNL     1      25.474  17.680 -12.120  1.00  0.00     0.161 A 
ATOM      7  C   UNL     1      26.462  18.523 -11.595  1.00  0.00     0.161 A 
ATOM      8  C   UNL     1      26.225  19.192 -10.386  1.00  0.00     0.060 A 
ATOM      9  C   UNL     1      25.013  19.051  -9.654  1.00  0.00     0.005 A 
ATOM     10  C   UNL     1      24.698  19.726  -8.427  1.00  0.00     0.055 A 
ATOM     11  C   UNL     1      23.410  19.567  -7.808  1.00  0.00     0.220 A 
ATOM     12  C   UNL     1      23.036  20.418  -6.692  1.00  0.00     0.058 A 
ATOM     13  C   UNL     1      21.724  20.590  -6.158  1.00  0.00     0.066 A 
ATOM     14  C   UNL     1      21.505  21.396  -5.057  1.00  0.00     0.166 A 
ATOM     15  C   UNL     1      22.518  22.086  -4.460  1.00  0.00     0.166 A 
ATOM     16  C   UNL     1      23.796  22.028  -4.955  1.00  0.00     0.059 A 
ATOM     17  C   UNL     1      24.050  21.224  -6.082  1.00  0.00    -0.008 A 
ATOM     18  C   UNL     1      25.327  21.257  -6.621  1.00  0.00     0.010 A 
ATOM     19  C   UNL     1      25.630  20.561  -7.786  1.00  0.00     0.016 A 
ATOM     20  O   UNL     1      22.096  22.823  -3.403  1.00  0.00    -0.454 OA
ATOM     21  C   UNL     1      20.684  22.523  -3.404  1.00  0.00     0.468 C 
ATOM     22  O   UNL     1      20.303  21.611  -4.461  1.00  0.00    -0.454 OA
ENDROOT
BRANCH   6  23
ATOM     23  O   UNL     1      25.775  17.061 -13.303  1.00  0.00    -0.493 OA
ATOM     24  C   UNL     1      26.461  15.818 -13.265  1.00  0.00     0.278 C 
ENDBRANCH   6  23
BRANCH   7  25
ATOM     25  O   UNL     1      27.611  18.631 -12.333  1.00  0.00    -0.493 OA
ATOM     26  C   UNL     1      27.980  19.908 -12.836  1.00  0.00     0.278 C 
ENDBRANCH   7  25
TORSDOF 2
ENDMDL
MODEL 2
REMARK VINA RESULT:      -7.3      1.521      7.710
REMARK SMILES COc1cc2c[n+](C)c3c4cc5c(cc4ccc3c2cc1OC)OCO5
REMARK SMILES IDX 8 1 7 2 6 3 5 4 4 5 3 6 21 7 20 8 19 9 18 10 9 11 10 12
REMARK SMILES IDX 11 13 12 14 13 15 14 16 15 17 16 18 17 19 24 20 25 21 26 22
REMARK SMILES IDX 2 23 1 24 22 25 23 26
REMARK H PARENT
ROOT
ATOM      1  C   UNL     1      22.354  17.301 -10.285  1.00  0.00     0.440 C 
ATOM      2  N   UNL     1      22.993  18.019  -9.158  1.00  0.00    -0.200 N 
ATOM      3  C   UNL     1      22.304  17.971  -7.994  1.00  0.00     0.317 A 
ATOM      4  C   UNL     1      22.567  18.812  -6.928  1.00  0.00     0.050 A 
ATOM      5  C   UNL     1      21.797  18.716  -5.752  1.00  0.00     0.065 A 
ATOM      6  C   UNL     1      22.009  19.581  -4.680  1.00  0.00     0.161 A 
ATOM      7  C   UNL     1      23.003  20.563  -4.784  1.00  0.00     0.161 A 
ATOM      8  C   UNL     1      23.766  20.648  -5.958  1.00  0.00     0.060 A 
ATOM      9  C   UNL     1      23.574  19.774  -7.064  1.00  0.00     0.005 A 
ATOM     10  C   UNL     1      24.337  19.791  -8.280  1.00  0.00     0.055 A 
ATOM     11  C   UNL     1      24.109  18.811  -9.307  1.00  0.00     0.220 A 
ATOM     12  C   UNL     1      25.028  18.713 -10.428  1.00  0.00     0.058 A 
ATOM     13  C   UNL     1      25.115  17.638 -11.362  1.00  0.00     0.066 A 
ATOM     14  C   UNL     1      26.004  17.686 -12.419  1.00  0.00     0.166 A 
ATOM     15  C   UNL     1      26.857  18.736 -12.592  1.00  0.00     0.166 A 
ATOM     16  C   UNL     1      26.883  19.776 -11.698  1.00  0.00     0.059 A 
ATOM     17  C   UNL     1      25.996  19.752 -10.605  1.00  0.00    -0.008 A 
ATOM     18  C   UNL     1      26.109  20.765  -9.664  1.00  0.00     0.010 A 
ATOM     19  C   UNL     1      25.330  20.759  -8.512  1.00  0.00     0.016 A 
ATOM     20  O   UNL     1      27.652  18.589 -13.681  1.00  0.00    -0.454 OA
ATOM     21  C   UNL     1      27.205  17.309 -14.177  1.00  0.00     0.468 C 
ATOM     22  O   UNL     1      26.152  16.729 -13.371  1.00  0.00    -0.454 OA
ENDROOT
BRANCH   6  23
ATOM     23  O   UNL     1      21.305  19.558  -3.506  1.00  0.00    -0.493 OA
ATOM     24  C   UNL     1      21.292  18.359  -2.745  1.00  0.00     0.278 C 
ENDBRANCH   6  23
BRANCH   7  25
ATOM     25  O   UNL     1      23.154  21.380  -3.695  1.00  0.00    -0.493 OA
ATOM     26  C   UNL     1      24.419  21.428  -3.050  1.00  0.00     0.278 C 
ENDBRANCH   7  25
TORSDOF 2
ENDMDL
MODEL 3
REMARK VINA RESULT:      -7.2     16.383     18.451
REMARK SMILES COc1cc2c[n+](C)c3c4cc5c(cc4ccc3c2cc1OC)OCO5
REMARK SMILES IDX 8 1 7 2 6 3 5 4 4 5 3 6 21 7 20 8 19 9 18 10 9 11 10 12
REMARK SMILES IDX 11 13 12 14 13 15 14 16 15 17 16 18 17 19 24 20 25 21 26 22
REMARK SMILES IDX 2 23 1 24 22 25 23 26
REMARK H PARENT
ROOT
ATOM      1  C   UNL     1      20.817   8.689 -24.192  1.00  0.00     0.440 C 
ATOM      2  N   UNL     1      20.066   9.359 -23.104  1.00  0.00    -0.200 N 
ATOM      3  C   UNL     1      19.183   8.565 -22.455  1.00  0.00     0.317 A 
ATOM      4  C   UNL     1      18.188   9.061 -21.632  1.00  0.00     0.050 A 
ATOM      5  C   UNL     1      17.293   8.176 -21.001  1.00  0.00     0.065 A 
ATOM      6  C   UNL     1      16.252   8.650 -20.204  1.00  0.00     0.161 A 
ATOM      7  C   UNL     1      16.098  10.032 -20.038  1.00  0.00     0.161 A 
ATOM      8  C   UNL     1      16.997  10.905 -20.667  1.00  0.00     0.060 A 
ATOM      9  C   UNL     1      18.071  10.448 -21.481  1.00  0.00     0.005 A 
ATOM     10  C   UNL     1      19.038  11.286 -22.130  1.00  0.00     0.055 A 
ATOM     11  C   UNL     1      20.130  10.714 -22.871  1.00  0.00     0.220 A 
ATOM     12  C   UNL     1      21.210  11.566 -23.336  1.00  0.00     0.058 A 
ATOM     13  C   UNL     1      22.481  11.136 -23.821  1.00  0.00     0.066 A 
ATOM     14  C   UNL     1      23.411  12.048 -24.283  1.00  0.00     0.166 A 
ATOM     15  C   UNL     1      23.173  13.389 -24.260  1.00  0.00     0.166 A 
ATOM     16  C   UNL     1      22.003  13.887 -23.746  1.00  0.00     0.059 A 
ATOM     17  C   UNL     1      21.039  12.985 -23.258  1.00  0.00    -0.008 A 
ATOM     18  C   UNL     1      19.908  13.515 -22.655  1.00  0.00     0.010 A 
ATOM     19  C   UNL     1      18.956  12.688 -22.069  1.00  0.00     0.016 A 
ATOM     20  O   UNL     1      24.211  14.113 -24.749  1.00  0.00    -0.454 OA
ATOM     21  C   UNL     1      25.146  13.065 -25.079  1.00  0.00     0.468 C 
ATOM     22  O   UNL     1      24.638  11.743 -24.782  1.00  0.00    -0.454 OA
ENDROOT
BRANCH   6  23
ATOM     23  O   UNL     1      15.339   7.859 -19.559  1.00  0.00    -0.493 OA
ATOM     24  C   UNL     1      15.476   6.448 -19.651  1.00  0.00     0.278 C 
ENDBRANCH   6  23
BRANCH   7  25
ATOM     25  O   UNL     1      15.053  10.427 -19.245  1.00  0.00    -0.493 OA
ATOM     26  C   UNL     1      14.744  11.812 -19.165  1.00  0.00     0.278 C 
ENDBRANCH   7  25
TORSDOF 2
ENDMDL
