MODEL 1
REMARK VINA RESULT:      -7.2      0.000      0.000
REMARK SMILES CN1C(=O)C(O)N=C(c2ccccc2Cl)c2cc(Cl)ccc21
REMARK SMILES IDX 1 1 2 2 3 3 4 4 5 5 7 6 8 7 16 8 17 9 18 10 19 11 20 12
REMARK SMILES IDX 21 13 22 14 6 15 9 17 10 18 14 19 11 20 13 21 12 22 15 23
REMARK H PARENT 6 16
ROOT
ATOM      1  C   UNL     1      22.055  22.204  -5.908  1.00  0.00     0.153 C 
ATOM      2  N   UNL     1      23.314  21.582  -6.295  1.00  0.00    -0.311 N 
ATOM      3  C   UNL     1      23.777  20.546  -5.473  1.00  0.00     0.278 C 
ATOM      4  O   UNL     1      23.114  20.126  -4.516  1.00  0.00    -0.269 OA
ATOM      5  C   UNL     1      25.198  19.984  -5.738  1.00  0.00     0.323 C 
ATOM      6  N   UNL     1      25.170  19.263  -7.005  1.00  0.00    -0.243 NA
ATOM      7  C   UNL     1      25.082  19.950  -8.089  1.00  0.00     0.079 C 
ATOM      8  C   UNL     1      24.970  21.434  -8.169  1.00  0.00     0.026 A 
ATOM      9  C   UNL     1      25.725  22.078  -9.168  1.00  0.00     0.033 A 
ATOM     10  C   UNL     1      25.581  23.444  -9.383  1.00  0.00     0.041 A 
ATOM     11  Cl  UNL     1      26.501  24.222 -10.610  1.00  0.00    -0.084 Cl
ATOM     12  C   UNL     1      24.687  24.179  -8.617  1.00  0.00     0.023 A 
ATOM     13  C   UNL     1      23.946  23.545  -7.616  1.00  0.00     0.028 A 
ATOM     14  C   UNL     1      24.083  22.166  -7.354  1.00  0.00     0.053 A 
ENDROOT
BRANCH   5  15
ATOM     15  O   UNL     1      26.229  20.945  -5.581  1.00  0.00    -0.364 OA
ATOM     16  H   UNL     1      25.855  21.785  -5.895  1.00  0.00     0.213 HD
ENDBRANCH   5  15
BRANCH   7  17
ATOM     17  C   UNL     1      25.039  19.188  -9.365  1.00  0.00     0.019 A 
ATOM     18  C   UNL     1      26.173  19.230 -10.188  1.00  0.00     0.012 A 
ATOM     19  C   UNL     1      23.906  18.468  -9.759  1.00  0.00     0.050 A 
ATOM     20  C   UNL     1      26.175  18.544 -11.402  1.00  0.00     0.001 A 
ATOM     21  C   UNL     1      23.918  17.783 -10.978  1.00  0.00     0.021 A 
ATOM     22  C   UNL     1      25.049  17.821 -11.796  1.00  0.00     0.002 A 
ATOM     23  Cl  UNL     1      22.499  18.332  -8.770  1.00  0.00    -0.084 Cl
ENDBRANCH   7  17
TORSDOF 2
ENDMDL
MODEL 2
REMARK VINA RESULT:      -7.1      8.365     10.311
REMARK SMILES CN1C(=O)C(O)N=C(c2ccccc2Cl)c2cc(Cl)ccc21
REMARK SMILES IDX 1 1 2 2 3 3 4 4 5 5 7 6 8 7 16 8 17 9 18 10 19 11 20 12
REMARK SMILES IDX 21 13 22 14 6 15 9 17 10 18 14 19 11 20 13 21 12 22 15 23
REMARK H PARENT 6 16
ROOT
ATOM      1  C   UNL     1      31.322  30.015 -10.790  1.00  0.00     0.153 C 
ATOM      2  N   UNL     1      31.183  28.870 -11.681  1.00  0.00    -0.311 N 
ATOM      3  C   UNL     1      31.854  28.951 -12.909  1.00  0.00     0.278 C 
ATOM      4  O   UNL     1      32.590  29.905 -13.189  1.00  0.00    -0.269 OA
ATOM      5  C   UNL     1      31.584  27.843 -13.960  1.00  0.00     0.323 C 
ATOM      6  N   UNL     1      32.171  26.602 -13.471  1.00  0.00    -0.243 NA
ATOM      7  C   UNL     1      31.594  26.009 -12.486  1.00  0.00     0.079 C 
ATOM      8  C   UNL     1      30.384  26.498 -11.766  1.00  0.00     0.026 A 
ATOM      9  C   UNL     1      29.408  25.539 -11.434  1.00  0.00     0.033 A 
ATOM     10  C   UNL     1      28.311  25.896 -10.659  1.00  0.00     0.041 A 
ATOM     11  Cl  UNL     1      27.127  24.718 -10.251  1.00  0.00    -0.084 Cl
ATOM     12  C   UNL     1      28.175  27.200 -10.204  1.00  0.00     0.023 A 
ATOM     13  C   UNL     1      29.135  28.158 -10.542  1.00  0.00     0.028 A 
ATOM     14  C   UNL     1      30.249  27.836 -11.346  1.00  0.00     0.053 A 
ENDROOT
BRANCH   5  15
ATOM     15  O   UNL     1      30.232  27.779 -14.385  1.00  0.00    -0.364 OA
ATOM     16  H   UNL     1      29.817  27.092 -13.837  1.00  0.00     0.213 HD
ENDBRANCH   5  15
BRANCH   7  17
ATOM     17  C   UNL     1      32.224  24.754 -11.996  1.00  0.00     0.019 A 
ATOM     18  C   UNL     1      31.781  23.544 -12.549  1.00  0.00     0.012 A 
ATOM     19  C   UNL     1      33.208  24.758 -11.002  1.00  0.00     0.050 A 
ATOM     20  C   UNL     1      32.331  22.339 -12.112  1.00  0.00     0.001 A 
ATOM     21  C   UNL     1      33.754  23.545 -10.571  1.00  0.00     0.021 A 
ATOM     22  C   UNL     1      33.316  22.340 -11.124  1.00  0.00     0.002 A 
ATOM     23  Cl  UNL     1      33.835  26.214 -10.319  1.00  0.00    -0.084 Cl
ENDBRANCH   7  17
TORSDOF 2
ENDMDL
MODEL 3
REMARK VINA RESULT:      -6.9      2.611      4.782
REMARK SMILES CN1C(=O)C(O)N=C(c2ccccc2Cl)c2cc(Cl)ccc21
REMARK SMILES IDX 1 1 2 2 3 3 4 4 5 5 7 6 8 7 16 8 17 9 18 10 19 11 20 12
REMARK SMILES IDX 21 13 22 14 6 15 9 17 10 18 14 19 11 20 13 21 12 22 15 23
REMARK H PARENT 6 16
ROOT
ATOM      1  C   UNL     1      25.324  22.213  -4.532  1.00  0.00     0.153 C 
ATOM      2  N   UNL     1      24.153  21.532  -5.067  1.00  0.00    -0.311 N 
ATOM      3  C   UNL     1      23.138  22.350  -5.582  1.00  0.00     0.278 C 
ATOM      4  O   UNL     1      23.262  23.579  -5.652  1.00  0.00    -0.269 OA
ATOM      5  C   UNL     1      21.799  21.681  -5.990  1.00  0.00     0.323 C 
ATOM      6  N   UNL     1      22.043  20.865  -7.173  1.00  0.00    -0.243 NA
ATOM      7  C   UNL     1      22.710  19.774  -7.026  1.00  0.00     0.079 C 
ATOM      8  C   UNL     1      23.295  19.279  -5.748  1.00  0.00     0.026 A 
ATOM      9  C   UNL     1      23.173  17.902  -5.482  1.00  0.00     0.033 A 
ATOM     10  C   UNL     1      23.795  17.346  -4.370  1.00  0.00     0.041 A 
ATOM     11  Cl  UNL     1      23.648  15.662  -4.056  1.00  0.00    -0.084 Cl
ATOM     12  C   UNL     1      24.546  18.145  -3.520  1.00  0.00     0.023 A 
ATOM     13  C   UNL     1      24.659  19.516  -3.774  1.00  0.00     0.028 A 
ATOM     14  C   UNL     1      24.021  20.118  -4.878  1.00  0.00     0.053 A 
ENDROOT
BRANCH   5  15
ATOM     15  O   UNL     1      21.127  21.048  -4.912  1.00  0.00    -0.364 OA
ATOM     16  H   UNL     1      20.896  21.761  -4.293  1.00  0.00     0.213 HD
ENDBRANCH   5  15
BRANCH   7  17
ATOM     17  C   UNL     1      22.959  18.970  -8.252  1.00  0.00     0.019 A 
ATOM     18  C   UNL     1      21.995  18.018  -8.614  1.00  0.00     0.012 A 
ATOM     19  C   UNL     1      24.120  19.126  -9.017  1.00  0.00     0.050 A 
ATOM     20  C   UNL     1      22.190  17.229  -9.746  1.00  0.00     0.001 A 
ATOM     21  C   UNL     1      24.306  18.330 -10.152  1.00  0.00     0.021 A 
ATOM     22  C   UNL     1      23.344  17.385 -10.515  1.00  0.00     0.002 A 
ATOM     23  Cl  UNL     1      25.319  20.314  -8.658  1.00  0.00    -0.084 Cl
ENDBRANCH   7  17
TORSDOF 2
ENDMDL
