MODEL 1
REMARK VINA RESULT:      -7.4      0.000      0.000
REMARK SMILES C[C@]12C/C(=C/O)C(=O)C[C@@H]1CC[C@@H]1[C@@H]2CC[C@@]2(C)[C@H]1CC[C@]2(C)O
REMARK SMILES IDX 1 1 2 2 3 3 4 4 5 5 7 6 8 7 9 8 10 9 11 10 12 11 13 12 14 13
REMARK SMILES IDX 15 14 16 15 17 16 18 17 19 18 20 19 21 20 22 21 23 22 6 23
REMARK SMILES IDX 24 25
REMARK H PARENT 6 24 24 26
ROOT
ATOM      1  C   UNL     1      19.068  10.999 -23.899  1.00  0.00     0.012 C 
ATOM      2  C   UNL     1      19.867  11.321 -22.612  1.00  0.00    -0.022 C 
ATOM      3  C   UNL     1      19.587  10.212 -21.559  1.00  0.00     0.050 C 
ATOM      4  C   UNL     1      18.180  10.195 -21.034  1.00  0.00     0.030 C 
ATOM      5  C   UNL     1      17.517   9.053 -20.786  1.00  0.00     0.190 C 
ATOM      6  C   UNL     1      17.495  11.500 -20.797  1.00  0.00     0.162 C 
ATOM      7  O   UNL     1      16.520  11.559 -20.045  1.00  0.00    -0.294 OA
ATOM      8  C   UNL     1      17.941  12.705 -21.595  1.00  0.00     0.085 C 
ATOM      9  C   UNL     1      19.426  12.674 -21.971  1.00  0.00     0.003 C 
ATOM     10  C   UNL     1      19.775  13.885 -22.844  1.00  0.00     0.005 C 
ATOM     11  C   UNL     1      21.267  13.939 -23.155  1.00  0.00     0.004 C 
ATOM     12  C   UNL     1      21.771  12.640 -23.797  1.00  0.00    -0.004 C 
ATOM     13  C   UNL     1      21.412  11.407 -22.910  1.00  0.00    -0.001 C 
ATOM     14  C   UNL     1      22.035  10.094 -23.457  1.00  0.00     0.005 C 
ATOM     15  C   UNL     1      23.539  10.215 -23.766  1.00  0.00     0.010 C 
ATOM     16  C   UNL     1      23.840  11.405 -24.692  1.00  0.00    -0.001 C 
ATOM     17  C   UNL     1      23.208  11.127 -26.087  1.00  0.00     0.015 C 
ATOM     18  C   UNL     1      23.291  12.678 -24.010  1.00  0.00     0.001 C 
ATOM     19  C   UNL     1      23.880  13.810 -24.845  1.00  0.00     0.007 C 
ATOM     20  C   UNL     1      25.265  13.296 -25.276  1.00  0.00     0.036 C 
ATOM     21  C   UNL     1      25.339  11.799 -24.872  1.00  0.00     0.068 C 
ATOM     22  C   UNL     1      26.225  11.624 -23.632  1.00  0.00     0.042 C 
ENDROOT
BRANCH   5  23
ATOM     23  O   UNL     1      16.248   8.948 -20.282  1.00  0.00    -0.515 OA
ATOM     24  H   UNL     1      15.816   8.168 -20.703  1.00  0.00     0.292 HD
ENDBRANCH   5  23
BRANCH  21  25
ATOM     25  O   UNL     1      25.957  11.063 -25.923  1.00  0.00    -0.390 OA
ATOM     26  H   UNL     1      25.255  10.749 -26.519  1.00  0.00     0.211 HD
ENDBRANCH  21  25
TORSDOF 2
ENDMDL
MODEL 2
REMARK VINA RESULT:      -7.2      2.141      7.862
REMARK SMILES C[C@]12C/C(=C/O)C(=O)C[C@@H]1CC[C@@H]1[C@@H]2CC[C@@]2(C)[C@H]1CC[C@]2(C)O
REMARK SMILES IDX 1 1 2 2 3 3 4 4 5 5 7 6 8 7 9 8 10 9 11 10 12 11 13 12 14 13
REMARK SMILES IDX 15 14 16 15 17 16 18 17 19 18 20 19 21 20 22 21 23 22 6 23
REMARK SMILES IDX 24 25
REMARK H PARENT 6 24 24 26
ROOT
ATOM      1  C   UNL     1      24.927  11.990 -26.302  1.00  0.00     0.012 C 
ATOM      2  C   UNL     1      25.154  12.224 -24.788  1.00  0.00    -0.022 C 
ATOM      3  C   UNL     1      26.085  13.457 -24.606  1.00  0.00     0.050 C 
ATOM      4  C   UNL     1      27.493  13.248 -25.085  1.00  0.00     0.030 C 
ATOM      5  C   UNL     1      28.188  14.207 -25.719  1.00  0.00     0.190 C 
ATOM      6  C   UNL     1      28.130  11.918 -24.857  1.00  0.00     0.162 C 
ATOM      7  O   UNL     1      29.358  11.806 -24.887  1.00  0.00    -0.294 OA
ATOM      8  C   UNL     1      27.239  10.703 -24.723  1.00  0.00     0.085 C 
ATOM      9  C   UNL     1      25.870  11.014 -24.109  1.00  0.00     0.003 C 
ATOM     10  C   UNL     1      25.002   9.751 -24.083  1.00  0.00     0.005 C 
ATOM     11  C   UNL     1      23.669  10.001 -23.387  1.00  0.00     0.004 C 
ATOM     12  C   UNL     1      22.904  11.175 -24.010  1.00  0.00    -0.004 C 
ATOM     13  C   UNL     1      23.788  12.462 -24.039  1.00  0.00    -0.001 C 
ATOM     14  C   UNL     1      22.996  13.704 -24.528  1.00  0.00     0.005 C 
ATOM     15  C   UNL     1      21.652  13.895 -23.799  1.00  0.00     0.010 C 
ATOM     16  C   UNL     1      20.788  12.625 -23.848  1.00  0.00    -0.001 C 
ATOM     17  C   UNL     1      20.363  12.365 -25.323  1.00  0.00     0.015 C 
ATOM     18  C   UNL     1      21.613  11.474 -23.234  1.00  0.00     0.001 C 
ATOM     19  C   UNL     1      20.592  10.354 -23.065  1.00  0.00     0.007 C 
ATOM     20  C   UNL     1      19.276  11.077 -22.724  1.00  0.00     0.036 C 
ATOM     21  C   UNL     1      19.525  12.594 -22.932  1.00  0.00     0.068 C 
ATOM     22  C   UNL     1      19.669  13.302 -21.578  1.00  0.00     0.042 C 
ENDROOT
BRANCH   5  23
ATOM     23  O   UNL     1      29.480  14.110 -26.162  1.00  0.00    -0.515 OA
ATOM     24  H   UNL     1      30.068  14.051 -25.374  1.00  0.00     0.292 HD
ENDBRANCH   5  23
BRANCH  21  25
ATOM     25  O   UNL     1      18.391  13.168 -23.575  1.00  0.00    -0.390 OA
ATOM     26  H   UNL     1      17.766  13.447 -22.884  1.00  0.00     0.211 HD
ENDBRANCH  21  25
TORSDOF 2
ENDMDL
MODEL 3
REMARK VINA RESULT:      -7.1      1.227      1.703
REMARK SMILES C[C@]12C/C(=C/O)C(=O)C[C@@H]1CC[C@@H]1[C@@H]2CC[C@@]2(C)[C@H]1CC[C@]2(C)O
REMARK SMILES IDX 1 1 2 2 3 3 4 4 5 5 7 6 8 7 9 8 10 9 11 10 12 11 13 12 14 13
REMARK SMILES IDX 15 14 16 15 17 16 18 17 19 18 20 19 21 20 22 21 23 22 6 23
REMARK SMILES IDX 24 25
REMARK H PARENT 6 24 24 26
ROOT
ATOM      1  C   UNL     1      17.608  10.708 -23.453  1.00  0.00     0.012 C 
ATOM      2  C   UNL     1      18.518  10.641 -22.202  1.00  0.00    -0.022 C 
ATOM      3  C   UNL     1      18.328   9.257 -21.518  1.00  0.00     0.050 C 
ATOM      4  C   UNL     1      16.972   9.048 -20.906  1.00  0.00     0.030 C 
ATOM      5  C   UNL     1      16.330   7.869 -20.964  1.00  0.00     0.190 C 
ATOM      6  C   UNL     1      16.316  10.202 -20.224  1.00  0.00     0.162 C 
ATOM      7  O   UNL     1      15.411  10.007 -19.410  1.00  0.00    -0.294 OA
ATOM      8  C   UNL     1      16.694  11.604 -20.651  1.00  0.00     0.085 C 
ATOM      9  C   UNL     1      18.140  11.724 -21.143  1.00  0.00     0.003 C 
ATOM     10  C   UNL     1      18.415  13.151 -21.630  1.00  0.00     0.005 C 
ATOM     11  C   UNL     1      19.874  13.333 -22.035  1.00  0.00     0.004 C 
ATOM     12  C   UNL     1      20.314  12.304 -23.084  1.00  0.00    -0.004 C 
ATOM     13  C   UNL     1      20.032  10.850 -22.589  1.00  0.00    -0.001 C 
ATOM     14  C   UNL     1      20.599   9.782 -23.562  1.00  0.00     0.005 C 
ATOM     15  C   UNL     1      22.070  10.027 -23.946  1.00  0.00     0.010 C 
ATOM     16  C   UNL     1      22.293  11.449 -24.485  1.00  0.00    -0.001 C 
ATOM     17  C   UNL     1      21.539  11.595 -25.839  1.00  0.00     0.015 C 
ATOM     18  C   UNL     1      21.810  12.440 -23.403  1.00  0.00     0.001 C 
ATOM     19  C   UNL     1      22.327  13.787 -23.899  1.00  0.00     0.007 C 
ATOM     20  C   UNL     1      23.668  13.461 -24.582  1.00  0.00     0.036 C 
ATOM     21  C   UNL     1      23.771  11.915 -24.662  1.00  0.00     0.068 C 
ATOM     22  C   UNL     1      24.763  11.391 -23.616  1.00  0.00     0.042 C 
ENDROOT
BRANCH   5  23
ATOM     23  O   UNL     1      15.110   7.586 -20.410  1.00  0.00    -0.515 OA
ATOM     24  H   UNL     1      15.141   7.839 -19.458  1.00  0.00     0.292 HD
ENDBRANCH   5  23
BRANCH  21  25
ATOM     25  O   UNL     1      24.292  11.549 -25.937  1.00  0.00    -0.390 OA
ATOM     26  H   UNL     1      24.933  10.831 -25.803  1.00  0.00     0.211 HD
ENDBRANCH  21  25
TORSDOF 2
ENDMDL
