MODEL 1
REMARK VINA RESULT:      -6.1      0.000      0.000
REMARK SMILES CCOC(=O)C1(C)CCCN(C(=O)c2c(F)ccc(C)c2F)C1
REMARK SMILES IDX 6 1 7 2 8 3 9 4 10 5 11 6 23 7 4 8 5 9 3 10 2 11 1 12 12 13
REMARK SMILES IDX 13 14 14 15 15 16 21 17 17 18 19 19 18 20 16 21 22 22 20 23
REMARK H PARENT
ROOT
ATOM      1  C   UNL     1      33.719  24.077 -11.472  1.00  0.00     0.083 C 
ATOM      2  C   UNL     1      32.500  23.198 -11.137  1.00  0.00     0.025 C 
ATOM      3  C   UNL     1      34.204  24.751 -10.157  1.00  0.00     0.022 C 
ATOM      4  C   UNL     1      34.665  26.188 -10.393  1.00  0.00     0.023 C 
ATOM      5  C   UNL     1      33.515  27.021 -10.952  1.00  0.00     0.120 C 
ATOM      6  N   UNL     1      32.757  26.320 -11.990  1.00  0.00    -0.337 N 
ATOM      7  C   UNL     1      33.366  25.117 -12.554  1.00  0.00     0.138 C 
ENDROOT
BRANCH   1   8
ATOM      8  C   UNL     1      34.845  23.225 -12.062  1.00  0.00     0.313 C 
ATOM      9  O   UNL     1      35.993  23.620 -12.231  1.00  0.00    -0.252 OA
BRANCH   8  10
ATOM     10  O   UNL     1      34.396  21.993 -12.431  1.00  0.00    -0.466 OA
BRANCH  10  11
ATOM     11  C   UNL     1      34.598  21.628 -13.804  1.00  0.00     0.229 C 
ATOM     12  C   UNL     1      33.267  21.326 -14.466  1.00  0.00     0.049 C 
ENDBRANCH  10  11
ENDBRANCH   8  10
ENDBRANCH   1   8
BRANCH   6  13
ATOM     13  C   UNL     1      31.622  26.847 -12.604  1.00  0.00     0.259 C 
ATOM     14  O   UNL     1      31.532  27.092 -13.804  1.00  0.00    -0.269 OA
BRANCH  13  15
ATOM     15  C   UNL     1      30.449  27.123 -11.776  1.00  0.00     0.111 A 
ATOM     16  C   UNL     1      30.174  28.423 -11.373  1.00  0.00     0.138 A 
ATOM     17  C   UNL     1      29.582  26.091 -11.430  1.00  0.00     0.141 A 
ATOM     18  C   UNL     1      29.043  28.697 -10.608  1.00  0.00     0.040 A 
ATOM     19  C   UNL     1      28.434  26.348 -10.668  1.00  0.00    -0.014 A 
ATOM     20  C   UNL     1      28.175  27.661 -10.251  1.00  0.00     0.009 A 
ATOM     21  F   UNL     1      31.001  29.430 -11.689  1.00  0.00    -0.206 F 
ATOM     22  F   UNL     1      29.850  24.831 -11.804  1.00  0.00    -0.206 F 
ATOM     23  C   UNL     1      27.526  25.221 -10.278  1.00  0.00     0.047 C 
ENDBRANCH  13  15
ENDBRANCH   6  13
TORSDOF 5
ENDMDL
MODEL 2
REMARK VINA RESULT:      -6.0     18.394     20.106
REMARK SMILES CCOC(=O)C1(C)CCCN(C(=O)c2c(F)ccc(C)c2F)C1
REMARK SMILES IDX 6 1 7 2 8 3 9 4 10 5 11 6 23 7 4 8 5 9 3 10 2 11 1 12 12 13
REMARK SMILES IDX 13 14 14 15 15 16 21 17 17 18 19 19 18 20 16 21 22 22 20 23
REMARK H PARENT
ROOT
ATOM      1  C   UNL     1      24.994  13.524 -25.546  1.00  0.00     0.083 C 
ATOM      2  C   UNL     1      24.619  13.469 -27.038  1.00  0.00     0.025 C 
ATOM      3  C   UNL     1      25.804  12.241 -25.204  1.00  0.00     0.022 C 
ATOM      4  C   UNL     1      25.452  11.700 -23.820  1.00  0.00     0.023 C 
ATOM      5  C   UNL     1      23.968  11.349 -23.758  1.00  0.00     0.120 C 
ATOM      6  N   UNL     1      23.117  12.364 -24.381  1.00  0.00    -0.337 N 
ATOM      7  C   UNL     1      23.733  13.658 -24.668  1.00  0.00     0.138 C 
ENDROOT
BRANCH   1   8
ATOM      8  C   UNL     1      25.841  14.765 -25.253  1.00  0.00     0.313 C 
ATOM      9  O   UNL     1      26.513  14.918 -24.241  1.00  0.00    -0.252 OA
BRANCH   8  10
ATOM     10  O   UNL     1      25.706  15.701 -26.233  1.00  0.00    -0.466 OA
BRANCH  10  11
ATOM     11  C   UNL     1      26.923  16.226 -26.782  1.00  0.00     0.229 C 
ATOM     12  C   UNL     1      26.778  17.713 -27.047  1.00  0.00     0.049 C 
ENDBRANCH  10  11
ENDBRANCH   8  10
ENDBRANCH   1   8
BRANCH   6  13
ATOM     13  C   UNL     1      21.735  12.238 -24.508  1.00  0.00     0.259 C 
ATOM     14  O   UNL     1      21.147  12.088 -25.576  1.00  0.00    -0.269 OA
BRANCH  13  15
ATOM     15  C   UNL     1      20.918  12.278 -23.296  1.00  0.00     0.111 A 
ATOM     16  C   UNL     1      20.534  13.499 -22.758  1.00  0.00     0.138 A 
ATOM     17  C   UNL     1      20.487  11.093 -22.708  1.00  0.00     0.141 A 
ATOM     18  C   UNL     1      19.733  13.544 -21.619  1.00  0.00     0.040 A 
ATOM     19  C   UNL     1      19.672  11.117 -21.568  1.00  0.00    -0.014 A 
ATOM     20  C   UNL     1      19.305  12.355 -21.021  1.00  0.00     0.009 A 
ATOM     21  F   UNL     1      20.946  14.652 -23.304  1.00  0.00    -0.206 F 
ATOM     22  F   UNL     1      20.866   9.911 -23.215  1.00  0.00    -0.206 F 
ATOM     23  C   UNL     1      19.240   9.832 -20.928  1.00  0.00     0.047 C 
ENDBRANCH  13  15
ENDBRANCH   6  13
TORSDOF 5
ENDMDL
MODEL 3
REMARK VINA RESULT:      -6.0      8.178     10.895
REMARK SMILES CCOC(=O)C1(C)CCCN(C(=O)c2c(F)ccc(C)c2F)C1
REMARK SMILES IDX 6 1 7 2 8 3 9 4 10 5 11 6 23 7 4 8 5 9 3 10 2 11 1 12 12 13
REMARK SMILES IDX 13 14 14 15 15 16 21 17 17 18 19 19 18 20 16 21 22 22 20 23
REMARK H PARENT
ROOT
ATOM      1  C   UNL     1      24.086  23.520  -7.172  1.00  0.00     0.083 C 
ATOM      2  C   UNL     1      22.699  22.936  -6.850  1.00  0.00     0.025 C 
ATOM      3  C   UNL     1      24.063  24.043  -8.636  1.00  0.00     0.022 C 
ATOM      4  C   UNL     1      25.382  23.771  -9.357  1.00  0.00     0.023 C 
ATOM      5  C   UNL     1      25.656  22.270  -9.397  1.00  0.00     0.120 C 
ATOM      6  N   UNL     1      25.371  21.605  -8.124  1.00  0.00    -0.337 N 
ATOM      7  C   UNL     1      25.190  22.465  -6.956  1.00  0.00     0.138 C 
ENDROOT
BRANCH   1   8
ATOM      8  C   UNL     1      24.417  24.671  -6.217  1.00  0.00     0.313 C 
ATOM      9  O   UNL     1      24.932  24.527  -5.116  1.00  0.00    -0.252 OA
BRANCH   8  10
ATOM     10  O   UNL     1      24.012  25.868  -6.724  1.00  0.00    -0.466 OA
BRANCH  10  11
ATOM     11  C   UNL     1      24.872  26.989  -6.470  1.00  0.00     0.229 C 
ATOM     12  C   UNL     1      26.066  26.952  -7.405  1.00  0.00     0.049 C 
ENDBRANCH  10  11
ENDBRANCH   8  10
ENDBRANCH   1   8
BRANCH   6  13
ATOM     13  C   UNL     1      25.479  20.229  -7.933  1.00  0.00     0.259 C 
ATOM     14  O   UNL     1      26.304  19.693  -7.198  1.00  0.00    -0.269 OA
BRANCH  13  15
ATOM     15  C   UNL     1      24.547  19.353  -8.642  1.00  0.00     0.111 A 
ATOM     16  C   UNL     1      23.302  19.076  -8.095  1.00  0.00     0.138 A 
ATOM     17  C   UNL     1      24.890  18.834  -9.887  1.00  0.00     0.141 A 
ATOM     18  C   UNL     1      22.399  18.264  -8.778  1.00  0.00     0.040 A 
ATOM     19  C   UNL     1      23.992  18.024 -10.595  1.00  0.00    -0.014 A 
ATOM     20  C   UNL     1      22.744  17.735 -10.025  1.00  0.00     0.009 A 
ATOM     21  F   UNL     1      22.956  19.558  -6.893  1.00  0.00    -0.206 F 
ATOM     22  F   UNL     1      26.097  19.088 -10.414  1.00  0.00    -0.206 F 
ATOM     23  C   UNL     1      24.387  17.449 -11.921  1.00  0.00     0.047 C 
ENDBRANCH  13  15
ENDBRANCH   6  13
TORSDOF 5
ENDMDL
