MODEL 1
REMARK VINA RESULT:      -7.8      0.000      0.000
REMARK SMILES O=C(c1ccc(Br)o1)N1CC=C(c2ccccc2)CC1
REMARK SMILES IDX 1 1 2 2 3 3 4 4 8 5 5 6 6 7 7 8 9 9 10 10 20 11 11 12 19 13
REMARK SMILES IDX 12 14 13 15 14 16 18 17 15 18 17 19 16 20
REMARK H PARENT
ROOT
ATOM      1  O   UNL     1      21.232  18.932  -7.028  1.00  0.00    -0.265 OA
ATOM      2  C   UNL     1      22.429  18.643  -7.059  1.00  0.00     0.289 C 
ENDROOT
BRANCH   2   3
ATOM      3  C   UNL     1      23.185  18.388  -5.844  1.00  0.00     0.193 A 
ATOM      4  C   UNL     1      24.056  19.165  -5.098  1.00  0.00     0.057 A 
ATOM      5  O   UNL     1      23.017  17.180  -5.221  1.00  0.00    -0.444 OA
ATOM      6  C   UNL     1      24.454  18.383  -3.986  1.00  0.00     0.059 A 
ATOM      7  C   UNL     1      23.793  17.183  -4.107  1.00  0.00     0.170 A 
ATOM      8  Br  UNL     1      23.928  15.728  -2.891  1.00  0.00    -0.008 Br
ENDBRANCH   2   3
BRANCH   2   9
ATOM      9  N   UNL     1      23.122  18.605  -8.280  1.00  0.00    -0.332 N 
ATOM     10  C   UNL     1      24.203  19.571  -8.424  1.00  0.00     0.147 C 
ATOM     11  C   UNL     1      22.470  18.212  -9.530  1.00  0.00     0.125 C 
ATOM     12  C   UNL     1      25.049  19.280  -9.631  1.00  0.00    -0.002 C 
ATOM     13  C   UNL     1      23.472  17.571 -10.492  1.00  0.00     0.057 C 
ATOM     14  C   UNL     1      24.744  18.377 -10.583  1.00  0.00    -0.041 C 
BRANCH  14  15
ATOM     15  C   UNL     1      25.640  18.135 -11.734  1.00  0.00    -0.023 A 
ATOM     16  C   UNL     1      25.667  16.886 -12.370  1.00  0.00     0.008 A 
ATOM     17  C   UNL     1      26.463  19.155 -12.234  1.00  0.00     0.008 A 
ATOM     18  C   UNL     1      26.501  16.660 -13.469  1.00  0.00     0.001 A 
ATOM     19  C   UNL     1      27.296  18.930 -13.333  1.00  0.00     0.001 A 
ATOM     20  C   UNL     1      27.315  17.682 -13.949  1.00  0.00     0.000 A 
ENDBRANCH  14  15
ENDBRANCH   2   9
TORSDOF 3
ENDMDL
MODEL 2
REMARK VINA RESULT:      -7.8      1.040      1.202
REMARK SMILES O=C(c1ccc(Br)o1)N1CC=C(c2ccccc2)CC1
REMARK SMILES IDX 1 1 2 2 3 3 4 4 8 5 5 6 6 7 7 8 9 9 10 10 20 11 11 12 19 13
REMARK SMILES IDX 12 14 13 15 14 16 18 17 15 18 17 19 16 20
REMARK H PARENT
ROOT
ATOM      1  O   UNL     1      21.321  19.403  -6.980  1.00  0.00    -0.265 OA
ATOM      2  C   UNL     1      22.413  18.838  -7.043  1.00  0.00     0.289 C 
ENDROOT
BRANCH   2   3
ATOM      3  C   UNL     1      23.070  18.312  -5.857  1.00  0.00     0.193 A 
ATOM      4  C   UNL     1      23.080  17.061  -5.264  1.00  0.00     0.057 A 
ATOM      5  O   UNL     1      23.908  19.144  -5.162  1.00  0.00    -0.444 OA
ATOM      6  C   UNL     1      23.942  17.144  -4.143  1.00  0.00     0.059 A 
ATOM      7  C   UNL     1      24.421  18.433  -4.125  1.00  0.00     0.170 A 
ATOM      8  Br  UNL     1      25.638  19.134  -2.843  1.00  0.00    -0.008 Br
ENDBRANCH   2   3
BRANCH   2   9
ATOM      9  N   UNL     1      23.091  18.730  -8.267  1.00  0.00    -0.332 N 
ATOM     10  C   UNL     1      24.176  19.680  -8.475  1.00  0.00     0.147 C 
ATOM     11  C   UNL     1      22.422  18.276  -9.487  1.00  0.00     0.125 C 
ATOM     12  C   UNL     1      25.006  19.319  -9.674  1.00  0.00    -0.002 C 
ATOM     13  C   UNL     1      23.409  17.577 -10.425  1.00  0.00     0.057 C 
ATOM     14  C   UNL     1      24.685  18.370 -10.574  1.00  0.00    -0.041 C 
BRANCH  14  15
ATOM     15  C   UNL     1      25.566  18.061 -11.720  1.00  0.00    -0.023 A 
ATOM     16  C   UNL     1      25.573  16.782 -12.294  1.00  0.00     0.008 A 
ATOM     17  C   UNL     1      26.395  19.046 -12.278  1.00  0.00     0.008 A 
ATOM     18  C   UNL     1      26.392  16.492 -13.388  1.00  0.00     0.001 A 
ATOM     19  C   UNL     1      27.213  18.757 -13.373  1.00  0.00     0.001 A 
ATOM     20  C   UNL     1      27.213  17.480 -13.927  1.00  0.00     0.000 A 
ENDBRANCH  14  15
ENDBRANCH   2   9
TORSDOF 3
ENDMDL
MODEL 3
REMARK VINA RESULT:      -7.8      0.259      1.108
REMARK SMILES O=C(c1ccc(Br)o1)N1CC=C(c2ccccc2)CC1
REMARK SMILES IDX 1 1 2 2 3 3 4 4 8 5 5 6 6 7 7 8 9 9 10 10 20 11 11 12 19 13
REMARK SMILES IDX 12 14 13 15 14 16 18 17 15 18 17 19 16 20
REMARK H PARENT
ROOT
ATOM      1  O   UNL     1      21.197  19.069  -7.203  1.00  0.00    -0.265 OA
ATOM      2  C   UNL     1      22.362  18.671  -7.230  1.00  0.00     0.289 C 
ENDROOT
BRANCH   2   3
ATOM      3  C   UNL     1      23.081  18.328  -6.015  1.00  0.00     0.193 A 
ATOM      4  C   UNL     1      24.090  18.961  -5.308  1.00  0.00     0.057 A 
ATOM      5  O   UNL     1      22.710  17.192  -5.344  1.00  0.00    -0.444 OA
ATOM      6  C   UNL     1      24.361  18.160  -4.171  1.00  0.00     0.059 A 
ATOM      7  C   UNL     1      23.493  17.096  -4.239  1.00  0.00     0.170 A 
ATOM      8  Br  UNL     1      23.387  15.684  -2.970  1.00  0.00    -0.008 Br
ENDBRANCH   2   3
BRANCH   2   9
ATOM      9  N   UNL     1      23.059  18.587  -8.447  1.00  0.00    -0.332 N 
ATOM     10  C   UNL     1      24.136  19.552  -8.626  1.00  0.00     0.147 C 
ATOM     11  C   UNL     1      22.411  18.144  -9.682  1.00  0.00     0.125 C 
ATOM     12  C   UNL     1      24.986  19.217  -9.818  1.00  0.00    -0.002 C 
ATOM     13  C   UNL     1      23.419  17.469 -10.616  1.00  0.00     0.057 C 
ATOM     14  C   UNL     1      24.688  18.277 -10.735  1.00  0.00    -0.041 C 
BRANCH  14  15
ATOM     15  C   UNL     1      25.588  17.993 -11.873  1.00  0.00    -0.023 A 
ATOM     16  C   UNL     1      26.440  18.986 -12.377  1.00  0.00     0.008 A 
ATOM     17  C   UNL     1      25.630  16.719 -12.458  1.00  0.00     0.008 A 
ATOM     18  C   UNL     1      27.304  18.715 -13.442  1.00  0.00     0.001 A 
ATOM     19  C   UNL     1      26.495  16.447 -13.522  1.00  0.00     0.001 A 
ATOM     20  C   UNL     1      27.330  17.445 -14.014  1.00  0.00     0.000 A 
ENDBRANCH  14  15
ENDBRANCH   2   9
TORSDOF 3
ENDMDL
