MODEL 1
REMARK VINA RESULT:      -7.6      0.000      0.000
REMARK SMILES O=C1c2ccc(O)cc2O[C@H](c2ccc(OCCN3CCCCC3)cc2)[C@@H]1c1ccccc1
REMARK SMILES IDX 12 1 13 2 14 3 15 4 25 5 26 6 11 7 1 8 2 9 3 10 27 11 4 12
REMARK SMILES IDX 9 13 5 14 8 15 10 16 6 17 28 18 29 19 33 20 30 21 32 22
REMARK SMILES IDX 31 23 7 24 16 26 17 27 18 28 19 29 20 30 24 31 21 32 23 33
REMARK SMILES IDX 22 34
REMARK H PARENT 7 25
ROOT
ATOM      1  C   UNL     1      21.543  13.155 -24.403  1.00  0.00    -0.006 A 
ATOM      2  C   UNL     1      22.812  13.562 -23.965  1.00  0.00     0.011 A 
ATOM      3  C   UNL     1      23.847  13.781 -24.879  1.00  0.00     0.047 A 
ATOM      4  C   UNL     1      23.638  13.610 -26.247  1.00  0.00     0.119 A 
ATOM      5  C   UNL     1      22.381  13.215 -26.694  1.00  0.00     0.047 A 
ATOM      6  C   UNL     1      21.344  12.990 -25.780  1.00  0.00     0.011 A 
ENDROOT
BRANCH   1   7
ATOM      7  C   UNL     1      20.430  12.918 -23.386  1.00  0.00     0.219 C 
ATOM      8  O   UNL     1      19.628  11.046 -20.448  1.00  0.00    -0.293 OA
ATOM      9  C   UNL     1      19.489  11.564 -21.553  1.00  0.00     0.178 C 
ATOM     10  C   UNL     1      18.193  12.158 -21.941  1.00  0.00     0.061 A 
ATOM     11  C   UNL     1      20.599  11.610 -22.582  1.00  0.00     0.137 C 
ATOM     12  C   UNL     1      17.076  12.019 -21.112  1.00  0.00     0.019 A 
ATOM     13  C   UNL     1      18.090  12.839 -23.154  1.00  0.00     0.134 A 
ATOM     14  C   UNL     1      15.849  12.551 -21.512  1.00  0.00     0.047 A 
ATOM     15  C   UNL     1      16.859  13.353 -23.563  1.00  0.00     0.093 A 
ATOM     16  O   UNL     1      19.138  13.022 -24.014  1.00  0.00    -0.484 OA
ATOM     17  C   UNL     1      15.748  13.207 -22.735  1.00  0.00     0.119 A 
BRANCH  11  18
ATOM     18  C   UNL     1      20.703  10.287 -23.330  1.00  0.00    -0.033 A 
ATOM     19  C   UNL     1      21.953   9.914 -23.859  1.00  0.00     0.004 A 
ATOM     20  C   UNL     1      19.628   9.399 -23.487  1.00  0.00     0.004 A 
ATOM     21  C   UNL     1      22.116   8.710 -24.546  1.00  0.00     0.000 A 
ATOM     22  C   UNL     1      19.791   8.195 -24.177  1.00  0.00     0.000 A 
ATOM     23  C   UNL     1      21.032   7.852 -24.709  1.00  0.00     0.000 A 
ENDBRANCH  11  18
BRANCH  17  24
ATOM     24  O   UNL     1      14.528  13.703 -23.089  1.00  0.00    -0.508 OA
ATOM     25  H   UNL     1      14.422  14.589 -22.705  1.00  0.00     0.293 HD
ENDBRANCH  17  24
ENDBRANCH   1   7
BRANCH   4  26
ATOM     26  O   UNL     1      24.732  13.856 -27.028  1.00  0.00    -0.492 OA
BRANCH  26  27
ATOM     27  C   UNL     1      25.502  12.726 -27.447  1.00  0.00     0.245 C 
BRANCH  27  28
ATOM     28  C   UNL     1      26.773  12.624 -26.581  1.00  0.00     0.126 C 
BRANCH  28  29
ATOM     29  N   UNL     1      26.885  11.384 -25.784  1.00  0.00    -0.300 NA
ATOM     30  C   UNL     1      25.671  10.555 -25.864  1.00  0.00     0.084 C 
ATOM     31  C   UNL     1      27.314  11.665 -24.403  1.00  0.00     0.084 C 
ATOM     32  C   UNL     1      25.630   9.493 -24.766  1.00  0.00     0.016 C 
ATOM     33  C   UNL     1      26.201  11.529 -23.366  1.00  0.00     0.016 C 
ATOM     34  C   UNL     1      25.597  10.127 -23.376  1.00  0.00     0.003 C 
ENDBRANCH  28  29
ENDBRANCH  27  28
ENDBRANCH  26  27
ENDBRANCH   4  26
TORSDOF 7
ENDMDL
MODEL 2
REMARK VINA RESULT:      -7.4      0.166      1.196
REMARK SMILES O=C1c2ccc(O)cc2O[C@H](c2ccc(OCCN3CCCCC3)cc2)[C@@H]1c1ccccc1
REMARK SMILES IDX 12 1 13 2 14 3 15 4 25 5 26 6 11 7 1 8 2 9 3 10 27 11 4 12
REMARK SMILES IDX 9 13 5 14 8 15 10 16 6 17 28 18 29 19 33 20 30 21 32 22
REMARK SMILES IDX 31 23 7 24 16 26 17 27 18 28 19 29 20 30 24 31 21 32 23 33
REMARK SMILES IDX 22 34
REMARK H PARENT 7 25
ROOT
ATOM      1  C   UNL     1      21.531  13.174 -24.306  1.00  0.00    -0.006 A 
ATOM      2  C   UNL     1      21.314  12.985 -25.679  1.00  0.00     0.011 A 
ATOM      3  C   UNL     1      22.343  13.202 -26.601  1.00  0.00     0.047 A 
ATOM      4  C   UNL     1      23.610  13.600 -26.175  1.00  0.00     0.119 A 
ATOM      5  C   UNL     1      23.838  13.783 -24.814  1.00  0.00     0.047 A 
ATOM      6  C   UNL     1      22.809  13.571 -23.890  1.00  0.00     0.011 A 
ENDROOT
BRANCH   1   7
ATOM      7  C   UNL     1      20.392  12.936 -23.319  1.00  0.00     0.219 C 
ATOM      8  O   UNL     1      19.514  11.062 -20.404  1.00  0.00    -0.293 OA
ATOM      9  C   UNL     1      19.404  11.581 -21.511  1.00  0.00     0.178 C 
ATOM     10  C   UNL     1      18.118  12.175 -21.933  1.00  0.00     0.061 A 
ATOM     11  C   UNL     1      20.540  11.627 -22.512  1.00  0.00     0.137 C 
ATOM     12  C   UNL     1      16.979  12.035 -21.133  1.00  0.00     0.019 A 
ATOM     13  C   UNL     1      18.046  12.857 -23.147  1.00  0.00     0.134 A 
ATOM     14  C   UNL     1      15.763  12.567 -21.565  1.00  0.00     0.047 A 
ATOM     15  C   UNL     1      16.826  13.371 -23.588  1.00  0.00     0.093 A 
ATOM     16  O   UNL     1      19.117  13.040 -23.980  1.00  0.00    -0.484 OA
ATOM     17  C   UNL     1      15.694  13.225 -22.789  1.00  0.00     0.119 A 
BRANCH  11  18
ATOM     18  C   UNL     1      20.664  10.305 -23.257  1.00  0.00    -0.033 A 
ATOM     19  C   UNL     1      19.517   9.499 -23.385  1.00  0.00     0.004 A 
ATOM     20  C   UNL     1      21.852   9.864 -23.858  1.00  0.00     0.004 A 
ATOM     21  C   UNL     1      19.564   8.280 -24.066  1.00  0.00     0.000 A 
ATOM     22  C   UNL     1      21.899   8.643 -24.536  1.00  0.00     0.000 A 
ATOM     23  C   UNL     1      20.757   7.850 -24.638  1.00  0.00     0.000 A 
ENDBRANCH  11  18
BRANCH  17  24
ATOM     24  O   UNL     1      14.484  13.721 -23.174  1.00  0.00    -0.508 OA
ATOM     25  H   UNL     1      14.277  13.396 -24.066  1.00  0.00     0.293 HD
ENDBRANCH  17  24
ENDBRANCH   1   7
BRANCH   4  26
ATOM     26  O   UNL     1      24.521  13.776 -27.178  1.00  0.00    -0.492 OA
BRANCH  26  27
ATOM     27  C   UNL     1      25.252  12.623 -27.606  1.00  0.00     0.245 C 
BRANCH  27  28
ATOM     28  C   UNL     1      26.568  12.528 -26.812  1.00  0.00     0.126 C 
BRANCH  28  29
ATOM     29  N   UNL     1      26.705  11.316 -25.976  1.00  0.00    -0.300 NA
ATOM     30  C   UNL     1      25.463  10.527 -25.928  1.00  0.00     0.084 C 
ATOM     31  C   UNL     1      27.250  11.635 -24.645  1.00  0.00     0.084 C 
ATOM     32  C   UNL     1      25.477   9.509 -24.788  1.00  0.00     0.016 C 
ATOM     33  C   UNL     1      26.219  11.576 -23.520  1.00  0.00     0.016 C 
ATOM     34  C   UNL     1      25.573  10.196 -23.426  1.00  0.00     0.003 C 
ENDBRANCH  28  29
ENDBRANCH  27  28
ENDBRANCH  26  27
ENDBRANCH   4  26
TORSDOF 7
ENDMDL
MODEL 3
REMARK VINA RESULT:      -7.1      3.637      8.353
REMARK SMILES O=C1c2ccc(O)cc2O[C@H](c2ccc(OCCN3CCCCC3)cc2)[C@@H]1c1ccccc1
REMARK SMILES IDX 12 1 13 2 14 3 15 4 25 5 26 6 11 7 1 8 2 9 3 10 27 11 4 12
REMARK SMILES IDX 9 13 5 14 8 15 10 16 6 17 28 18 29 19 33 20 30 21 32 22
REMARK SMILES IDX 31 23 7 24 16 26 17 27 18 28 19 29 20 30 24 31 21 32 23 33
REMARK SMILES IDX 22 34
REMARK H PARENT 7 25
ROOT
ATOM      1  C   UNL     1      18.846  10.520 -21.239  1.00  0.00    -0.006 A 
ATOM      2  C   UNL     1      17.637  11.060 -20.776  1.00  0.00     0.011 A 
ATOM      3  C   UNL     1      16.658  10.238 -20.209  1.00  0.00     0.047 A 
ATOM      4  C   UNL     1      16.866   8.865 -20.082  1.00  0.00     0.119 A 
ATOM      5  C   UNL     1      18.065   8.319 -20.531  1.00  0.00     0.047 A 
ATOM      6  C   UNL     1      19.045   9.139 -21.103  1.00  0.00     0.011 A 
ENDROOT
BRANCH   1   7
ATOM      7  C   UNL     1      19.898  11.435 -21.858  1.00  0.00     0.219 C 
ATOM      8  O   UNL     1      20.371  14.727 -23.170  1.00  0.00    -0.293 OA
ATOM      9  C   UNL     1      20.451  13.505 -23.079  1.00  0.00     0.178 C 
ATOM     10  C   UNL     1      21.700  12.809 -23.451  1.00  0.00     0.061 A 
ATOM     11  C   UNL     1      19.297  12.640 -22.616  1.00  0.00     0.137 C 
ATOM     12  C   UNL     1      22.756  13.516 -24.035  1.00  0.00     0.019 A 
ATOM     13  C   UNL     1      21.807  11.435 -23.233  1.00  0.00     0.134 A 
ATOM     14  C   UNL     1      23.913  12.836 -24.417  1.00  0.00     0.047 A 
ATOM     15  C   UNL     1      22.956  10.753 -23.635  1.00  0.00     0.093 A 
ATOM     16  O   UNL     1      20.821  10.677 -22.662  1.00  0.00    -0.484 OA
ATOM     17  C   UNL     1      24.003  11.462 -24.220  1.00  0.00     0.119 A 
BRANCH  11  18
ATOM     18  C   UNL     1      18.314  12.388 -23.751  1.00  0.00    -0.033 A 
ATOM     19  C   UNL     1      17.016  12.921 -23.643  1.00  0.00     0.004 A 
ATOM     20  C   UNL     1      18.644  11.684 -24.919  1.00  0.00     0.004 A 
ATOM     21  C   UNL     1      16.072  12.733 -24.655  1.00  0.00     0.000 A 
ATOM     22  C   UNL     1      17.698  11.494 -25.930  1.00  0.00     0.000 A 
ATOM     23  C   UNL     1      16.413  12.015 -25.797  1.00  0.00     0.000 A 
ENDBRANCH  11  18
BRANCH  17  24
ATOM     24  O   UNL     1      25.149  10.838 -24.617  1.00  0.00    -0.508 OA
ATOM     25  H   UNL     1      24.951   9.909 -24.817  1.00  0.00     0.293 HD
ENDBRANCH  17  24
ENDBRANCH   1   7
BRANCH   4  26
ATOM     26  O   UNL     1      15.830   8.181 -19.512  1.00  0.00    -0.492 OA
BRANCH  26  27
ATOM     27  C   UNL     1      15.401   6.983 -20.167  1.00  0.00     0.245 C 
BRANCH  27  28
ATOM     28  C   UNL     1      14.284   7.321 -21.173  1.00  0.00     0.126 C 
BRANCH  28  29
ATOM     29  N   UNL     1      14.667   7.191 -22.595  1.00  0.00    -0.300 NA
ATOM     30  C   UNL     1      15.940   6.472 -22.768  1.00  0.00     0.084 C 
ATOM     31  C   UNL     1      14.628   8.490 -23.287  1.00  0.00     0.084 C 
ATOM     32  C   UNL     1      16.521   6.667 -24.168  1.00  0.00     0.016 C 
ATOM     33  C   UNL     1      16.005   9.080 -23.582  1.00  0.00     0.016 C 
ATOM     34  C   UNL     1      16.844   8.136 -24.439  1.00  0.00     0.003 C 
ENDBRANCH  28  29
ENDBRANCH  27  28
ENDBRANCH  26  27
ENDBRANCH   4  26
TORSDOF 7
ENDMDL
