MODEL 1
REMARK VINA RESULT:      -6.2      0.000      0.000
REMARK SMILES COC(=O)[C@H](c1ccccc1Cl)N1CCc2sccc2C1
REMARK SMILES IDX 3 1 4 2 2 3 1 4 5 5 6 6 7 7 11 8 8 9 10 10 9 11 12 12 13 13
REMARK SMILES IDX 14 14 21 15 15 16 20 17 16 18 19 19 17 20 18 21
REMARK H PARENT
ROOT
ATOM      1  C   UNL     1      25.177  20.734  -6.308  1.00  0.00     0.327 C 
ATOM      2  O   UNL     1      26.204  20.267  -5.830  1.00  0.00    -0.250 OA
ENDROOT
BRANCH   1   3
ATOM      3  O   UNL     1      24.964  22.075  -6.491  1.00  0.00    -0.468 OA
ATOM      4  C   UNL     1      26.141  22.818  -6.811  1.00  0.00     0.282 C 
ENDBRANCH   1   3
BRANCH   1   5
ATOM      5  C   UNL     1      23.929  19.940  -6.768  1.00  0.00     0.200 C 
BRANCH   5   6
ATOM      6  C   UNL     1      23.319  19.097  -5.648  1.00  0.00    -0.001 A 
ATOM      7  C   UNL     1      23.789  17.789  -5.398  1.00  0.00     0.007 A 
ATOM      8  C   UNL     1      22.255  19.573  -4.859  1.00  0.00     0.046 A 
ATOM      9  C   UNL     1      23.232  17.001  -4.388  1.00  0.00     0.000 A 
ATOM     10  C   UNL     1      21.701  18.777  -3.849  1.00  0.00     0.021 A 
ATOM     11  C   UNL     1      22.190  17.495  -3.612  1.00  0.00     0.002 A 
ATOM     12  Cl  UNL     1      21.570  21.146  -5.079  1.00  0.00    -0.084 Cl
ENDBRANCH   5   6
BRANCH   5  13
ATOM     13  N   UNL     1      24.119  19.165  -8.029  1.00  0.00    -0.282 NA
ATOM     14  C   UNL     1      22.834  18.873  -8.702  1.00  0.00     0.091 C 
ATOM     15  C   UNL     1      25.109  19.743  -8.961  1.00  0.00     0.122 C 
ATOM     16  C   UNL     1      22.982  17.764  -9.768  1.00  0.00     0.062 C 
ATOM     17  C   UNL     1      25.197  18.905 -10.210  1.00  0.00    -0.020 A 
ATOM     18  C   UNL     1      24.206  18.020 -10.583  1.00  0.00     0.010 A 
ATOM     19  C   UNL     1      26.256  18.917 -11.172  1.00  0.00     0.017 A 
ATOM     20  S   UNL     1      24.533  17.219 -12.042  1.00  0.00    -0.149 S 
ATOM     21  C   UNL     1      26.021  18.047 -12.216  1.00  0.00     0.065 A 
ENDBRANCH   5  13
ENDBRANCH   1   5
TORSDOF 4
ENDMDL
MODEL 2
REMARK VINA RESULT:      -6.0      0.852      1.160
REMARK SMILES COC(=O)[C@H](c1ccccc1Cl)N1CCc2sccc2C1
REMARK SMILES IDX 3 1 4 2 2 3 1 4 5 5 6 6 7 7 11 8 8 9 10 10 9 11 12 12 13 13
REMARK SMILES IDX 14 14 21 15 15 16 20 17 16 18 19 19 17 20 18 21
REMARK H PARENT
ROOT
ATOM      1  C   UNL     1      24.345  20.751  -6.258  1.00  0.00     0.327 C 
ATOM      2  O   UNL     1      24.243  21.947  -6.501  1.00  0.00    -0.250 OA
ENDROOT
BRANCH   1   3
ATOM      3  O   UNL     1      25.421  20.192  -5.619  1.00  0.00    -0.468 OA
ATOM      4  C   UNL     1      25.739  20.800  -4.367  1.00  0.00     0.282 C 
ENDBRANCH   1   3
BRANCH   1   5
ATOM      5  C   UNL     1      23.328  19.644  -6.632  1.00  0.00     0.200 C 
BRANCH   5   6
ATOM      6  C   UNL     1      23.053  18.678  -5.479  1.00  0.00    -0.001 A 
ATOM      7  C   UNL     1      23.543  17.354  -5.522  1.00  0.00     0.007 A 
ATOM      8  C   UNL     1      22.282  19.056  -4.364  1.00  0.00     0.046 A 
ATOM      9  C   UNL     1      23.289  16.455  -4.483  1.00  0.00     0.000 A 
ATOM     10  C   UNL     1      22.031  18.149  -3.327  1.00  0.00     0.021 A 
ATOM     11  C   UNL     1      22.535  16.853  -3.385  1.00  0.00     0.002 A 
ATOM     12  Cl  UNL     1      21.604  20.638  -4.201  1.00  0.00    -0.084 Cl
ENDBRANCH   5   6
BRANCH   5  13
ATOM     13  N   UNL     1      23.625  18.938  -7.913  1.00  0.00    -0.282 NA
ATOM     14  C   UNL     1      22.398  18.639  -8.682  1.00  0.00     0.091 C 
ATOM     15  C   UNL     1      24.655  19.590  -8.748  1.00  0.00     0.122 C 
ATOM     16  C   UNL     1      22.652  17.588  -9.786  1.00  0.00     0.062 C 
ATOM     17  C   UNL     1      24.852  18.816 -10.026  1.00  0.00    -0.020 A 
ATOM     18  C   UNL     1      23.917  17.920 -10.505  1.00  0.00     0.010 A 
ATOM     19  C   UNL     1      25.970  18.907 -10.914  1.00  0.00     0.017 A 
ATOM     20  S   UNL     1      24.366  17.201 -11.975  1.00  0.00    -0.149 S 
ATOM     21  C   UNL     1      25.833  18.082 -12.010  1.00  0.00     0.065 A 
ENDBRANCH   5  13
ENDBRANCH   1   5
TORSDOF 4
ENDMDL
MODEL 3
REMARK VINA RESULT:      -5.9      2.106      3.141
REMARK SMILES COC(=O)[C@H](c1ccccc1Cl)N1CCc2sccc2C1
REMARK SMILES IDX 3 1 4 2 2 3 1 4 5 5 6 6 7 7 11 8 8 9 10 10 9 11 12 12 13 13
REMARK SMILES IDX 14 14 21 15 15 16 20 17 16 18 19 19 17 20 18 21
REMARK H PARENT
ROOT
ATOM      1  C   UNL     1      22.163  21.478  -6.664  1.00  0.00     0.327 C 
ATOM      2  O   UNL     1      22.706  22.533  -6.972  1.00  0.00    -0.250 OA
ENDROOT
BRANCH   1   3
ATOM      3  O   UNL     1      20.869  21.388  -6.221  1.00  0.00    -0.468 OA
ATOM      4  C   UNL     1      20.152  22.622  -6.251  1.00  0.00     0.282 C 
ENDBRANCH   1   3
BRANCH   1   5
ATOM      5  C   UNL     1      22.808  20.070  -6.680  1.00  0.00     0.200 C 
BRANCH   5   6
ATOM      6  C   UNL     1      23.788  19.855  -5.526  1.00  0.00    -0.001 A 
ATOM      7  C   UNL     1      24.683  20.878  -5.145  1.00  0.00     0.007 A 
ATOM      8  C   UNL     1      23.858  18.632  -4.833  1.00  0.00     0.046 A 
ATOM      9  C   UNL     1      25.594  20.693  -4.103  1.00  0.00     0.000 A 
ATOM     10  C   UNL     1      24.774  18.452  -3.790  1.00  0.00     0.021 A 
ATOM     11  C   UNL     1      25.638  19.480  -3.423  1.00  0.00     0.002 A 
ATOM     12  Cl  UNL     1      22.836  17.290  -5.216  1.00  0.00    -0.084 Cl
ENDBRANCH   5   6
BRANCH   5  13
ATOM     13  N   UNL     1      23.379  19.666  -7.998  1.00  0.00    -0.282 NA
ATOM     14  C   UNL     1      24.858  19.622  -7.975  1.00  0.00     0.091 C 
ATOM     15  C   UNL     1      22.799  18.431  -8.564  1.00  0.00     0.122 C 
ATOM     16  C   UNL     1      25.454  19.591  -9.400  1.00  0.00     0.062 C 
ATOM     17  C   UNL     1      23.467  18.097  -9.874  1.00  0.00    -0.020 A 
ATOM     18  C   UNL     1      24.695  18.615 -10.235  1.00  0.00     0.010 A 
ATOM     19  C   UNL     1      22.972  17.212 -10.882  1.00  0.00     0.017 A 
ATOM     20  S   UNL     1      25.240  18.062 -11.744  1.00  0.00    -0.149 S 
ATOM     21  C   UNL     1      23.836  17.105 -11.951  1.00  0.00     0.065 A 
ENDBRANCH   5  13
ENDBRANCH   1   5
TORSDOF 4
ENDMDL
