MODEL 1
REMARK VINA RESULT:      -7.0      0.000      0.000
REMARK SMILES O=C(COC(=O)c1ccc2ncsc2c1)Nc1ccc(Cl)cc1
REMARK SMILES IDX 3 1 2 2 1 3 16 4 17 6 18 7 23 8 19 9 22 10 20 11 21 12 4 13
REMARK SMILES IDX 5 14 6 15 7 16 8 17 15 18 9 19 14 20 10 21 13 22 11 23 12 24
REMARK H PARENT 16 5
ROOT
ATOM      1  C   UNL     1      20.988  17.722  -7.725  1.00  0.00     0.333 C 
ENDROOT
BRANCH   1   2
ATOM      2  C   UNL     1      21.917  17.174  -8.816  1.00  0.00     0.262 C 
ATOM      3  O   UNL     1      21.782  16.030  -9.239  1.00  0.00    -0.271 OA
ATOM      4  N   UNL     1      22.818  18.123  -9.274  1.00  0.00    -0.323 N 
ATOM      5  H   UNL     1      22.760  19.030  -8.828  1.00  0.00     0.170 HD
BRANCH   4   6
ATOM      6  C   UNL     1      23.804  17.971 -10.267  1.00  0.00     0.041 A 
ATOM      7  C   UNL     1      23.728  17.043 -11.308  1.00  0.00     0.027 A 
ATOM      8  C   UNL     1      24.925  18.809 -10.187  1.00  0.00     0.027 A 
ATOM      9  C   UNL     1      24.753  16.954 -12.256  1.00  0.00     0.022 A 
ATOM     10  C   UNL     1      25.950  18.722 -11.134  1.00  0.00     0.022 A 
ATOM     11  C   UNL     1      25.859  17.792 -12.167  1.00  0.00     0.041 A 
ATOM     12  Cl  UNL     1      27.119  17.684 -13.333  1.00  0.00    -0.084 Cl
ENDBRANCH   4   6
ENDBRANCH   1   2
BRANCH   1  13
ATOM     13  O   UNL     1      21.262  19.073  -7.338  1.00  0.00    -0.452 OA
BRANCH  13  14
ATOM     14  C   UNL     1      21.916  19.199  -6.154  1.00  0.00     0.338 C 
ATOM     15  O   UNL     1      21.577  18.694  -5.098  1.00  0.00    -0.246 OA
BRANCH  14  16
ATOM     16  C   UNL     1      23.150  20.014  -6.322  1.00  0.00     0.061 A 
ATOM     17  C   UNL     1      24.382  19.376  -6.150  1.00  0.00     0.018 A 
ATOM     18  C   UNL     1      23.098  21.381  -6.641  1.00  0.00     0.037 A 
ATOM     19  C   UNL     1      25.582  20.083  -6.299  1.00  0.00     0.031 A 
ATOM     20  C   UNL     1      24.312  22.078  -6.785  1.00  0.00     0.055 A 
ATOM     21  C   UNL     1      25.552  21.454  -6.622  1.00  0.00     0.081 A 
ATOM     22  S   UNL     1      24.568  23.740  -7.168  1.00  0.00    -0.122 S 
ATOM     23  N   UNL     1      26.654  22.270  -6.799  1.00  0.00    -0.245 NA
ATOM     24  C   UNL     1      26.259  23.488  -7.086  1.00  0.00     0.176 A 
ENDBRANCH  14  16
ENDBRANCH  13  14
ENDBRANCH   1  13
TORSDOF 5
ENDMDL
MODEL 2
REMARK VINA RESULT:      -6.9      3.029      6.016
REMARK SMILES O=C(COC(=O)c1ccc2ncsc2c1)Nc1ccc(Cl)cc1
REMARK SMILES IDX 3 1 2 2 1 3 16 4 17 6 18 7 23 8 19 9 22 10 20 11 21 12 4 13
REMARK SMILES IDX 5 14 6 15 7 16 8 17 15 18 9 19 14 20 10 21 13 22 11 23 12 24
REMARK H PARENT 16 5
ROOT
ATOM      1  C   UNL     1      21.601  17.267  -8.348  1.00  0.00     0.333 C 
ENDROOT
BRANCH   1   2
ATOM      2  C   UNL     1      22.010  18.250  -7.244  1.00  0.00     0.262 C 
ATOM      3  O   UNL     1      21.484  18.203  -6.136  1.00  0.00    -0.271 OA
ATOM      4  N   UNL     1      23.043  19.089  -7.633  1.00  0.00    -0.323 N 
ATOM      5  H   UNL     1      23.376  18.959  -8.580  1.00  0.00     0.170 HD
BRANCH   4   6
ATOM      6  C   UNL     1      23.667  20.099  -6.877  1.00  0.00     0.041 A 
ATOM      7  C   UNL     1      24.992  20.039  -6.438  1.00  0.00     0.027 A 
ATOM      8  C   UNL     1      22.896  21.224  -6.554  1.00  0.00     0.027 A 
ATOM      9  C   UNL     1      25.539  21.087  -5.689  1.00  0.00     0.022 A 
ATOM     10  C   UNL     1      23.441  22.271  -5.806  1.00  0.00     0.022 A 
ATOM     11  C   UNL     1      24.764  22.198  -5.376  1.00  0.00     0.041 A 
ATOM     12  Cl  UNL     1      25.436  23.487  -4.456  1.00  0.00    -0.084 Cl
ENDBRANCH   4   6
ENDBRANCH   1   2
BRANCH   1  13
ATOM     13  O   UNL     1      22.001  17.659  -9.666  1.00  0.00    -0.452 OA
BRANCH  13  14
ATOM     14  C   UNL     1      22.529  16.656 -10.416  1.00  0.00     0.338 C 
ATOM     15  O   UNL     1      22.040  15.551 -10.570  1.00  0.00    -0.246 OA
BRANCH  14  16
ATOM     16  C   UNL     1      23.786  17.103 -11.076  1.00  0.00     0.061 A 
ATOM     17  C   UNL     1      24.330  16.282 -12.069  1.00  0.00     0.018 A 
ATOM     18  C   UNL     1      24.421  18.306 -10.724  1.00  0.00     0.037 A 
ATOM     19  C   UNL     1      25.508  16.646 -12.733  1.00  0.00     0.031 A 
ATOM     20  C   UNL     1      25.605  18.656 -11.400  1.00  0.00     0.055 A 
ATOM     21  C   UNL     1      26.158  17.850 -12.398  1.00  0.00     0.081 A 
ATOM     22  S   UNL     1      26.598  20.051 -11.193  1.00  0.00    -0.122 S 
ATOM     23  N   UNL     1      27.322  18.329 -12.971  1.00  0.00    -0.245 NA
ATOM     24  C   UNL     1      27.647  19.474 -12.417  1.00  0.00     0.176 A 
ENDBRANCH  14  16
ENDBRANCH  13  14
ENDBRANCH   1  13
TORSDOF 5
ENDMDL
MODEL 3
REMARK VINA RESULT:      -6.8      3.457      4.519
REMARK SMILES O=C(COC(=O)c1ccc2ncsc2c1)Nc1ccc(Cl)cc1
REMARK SMILES IDX 3 1 2 2 1 3 16 4 17 6 18 7 23 8 19 9 22 10 20 11 21 12 4 13
REMARK SMILES IDX 5 14 6 15 7 16 8 17 15 18 9 19 14 20 10 21 13 22 11 23 12 24
REMARK H PARENT 16 5
ROOT
ATOM      1  C   UNL     1      25.282  21.995  -8.020  1.00  0.00     0.333 C 
ENDROOT
BRANCH   1   2
ATOM      2  C   UNL     1      25.597  21.287  -9.345  1.00  0.00     0.262 C 
ATOM      3  O   UNL     1      26.106  21.901 -10.278  1.00  0.00    -0.271 OA
ATOM      4  N   UNL     1      25.311  19.932  -9.306  1.00  0.00    -0.323 N 
ATOM      5  H   UNL     1      24.924  19.593  -8.433  1.00  0.00     0.170 HD
BRANCH   4   6
ATOM      6  C   UNL     1      25.481  18.982 -10.330  1.00  0.00     0.041 A 
ATOM      7  C   UNL     1      24.470  18.128 -10.779  1.00  0.00     0.027 A 
ATOM      8  C   UNL     1      26.749  18.901 -10.923  1.00  0.00     0.027 A 
ATOM      9  C   UNL     1      24.721  17.208 -11.804  1.00  0.00     0.022 A 
ATOM     10  C   UNL     1      27.001  17.984 -11.947  1.00  0.00     0.022 A 
ATOM     11  C   UNL     1      25.983  17.140 -12.385  1.00  0.00     0.041 A 
ATOM     12  Cl  UNL     1      26.291  16.011 -13.645  1.00  0.00    -0.084 Cl
ENDBRANCH   4   6
ENDBRANCH   1   2
BRANCH   1  13
ATOM     13  O   UNL     1      26.111  21.593  -6.924  1.00  0.00    -0.452 OA
BRANCH  13  14
ATOM     14  C   UNL     1      25.597  21.871  -5.698  1.00  0.00     0.338 C 
ATOM     15  O   UNL     1      25.363  22.984  -5.260  1.00  0.00    -0.246 OA
BRANCH  14  16
ATOM     16  C   UNL     1      25.306  20.614  -4.956  1.00  0.00     0.061 A 
ATOM     17  C   UNL     1      25.976  20.400  -3.746  1.00  0.00     0.018 A 
ATOM     18  C   UNL     1      24.395  19.661  -5.439  1.00  0.00     0.037 A 
ATOM     19  C   UNL     1      25.745  19.241  -2.995  1.00  0.00     0.031 A 
ATOM     20  C   UNL     1      24.175  18.501  -4.673  1.00  0.00     0.055 A 
ATOM     21  C   UNL     1      24.832  18.275  -3.460  1.00  0.00     0.081 A 
ATOM     22  S   UNL     1      23.130  17.169  -5.000  1.00  0.00    -0.122 S 
ATOM     23  N   UNL     1      24.509  17.091  -2.822  1.00  0.00    -0.245 NA
ATOM     24  C   UNL     1      23.629  16.431  -3.538  1.00  0.00     0.176 A 
ENDBRANCH  14  16
ENDBRANCH  13  14
ENDBRANCH   1  13
TORSDOF 5
ENDMDL
