MODEL 1
REMARK VINA RESULT:      -8.8      0.000      0.000
REMARK SMILES Cc1ccc(NC(=O)CSc2ccccc2NC(=O)c2ccccc2Cl)cc1Cl
REMARK SMILES IDX 10 1 9 2 7 3 6 4 8 5 5 7 2 8 3 9 28 10 4 11 27 12 1 13 29 14
REMARK SMILES IDX 11 15 12 16 16 17 13 18 15 19 14 20 17 21 18 22 19 23 20 25
REMARK SMILES IDX 21 26 25 27 22 28 24 29 23 30 26 31
REMARK H PARENT 6 6 17 24
ROOT
ATOM      1  S   UNL     1      25.435  22.937  -9.012  1.00  0.00    -0.114 SA
ENDROOT
BRANCH   1   2
ATOM      2  C   UNL     1      26.564  24.357  -8.788  1.00  0.00     0.175 C 
BRANCH   2   3
ATOM      3  C   UNL     1      27.235  24.723 -10.103  1.00  0.00     0.234 C 
ATOM      4  N   UNL     1      28.208  25.701  -9.963  1.00  0.00    -0.325 N 
ATOM      5  O   UNL     1      26.896  24.177 -11.149  1.00  0.00    -0.274 OA
ATOM      6  H   UNL     1      28.399  26.020  -9.022  1.00  0.00     0.169 HD
BRANCH   4   7
ATOM      7  C   UNL     1      29.028  26.255 -10.967  1.00  0.00     0.042 A 
ATOM      8  C   UNL     1      30.574  27.531 -12.961  1.00  0.00    -0.032 A 
ATOM      9  C   UNL     1      29.524  28.212 -12.322  1.00  0.00     0.007 A 
ATOM     10  C   UNL     1      30.846  26.210 -12.574  1.00  0.00     0.046 A 
ATOM     11  C   UNL     1      28.761  27.578 -11.339  1.00  0.00     0.026 A 
ATOM     12  C   UNL     1      30.073  25.575 -11.594  1.00  0.00     0.047 A 
ATOM     13  C   UNL     1      31.399  28.250 -13.992  1.00  0.00     0.046 C 
ATOM     14  Cl  UNL     1      32.153  25.321 -13.274  1.00  0.00    -0.084 Cl
ENDBRANCH   4   7
ENDBRANCH   2   3
ENDBRANCH   1   2
BRANCH   1  15
ATOM     15  C   UNL     1      25.539  22.188  -7.382  1.00  0.00     0.031 A 
ATOM     16  C   UNL     1      25.430  23.008  -6.252  1.00  0.00     0.017 A 
ATOM     17  C   UNL     1      25.712  20.794  -7.227  1.00  0.00     0.055 A 
ATOM     18  C   UNL     1      25.535  22.463  -4.973  1.00  0.00     0.001 A 
ATOM     19  C   UNL     1      25.822  20.266  -5.938  1.00  0.00     0.027 A 
ATOM     20  C   UNL     1      25.741  21.097  -4.818  1.00  0.00     0.002 A 
BRANCH  17  21
ATOM     21  N   UNL     1      25.771  19.993  -8.393  1.00  0.00    -0.321 N 
ATOM     22  C   UNL     1      24.743  19.304  -8.999  1.00  0.00     0.257 C 
ATOM     23  O   UNL     1      23.569  19.252  -8.656  1.00  0.00    -0.269 OA
ATOM     24  H   UNL     1      26.675  19.996  -8.861  1.00  0.00     0.170 HD
BRANCH  22  25
ATOM     25  C   UNL     1      25.120  18.639 -10.266  1.00  0.00     0.058 A 
ATOM     26  C   UNL     1      26.378  18.950 -10.799  1.00  0.00     0.015 A 
ATOM     27  C   UNL     1      24.274  17.748 -10.933  1.00  0.00     0.053 A 
ATOM     28  C   UNL     1      26.803  18.355 -11.984  1.00  0.00     0.001 A 
ATOM     29  C   UNL     1      24.699  17.160 -12.126  1.00  0.00     0.021 A 
ATOM     30  C   UNL     1      25.961  17.462 -12.650  1.00  0.00     0.002 A 
ATOM     31  Cl  UNL     1      22.701  17.355 -10.354  1.00  0.00    -0.083 Cl
ENDBRANCH  22  25
ENDBRANCH  17  21
ENDBRANCH   1  15
TORSDOF 6
ENDMDL
MODEL 2
REMARK VINA RESULT:      -8.3      1.071      1.510
REMARK SMILES Cc1ccc(NC(=O)CSc2ccccc2NC(=O)c2ccccc2Cl)cc1Cl
REMARK SMILES IDX 10 1 9 2 7 3 6 4 8 5 5 7 2 8 3 9 28 10 4 11 27 12 1 13 29 14
REMARK SMILES IDX 11 15 12 16 16 17 13 18 15 19 14 20 17 21 18 22 19 23 20 25
REMARK SMILES IDX 21 26 25 27 22 28 24 29 23 30 26 31
REMARK H PARENT 6 6 17 24
ROOT
ATOM      1  S   UNL     1      25.360  22.568  -8.912  1.00  0.00    -0.114 SA
ENDROOT
BRANCH   1   2
ATOM      2  C   UNL     1      26.451  24.014  -8.669  1.00  0.00     0.175 C 
BRANCH   2   3
ATOM      3  C   UNL     1      27.079  24.442  -9.987  1.00  0.00     0.234 C 
ATOM      4  N   UNL     1      28.056  25.413  -9.833  1.00  0.00    -0.325 N 
ATOM      5  O   UNL     1      26.705  23.945 -11.045  1.00  0.00    -0.274 OA
ATOM      6  H   UNL     1      28.278  25.688  -8.885  1.00  0.00     0.169 HD
BRANCH   4   7
ATOM      7  C   UNL     1      28.843  26.014 -10.836  1.00  0.00     0.042 A 
ATOM      8  C   UNL     1      30.318  27.380 -12.825  1.00  0.00    -0.032 A 
ATOM      9  C   UNL     1      29.257  28.013 -12.157  1.00  0.00     0.007 A 
ATOM     10  C   UNL     1      30.638  26.060 -12.470  1.00  0.00     0.046 A 
ATOM     11  C   UNL     1      28.529  27.334 -11.177  1.00  0.00     0.026 A 
ATOM     12  C   UNL     1      29.900  25.381 -11.492  1.00  0.00     0.047 A 
ATOM     13  C   UNL     1      31.105  28.146 -13.852  1.00  0.00     0.046 C 
ATOM     14  Cl  UNL     1      31.962  25.228 -13.207  1.00  0.00    -0.084 Cl
ENDBRANCH   4   7
ENDBRANCH   2   3
ENDBRANCH   1   2
BRANCH   1  15
ATOM     15  C   UNL     1      25.325  21.911  -7.240  1.00  0.00     0.031 A 
ATOM     16  C   UNL     1      25.488  22.793  -6.163  1.00  0.00     0.017 A 
ATOM     17  C   UNL     1      25.124  20.533  -6.998  1.00  0.00     0.055 A 
ATOM     18  C   UNL     1      25.494  22.312  -4.854  1.00  0.00     0.001 A 
ATOM     19  C   UNL     1      25.141  20.069  -5.681  1.00  0.00     0.027 A 
ATOM     20  C   UNL     1      25.333  20.952  -4.616  1.00  0.00     0.002 A 
BRANCH  17  21
ATOM     21  N   UNL     1      24.918  19.682  -8.111  1.00  0.00    -0.321 N 
ATOM     22  C   UNL     1      23.725  19.171  -8.576  1.00  0.00     0.257 C 
ATOM     23  O   UNL     1      22.602  19.357  -8.125  1.00  0.00    -0.269 OA
ATOM     24  H   UNL     1      25.755  19.494  -8.658  1.00  0.00     0.170 HD
BRANCH  22  25
ATOM     25  C   UNL     1      23.845  18.389  -9.826  1.00  0.00     0.058 A 
ATOM     26  C   UNL     1      22.788  17.525 -10.141  1.00  0.00     0.015 A 
ATOM     27  C   UNL     1      24.957  18.477 -10.668  1.00  0.00     0.053 A 
ATOM     28  C   UNL     1      22.829  16.765 -11.308  1.00  0.00     0.001 A 
ATOM     29  C   UNL     1      25.000  17.706 -11.832  1.00  0.00     0.021 A 
ATOM     30  C   UNL     1      23.938  16.853 -12.151  1.00  0.00     0.002 A 
ATOM     31  Cl  UNL     1      26.306  19.488 -10.319  1.00  0.00    -0.083 Cl
ENDBRANCH  22  25
ENDBRANCH  17  21
ENDBRANCH   1  15
TORSDOF 6
ENDMDL
MODEL 3
REMARK VINA RESULT:      -8.1      1.725      1.976
REMARK SMILES Cc1ccc(NC(=O)CSc2ccccc2NC(=O)c2ccccc2Cl)cc1Cl
REMARK SMILES IDX 10 1 9 2 7 3 6 4 8 5 5 7 2 8 3 9 28 10 4 11 27 12 1 13 29 14
REMARK SMILES IDX 11 15 12 16 16 17 13 18 15 19 14 20 17 21 18 22 19 23 20 25
REMARK SMILES IDX 21 26 25 27 22 28 24 29 23 30 26 31
REMARK H PARENT 6 6 17 24
ROOT
ATOM      1  S   UNL     1      26.210  23.947  -9.492  1.00  0.00    -0.114 SA
ENDROOT
BRANCH   1   2
ATOM      2  C   UNL     1      26.937  25.603  -9.234  1.00  0.00     0.175 C 
BRANCH   2   3
ATOM      3  C   UNL     1      28.116  25.826 -10.170  1.00  0.00     0.234 C 
ATOM      4  N   UNL     1      28.424  27.165 -10.346  1.00  0.00    -0.325 N 
ATOM      5  O   UNL     1      28.686  24.871 -10.690  1.00  0.00    -0.274 OA
ATOM      6  H   UNL     1      27.882  27.831  -9.810  1.00  0.00     0.169 HD
BRANCH   4   7
ATOM      7  C   UNL     1      29.460  27.718 -11.126  1.00  0.00     0.042 A 
ATOM      8  C   UNL     1      31.428  28.798 -12.846  1.00  0.00    -0.032 A 
ATOM      9  C   UNL     1      30.222  28.296 -13.362  1.00  0.00     0.007 A 
ATOM     10  C   UNL     1      31.625  28.766 -11.457  1.00  0.00     0.046 A 
ATOM     11  C   UNL     1      29.253  27.762 -12.509  1.00  0.00     0.026 A 
ATOM     12  C   UNL     1      30.654  28.221 -10.607  1.00  0.00     0.047 A 
ATOM     13  C   UNL     1      32.438  29.397 -13.784  1.00  0.00     0.046 C 
ATOM     14  Cl  UNL     1      33.059  29.410 -10.738  1.00  0.00    -0.084 Cl
ENDBRANCH   4   7
ENDBRANCH   2   3
ENDBRANCH   1   2
BRANCH   1  15
ATOM     15  C   UNL     1      25.511  23.648  -7.864  1.00  0.00     0.031 A 
ATOM     16  C   UNL     1      25.496  24.695  -6.932  1.00  0.00     0.017 A 
ATOM     17  C   UNL     1      24.969  22.390  -7.519  1.00  0.00     0.055 A 
ATOM     18  C   UNL     1      24.987  24.489  -5.651  1.00  0.00     0.001 A 
ATOM     19  C   UNL     1      24.471  22.200  -6.227  1.00  0.00     0.027 A 
ATOM     20  C   UNL     1      24.487  23.241  -5.297  1.00  0.00     0.002 A 
BRANCH  17  21
ATOM     21  N   UNL     1      24.962  21.372  -8.503  1.00  0.00    -0.321 N 
ATOM     22  C   UNL     1      25.480  20.098  -8.407  1.00  0.00     0.257 C 
ATOM     23  O   UNL     1      26.043  19.587  -7.448  1.00  0.00    -0.269 OA
ATOM     24  H   UNL     1      24.448  21.607  -9.349  1.00  0.00     0.170 HD
BRANCH  22  25
ATOM     25  C   UNL     1      25.219  19.245  -9.587  1.00  0.00     0.058 A 
ATOM     26  C   UNL     1      26.214  19.197 -10.572  1.00  0.00     0.015 A 
ATOM     27  C   UNL     1      24.034  18.519  -9.747  1.00  0.00     0.053 A 
ATOM     28  C   UNL     1      26.039  18.407 -11.706  1.00  0.00     0.001 A 
ATOM     29  C   UNL     1      23.858  17.736 -10.890  1.00  0.00     0.021 A 
ATOM     30  C   UNL     1      24.859  17.679 -11.866  1.00  0.00     0.002 A 
ATOM     31  Cl  UNL     1      22.756  18.567  -8.595  1.00  0.00    -0.083 Cl
ENDBRANCH  22  25
ENDBRANCH  17  21
ENDBRANCH   1  15
TORSDOF 6
ENDMDL
