MODEL 1
REMARK VINA RESULT:      -8.6      0.000      0.000
REMARK SMILES Cc1cc(C)cc(-c2[nH]c3ccccc3c2CCNCCCCc2cnc3ccccc3c2)c1
REMARK SMILES IDX 19 1 18 3 17 4 16 5 8 6 9 7 10 8 15 9 11 10 14 11 12 12
REMARK SMILES IDX 13 13 7 15 2 16 3 17 34 18 4 19 6 20 1 21 5 22 20 23 21 24
REMARK SMILES IDX 22 25 23 26 24 27 25 28 33 29 26 30 32 31 27 32 31 33 28 34
REMARK SMILES IDX 30 35 29 36
REMARK H PARENT 19 2 9 14
ROOT
ATOM      1  N   UNL     1      26.496  21.261  -6.443  1.00  0.00    -0.316 NA
ATOM      2  H   UNL     1      27.507  21.387  -6.505  1.00  0.00     0.122 HD
ENDROOT
BRANCH   1   3
ATOM      3  C   UNL     1      26.118  20.075  -7.225  1.00  0.00     0.086 C 
BRANCH   3   4
ATOM      4  C   UNL     1      25.468  20.390  -8.582  1.00  0.00     0.053 C 
BRANCH   4   5
ATOM      5  C   UNL     1      24.428  19.377  -8.966  1.00  0.00    -0.013 A 
ATOM      6  C   UNL     1      23.265  19.068  -8.270  1.00  0.00     0.050 A 
ATOM      7  N   UNL     1      22.602  18.102  -8.990  1.00  0.00    -0.354 N 
ATOM      8  C   UNL     1      23.297  17.772 -10.127  1.00  0.00     0.046 A 
ATOM      9  C   UNL     1      24.447  18.558 -10.144  1.00  0.00     0.003 A 
ATOM     10  C   UNL     1      22.994  16.844 -11.131  1.00  0.00     0.027 A 
ATOM     11  C   UNL     1      25.343  18.411 -11.224  1.00  0.00     0.010 A 
ATOM     12  C   UNL     1      23.899  16.716 -12.187  1.00  0.00     0.002 A 
ATOM     13  C   UNL     1      25.057  17.488 -12.237  1.00  0.00     0.001 A 
ATOM     14  H   UNL     1      21.728  17.681  -8.710  1.00  0.00     0.167 HD
BRANCH   6  15
ATOM     15  C   UNL     1      22.730  19.576  -7.011  1.00  0.00    -0.001 A 
ATOM     16  C   UNL     1      21.932  21.432  -5.656  1.00  0.00    -0.050 A 
ATOM     17  C   UNL     1      21.742  20.554  -4.580  1.00  0.00     0.006 A 
ATOM     18  C   UNL     1      22.429  20.934  -6.867  1.00  0.00     0.013 A 
ATOM     19  C   UNL     1      22.051  19.193  -4.703  1.00  0.00    -0.050 A 
ATOM     20  C   UNL     1      22.540  18.711  -5.925  1.00  0.00     0.013 A 
ATOM     21  C   UNL     1      21.620  22.894  -5.524  1.00  0.00     0.044 C 
ATOM     22  C   UNL     1      21.832  18.246  -3.559  1.00  0.00     0.044 C 
ENDBRANCH   6  15
ENDBRANCH   4   5
ENDBRANCH   3   4
ENDBRANCH   1   3
BRANCH   1  23
ATOM     23  C   UNL     1      25.835  22.500  -6.852  1.00  0.00     0.081 C 
BRANCH  23  24
ATOM     24  C   UNL     1      26.624  23.782  -6.558  1.00  0.00     0.016 C 
BRANCH  24  25
ATOM     25  C   UNL     1      27.616  24.210  -7.645  1.00  0.00     0.006 C 
BRANCH  25  26
ATOM     26  C   UNL     1      26.959  24.505  -8.996  1.00  0.00     0.037 C 
BRANCH  26  27
ATOM     27  C   UNL     1      27.663  25.621  -9.717  1.00  0.00    -0.029 A 
ATOM     28  C   UNL     1      27.390  26.949  -9.418  1.00  0.00     0.115 A 
ATOM     29  C   UNL     1      28.587  25.373 -10.731  1.00  0.00     0.015 A 
ATOM     30  N   UNL     1      27.967  28.005 -10.036  1.00  0.00    -0.256 NA
ATOM     31  C   UNL     1      29.204  26.442 -11.397  1.00  0.00     0.000 A 
ATOM     32  C   UNL     1      28.857  27.755 -11.010  1.00  0.00     0.070 A 
ATOM     33  C   UNL     1      30.141  26.234 -12.426  1.00  0.00     0.010 A 
ATOM     34  C   UNL     1      29.464  28.816 -11.670  1.00  0.00     0.029 A 
ATOM     35  C   UNL     1      30.733  27.317 -13.071  1.00  0.00     0.001 A 
ATOM     36  C   UNL     1      30.394  28.612 -12.694  1.00  0.00     0.002 A 
ENDBRANCH  26  27
ENDBRANCH  25  26
ENDBRANCH  24  25
ENDBRANCH  23  24
ENDBRANCH   1  23
TORSDOF 9
ENDMDL
MODEL 2
REMARK VINA RESULT:      -8.5      1.163      2.172
REMARK SMILES Cc1cc(C)cc(-c2[nH]c3ccccc3c2CCNCCCCc2cnc3ccccc3c2)c1
REMARK SMILES IDX 19 1 18 3 17 4 16 5 8 6 9 7 10 8 15 9 11 10 14 11 12 12
REMARK SMILES IDX 13 13 7 15 2 16 3 17 34 18 4 19 6 20 1 21 5 22 20 23 21 24
REMARK SMILES IDX 22 25 23 26 24 27 25 28 33 29 26 30 32 31 27 32 31 33 28 34
REMARK SMILES IDX 30 35 29 36
REMARK H PARENT 19 2 9 14
ROOT
ATOM      1  N   UNL     1      25.943  22.255  -9.771  1.00  0.00    -0.316 NA
ATOM      2  H   UNL     1      25.438  21.824 -10.546  1.00  0.00     0.122 HD
ENDROOT
BRANCH   1   3
ATOM      3  C   UNL     1      25.355  21.791  -8.506  1.00  0.00     0.086 C 
BRANCH   3   4
ATOM      4  C   UNL     1      25.618  20.311  -8.189  1.00  0.00     0.053 C 
BRANCH   4   5
ATOM      5  C   UNL     1      24.492  19.423  -8.633  1.00  0.00    -0.013 A 
ATOM      6  C   UNL     1      23.295  19.191  -7.965  1.00  0.00     0.050 A 
ATOM      7  N   UNL     1      22.553  18.331  -8.740  1.00  0.00    -0.354 N 
ATOM      8  C   UNL     1      23.228  17.995  -9.887  1.00  0.00     0.046 A 
ATOM      9  C   UNL     1      24.448  18.667  -9.852  1.00  0.00     0.003 A 
ATOM     10  C   UNL     1      22.852  17.153 -10.940  1.00  0.00     0.027 A 
ATOM     11  C   UNL     1      25.340  18.491 -10.932  1.00  0.00     0.010 A 
ATOM     12  C   UNL     1      23.755  16.992 -11.994  1.00  0.00     0.002 A 
ATOM     13  C   UNL     1      24.981  17.652 -11.994  1.00  0.00     0.001 A 
ATOM     14  H   UNL     1      21.639  17.981  -8.490  1.00  0.00     0.167 HD
BRANCH   6  15
ATOM     15  C   UNL     1      22.794  19.682  -6.685  1.00  0.00    -0.001 A 
ATOM     16  C   UNL     1      22.659  19.494  -4.263  1.00  0.00    -0.050 A 
ATOM     17  C   UNL     1      21.800  20.602  -4.234  1.00  0.00     0.006 A 
ATOM     18  C   UNL     1      23.150  19.041  -5.495  1.00  0.00     0.013 A 
ATOM     19  C   UNL     1      21.424  21.248  -5.419  1.00  0.00    -0.050 A 
ATOM     20  C   UNL     1      21.931  20.784  -6.641  1.00  0.00     0.013 A 
ATOM     21  C   UNL     1      23.051  18.788  -2.999  1.00  0.00     0.044 C 
ATOM     22  C   UNL     1      20.519  22.445  -5.389  1.00  0.00     0.044 C 
ENDBRANCH   6  15
ENDBRANCH   4   5
ENDBRANCH   3   4
ENDBRANCH   1   3
BRANCH   1  23
ATOM     23  C   UNL     1      25.942  23.707  -9.950  1.00  0.00     0.081 C 
BRANCH  23  24
ATOM     24  C   UNL     1      26.559  24.502  -8.793  1.00  0.00     0.016 C 
BRANCH  24  25
ATOM     25  C   UNL     1      27.585  25.566  -9.197  1.00  0.00     0.006 C 
BRANCH  25  26
ATOM     26  C   UNL     1      27.875  25.601 -10.699  1.00  0.00     0.037 C 
BRANCH  26  27
ATOM     27  C   UNL     1      28.828  26.711 -11.048  1.00  0.00    -0.029 A 
ATOM     28  C   UNL     1      28.733  27.954 -10.438  1.00  0.00     0.115 A 
ATOM     29  C   UNL     1      29.820  26.551 -12.016  1.00  0.00     0.015 A 
ATOM     30  N   UNL     1      29.539  29.004 -10.714  1.00  0.00    -0.256 NA
ATOM     31  C   UNL     1      30.674  27.618 -12.331  1.00  0.00     0.000 A 
ATOM     32  C   UNL     1      30.492  28.839 -11.646  1.00  0.00     0.070 A 
ATOM     33  C   UNL     1      31.685  27.496 -13.302  1.00  0.00     0.010 A 
ATOM     34  C   UNL     1      31.334  29.898 -11.958  1.00  0.00     0.029 A 
ATOM     35  C   UNL     1      32.515  28.577 -13.595  1.00  0.00     0.001 A 
ATOM     36  C   UNL     1      32.339  29.781 -12.923  1.00  0.00     0.002 A 
ENDBRANCH  26  27
ENDBRANCH  25  26
ENDBRANCH  24  25
ENDBRANCH  23  24
ENDBRANCH   1  23
TORSDOF 9
ENDMDL
MODEL 3
REMARK VINA RESULT:      -8.4      3.869      6.923
REMARK SMILES Cc1cc(C)cc(-c2[nH]c3ccccc3c2CCNCCCCc2cnc3ccccc3c2)c1
REMARK SMILES IDX 19 1 18 3 17 4 16 5 8 6 9 7 10 8 15 9 11 10 14 11 12 12
REMARK SMILES IDX 13 13 7 15 2 16 3 17 34 18 4 19 6 20 1 21 5 22 20 23 21 24
REMARK SMILES IDX 22 25 23 26 24 27 25 28 33 29 26 30 32 31 27 32 31 33 28 34
REMARK SMILES IDX 30 35 29 36
REMARK H PARENT 19 2 9 14
ROOT
ATOM      1  N   UNL     1      21.932  19.597  -5.856  1.00  0.00    -0.316 NA
ATOM      2  H   UNL     1      22.494  19.919  -5.067  1.00  0.00     0.122 HD
ENDROOT
BRANCH   1   3
ATOM      3  C   UNL     1      22.752  18.705  -6.689  1.00  0.00     0.086 C 
BRANCH   3   4
ATOM      4  C   UNL     1      24.264  18.812  -6.436  1.00  0.00     0.053 C 
BRANCH   4   5
ATOM      5  C   UNL     1      24.857  20.054  -7.038  1.00  0.00    -0.013 A 
ATOM      6  C   UNL     1      25.194  20.258  -8.370  1.00  0.00     0.050 A 
ATOM      7  N   UNL     1      25.684  21.538  -8.477  1.00  0.00    -0.354 N 
ATOM      8  C   UNL     1      25.680  22.171  -7.258  1.00  0.00     0.046 A 
ATOM      9  C   UNL     1      25.162  21.266  -6.333  1.00  0.00     0.003 A 
ATOM     10  C   UNL     1      26.092  23.462  -6.911  1.00  0.00     0.027 A 
ATOM     11  C   UNL     1      25.047  21.677  -4.988  1.00  0.00     0.010 A 
ATOM     12  C   UNL     1      25.971  23.843  -5.573  1.00  0.00     0.002 A 
ATOM     13  C   UNL     1      25.455  22.965  -4.622  1.00  0.00     0.001 A 
ATOM     14  H   UNL     1      26.019  21.953  -9.335  1.00  0.00     0.167 HD
BRANCH   6  15
ATOM     15  C   UNL     1      25.113  19.379  -9.532  1.00  0.00    -0.001 A 
ATOM     16  C   UNL     1      23.931  17.677 -10.808  1.00  0.00    -0.050 A 
ATOM     17  C   UNL     1      24.977  17.663 -11.741  1.00  0.00     0.006 A 
ATOM     18  C   UNL     1      24.009  18.538  -9.705  1.00  0.00     0.013 A 
ATOM     19  C   UNL     1      26.096  18.490 -11.576  1.00  0.00    -0.050 A 
ATOM     20  C   UNL     1      26.153  19.350 -10.470  1.00  0.00     0.013 A 
ATOM     21  C   UNL     1      22.739  16.781 -10.971  1.00  0.00     0.044 C 
ATOM     22  C   UNL     1      27.209  18.490 -12.582  1.00  0.00     0.044 C 
ENDBRANCH   6  15
ENDBRANCH   4   5
ENDBRANCH   3   4
ENDBRANCH   1   3
BRANCH   1  23
ATOM     23  C   UNL     1      21.385  20.758  -6.558  1.00  0.00     0.081 C 
BRANCH  23  24
ATOM     24  C   UNL     1      21.663  22.109  -5.888  1.00  0.00     0.016 C 
BRANCH  24  25
ATOM     25  C   UNL     1      22.197  23.207  -6.815  1.00  0.00     0.006 C 
BRANCH  25  26
ATOM     26  C   UNL     1      22.403  24.553  -6.116  1.00  0.00     0.037 C 
BRANCH  26  27
ATOM     27  C   UNL     1      22.172  25.702  -7.059  1.00  0.00    -0.029 A 
ATOM     28  C   UNL     1      22.651  26.972  -6.768  1.00  0.00     0.115 A 
ATOM     29  C   UNL     1      21.445  25.550  -8.239  1.00  0.00     0.015 A 
ATOM     30  N   UNL     1      22.467  28.057  -7.556  1.00  0.00    -0.256 NA
ATOM     31  C   UNL     1      21.230  26.651  -9.080  1.00  0.00     0.000 A 
ATOM     32  C   UNL     1      21.766  27.898  -8.691  1.00  0.00     0.070 A 
ATOM     33  C   UNL     1      20.501  26.539 -10.278  1.00  0.00     0.010 A 
ATOM     34  C   UNL     1      21.553  28.992  -9.520  1.00  0.00     0.029 A 
ATOM     35  C   UNL     1      20.302  27.653 -11.090  1.00  0.00     0.001 A 
ATOM     36  C   UNL     1      20.827  28.883 -10.710  1.00  0.00     0.002 A 
ENDBRANCH  26  27
ENDBRANCH  25  26
ENDBRANCH  24  25
ENDBRANCH  23  24
ENDBRANCH   1  23
TORSDOF 9
ENDMDL
