MODEL 1
REMARK VINA RESULT:      -7.9      0.000      0.000
REMARK SMILES O=C1CN=C(c2ccccc2Cl)c2cc([N+](=O)[O-])ccc2N1
REMARK SMILES IDX 1 1 2 2 3 3 4 4 5 5 13 6 14 7 15 8 19 9 20 10 21 11 22 12
REMARK SMILES IDX 6 14 7 15 11 16 8 17 10 18 9 19 12 20 16 21 17 22 18 23
REMARK H PARENT 22 13
ROOT
ATOM      1  O   UNL     1      21.300  18.286  -6.928  1.00  0.00    -0.273 OA
ATOM      2  C   UNL     1      22.406  18.450  -7.444  1.00  0.00     0.246 C 
ATOM      3  C   UNL     1      23.677  18.593  -6.627  1.00  0.00     0.243 C 
ATOM      4  N   UNL     1      24.292  19.895  -6.847  1.00  0.00    -0.274 NA
ATOM      5  C   UNL     1      24.799  20.176  -7.999  1.00  0.00     0.076 C 
ATOM      6  C   UNL     1      24.821  19.262  -9.182  1.00  0.00     0.031 A 
ATOM      7  C   UNL     1      25.970  19.263  -9.993  1.00  0.00     0.098 A 
ATOM      8  C   UNL     1      25.966  18.573 -11.212  1.00  0.00     0.270 A 
ATOM      9  C   UNL     1      24.824  17.887 -11.634  1.00  0.00     0.088 A 
ATOM     10  C   UNL     1      23.692  17.869 -10.815  1.00  0.00     0.034 A 
ATOM     11  C   UNL     1      23.693  18.519  -9.571  1.00  0.00     0.051 A 
ATOM     12  N   UNL     1      22.524  18.385  -8.807  1.00  0.00    -0.324 N 
ATOM     13  H   UNL     1      21.671  18.073  -9.255  1.00  0.00     0.170 HD
ENDROOT
BRANCH   5  14
ATOM     14  C   UNL     1      25.424  21.527  -8.129  1.00  0.00     0.019 A 
ATOM     15  C   UNL     1      25.370  22.134  -9.393  1.00  0.00     0.012 A 
ATOM     16  C   UNL     1      26.063  22.186  -7.069  1.00  0.00     0.050 A 
ATOM     17  C   UNL     1      25.916  23.403  -9.589  1.00  0.00     0.001 A 
ATOM     18  C   UNL     1      26.606  23.458  -7.273  1.00  0.00     0.021 A 
ATOM     19  C   UNL     1      26.528  24.067  -8.527  1.00  0.00     0.002 A 
ATOM     20  Cl  UNL     1      26.255  21.484  -5.502  1.00  0.00    -0.084 Cl
ENDBRANCH   5  14
BRANCH   8  21
ATOM     21  N   UNL     1      27.163  18.590 -12.062  1.00  0.00     0.062 N 
ATOM     22  O   UNL     1      27.471  17.539 -12.642  1.00  0.00    -0.258 OA
ATOM     23  O   UNL     1      27.792  19.652 -12.146  1.00  0.00    -0.258 OA
ENDBRANCH   8  21
TORSDOF 2
ENDMDL
MODEL 2
REMARK VINA RESULT:      -7.7      1.897      2.287
REMARK SMILES O=C1CN=C(c2ccccc2Cl)c2cc([N+](=O)[O-])ccc2N1
REMARK SMILES IDX 1 1 2 2 3 3 4 4 5 5 13 6 14 7 15 8 19 9 20 10 21 11 22 12
REMARK SMILES IDX 6 14 7 15 11 16 8 17 10 18 9 19 12 20 16 21 17 22 18 23
REMARK H PARENT 22 13
ROOT
ATOM      1  O   UNL     1      20.667  17.889  -4.516  1.00  0.00    -0.273 OA
ATOM      2  C   UNL     1      21.596  18.115  -5.293  1.00  0.00     0.246 C 
ATOM      3  C   UNL     1      23.026  18.307  -4.825  1.00  0.00     0.243 C 
ATOM      4  N   UNL     1      23.508  19.640  -5.160  1.00  0.00    -0.274 NA
ATOM      5  C   UNL     1      23.689  19.963  -6.395  1.00  0.00     0.076 C 
ATOM      6  C   UNL     1      23.446  19.069  -7.568  1.00  0.00     0.031 A 
ATOM      7  C   UNL     1      24.346  19.139  -8.646  1.00  0.00     0.098 A 
ATOM      8  C   UNL     1      24.060  18.468  -9.842  1.00  0.00     0.270 A 
ATOM      9  C   UNL     1      22.878  17.734  -9.977  1.00  0.00     0.088 A 
ATOM     10  C   UNL     1      21.996  17.649  -8.896  1.00  0.00     0.034 A 
ATOM     11  C   UNL     1      22.288  18.278  -7.676  1.00  0.00     0.051 A 
ATOM     12  N   UNL     1      21.362  18.077  -6.642  1.00  0.00    -0.324 N 
ATOM     13  H   UNL     1      20.437  17.731  -6.865  1.00  0.00     0.170 HD
ENDROOT
BRANCH   5  14
ATOM     14  C   UNL     1      24.202  21.344  -6.643  1.00  0.00     0.019 A 
ATOM     15  C   UNL     1      23.248  22.338  -6.912  1.00  0.00     0.012 A 
ATOM     16  C   UNL     1      25.565  21.673  -6.636  1.00  0.00     0.050 A 
ATOM     17  C   UNL     1      23.648  23.656  -7.136  1.00  0.00     0.001 A 
ATOM     18  C   UNL     1      25.958  22.997  -6.860  1.00  0.00     0.021 A 
ATOM     19  C   UNL     1      25.002  23.986  -7.104  1.00  0.00     0.002 A 
ATOM     20  Cl  UNL     1      26.815  20.505  -6.400  1.00  0.00    -0.084 Cl
ENDBRANCH   5  14
BRANCH   8  21
ATOM     21  N   UNL     1      24.996  18.556 -10.970  1.00  0.00     0.062 N 
ATOM     22  O   UNL     1      24.717  17.925 -11.999  1.00  0.00    -0.258 OA
ATOM     23  O   UNL     1      26.008  19.253 -10.822  1.00  0.00    -0.258 OA
ENDBRANCH   8  21
TORSDOF 2
ENDMDL
MODEL 3
REMARK VINA RESULT:      -7.6      1.247      1.428
REMARK SMILES O=C1CN=C(c2ccccc2Cl)c2cc([N+](=O)[O-])ccc2N1
REMARK SMILES IDX 1 1 2 2 3 3 4 4 5 5 13 6 14 7 15 8 19 9 20 10 21 11 22 12
REMARK SMILES IDX 6 14 7 15 11 16 8 17 10 18 9 19 12 20 16 21 17 22 18 23
REMARK H PARENT 22 13
ROOT
ATOM      1  O   UNL     1      20.837  17.694  -6.321  1.00  0.00    -0.273 OA
ATOM      2  C   UNL     1      21.922  18.027  -6.799  1.00  0.00     0.246 C 
ATOM      3  C   UNL     1      23.164  18.227  -5.950  1.00  0.00     0.243 C 
ATOM      4  N   UNL     1      23.634  19.603  -6.033  1.00  0.00    -0.274 NA
ATOM      5  C   UNL     1      24.114  20.049  -7.144  1.00  0.00     0.076 C 
ATOM      6  C   UNL     1      24.244  19.262  -8.408  1.00  0.00     0.031 A 
ATOM      7  C   UNL     1      25.392  19.468  -9.196  1.00  0.00     0.098 A 
ATOM      8  C   UNL     1      25.472  18.903 -10.475  1.00  0.00     0.270 A 
ATOM      9  C   UNL     1      24.415  18.141 -10.981  1.00  0.00     0.088 A 
ATOM     10  C   UNL     1      23.287  17.920 -10.187  1.00  0.00     0.034 A 
ATOM     11  C   UNL     1      23.207  18.442  -8.886  1.00  0.00     0.051 A 
ATOM     12  N   UNL     1      22.056  18.108  -8.160  1.00  0.00    -0.324 N 
ATOM     13  H   UNL     1      21.245  17.751  -8.650  1.00  0.00     0.170 HD
ENDROOT
BRANCH   5  14
ATOM     14  C   UNL     1      24.588  21.466  -7.132  1.00  0.00     0.019 A 
ATOM     15  C   UNL     1      23.687  22.441  -7.587  1.00  0.00     0.012 A 
ATOM     16  C   UNL     1      25.870  21.846  -6.713  1.00  0.00     0.050 A 
ATOM     17  C   UNL     1      24.051  23.789  -7.589  1.00  0.00     0.001 A 
ATOM     18  C   UNL     1      26.226  23.198  -6.716  1.00  0.00     0.021 A 
ATOM     19  C   UNL     1      25.318  24.167  -7.148  1.00  0.00     0.002 A 
ATOM     20  Cl  UNL     1      27.075  20.711  -6.218  1.00  0.00    -0.084 Cl
ENDBRANCH   5  14
BRANCH   8  21
ATOM     21  N   UNL     1      26.666  19.133 -11.299  1.00  0.00     0.062 N 
ATOM     22  O   UNL     1      26.934  20.302 -11.609  1.00  0.00    -0.258 OA
ATOM     23  O   UNL     1      27.329  18.144 -11.637  1.00  0.00    -0.258 OA
ENDBRANCH   8  21
TORSDOF 2
ENDMDL
