MODEL 1
REMARK VINA RESULT:      -6.4      0.000      0.000
REMARK SMILES CCOC(=O)C1(c2ccccc2)CCN(CCC(C#N)(c2ccccc2)c2ccccc2)CC1
REMARK SMILES IDX 6 1 13 2 14 3 15 4 33 5 34 6 4 7 5 8 3 9 2 10 1 11 7 12 8 13
REMARK SMILES IDX 12 14 9 15 11 16 10 17 16 18 17 19 18 20 19 21 20 22 21 23
REMARK SMILES IDX 22 24 26 25 23 26 25 27 24 28 27 29 28 30 32 31 29 32 31 33
REMARK SMILES IDX 30 34
REMARK H PARENT
ROOT
ATOM      1  C   UNL     1      21.397  12.240 -23.788  1.00  0.00     0.095 C 
ATOM      2  C   UNL     1      20.617  11.129 -23.020  1.00  0.00     0.039 C 
ATOM      3  C   UNL     1      20.349  11.508 -21.564  1.00  0.00     0.086 C 
ATOM      4  N   UNL     1      19.526  12.716 -21.427  1.00  0.00    -0.303 NA
ATOM      5  C   UNL     1      19.709  13.672 -22.532  1.00  0.00     0.086 C 
ATOM      6  C   UNL     1      21.121  13.615 -23.114  1.00  0.00     0.039 C 
ENDROOT
BRANCH   1   7
ATOM      7  C   UNL     1      20.842  12.145 -25.232  1.00  0.00     0.316 C 
ATOM      8  O   UNL     1      20.364  13.095 -25.845  1.00  0.00    -0.251 OA
BRANCH   7   9
ATOM      9  O   UNL     1      20.945  10.889 -25.750  1.00  0.00    -0.465 OA
BRANCH   9  10
ATOM     10  C   UNL     1      21.402  10.837 -27.106  1.00  0.00     0.229 C 
ATOM     11  C   UNL     1      22.852  10.394 -27.093  1.00  0.00     0.049 C 
ENDBRANCH   9  10
ENDBRANCH   7   9
ENDBRANCH   1   7
BRANCH   1  12
ATOM     12  C   UNL     1      22.931  12.065 -23.830  1.00  0.00    -0.031 A 
ATOM     13  C   UNL     1      23.801  13.039 -24.346  1.00  0.00     0.005 A 
ATOM     14  C   UNL     1      23.502  10.857 -23.378  1.00  0.00     0.005 A 
ATOM     15  C   UNL     1      25.183  12.827 -24.383  1.00  0.00     0.000 A 
ATOM     16  C   UNL     1      24.882  10.647 -23.417  1.00  0.00     0.000 A 
ATOM     17  C   UNL     1      25.724  11.634 -23.916  1.00  0.00     0.000 A 
ENDBRANCH   1  12
BRANCH   4  18
ATOM     18  C   UNL     1      18.095  12.443 -21.209  1.00  0.00     0.087 C 
BRANCH  18  19
ATOM     19  C   UNL     1      17.235  12.935 -22.389  1.00  0.00     0.047 C 
BRANCH  19  20
ATOM     20  C   UNL     1      16.253  11.874 -23.007  1.00  0.00     0.108 C 
ATOM     21  C   UNL     1      15.893  10.957 -21.868  1.00  0.00     0.079 C 
ATOM     22  N   UNL     1      15.615  10.267 -20.974  1.00  0.00    -0.197 NA
BRANCH  20  23
ATOM     23  C   UNL     1      14.991  12.636 -23.514  1.00  0.00    -0.023 A 
ATOM     24  C   UNL     1      13.851  11.943 -23.974  1.00  0.00     0.006 A 
ATOM     25  C   UNL     1      14.975  14.042 -23.604  1.00  0.00     0.006 A 
ATOM     26  C   UNL     1      12.736  12.627 -24.466  1.00  0.00     0.000 A 
ATOM     27  C   UNL     1      13.858  14.723 -24.097  1.00  0.00     0.000 A 
ATOM     28  C   UNL     1      12.739  14.016 -24.524  1.00  0.00     0.000 A 
ENDBRANCH  20  23
BRANCH  20  29
ATOM     29  C   UNL     1      16.881  10.956 -24.094  1.00  0.00    -0.023 A 
ATOM     30  C   UNL     1      17.067  11.352 -25.429  1.00  0.00     0.006 A 
ATOM     31  C   UNL     1      17.348   9.672 -23.731  1.00  0.00     0.006 A 
ATOM     32  C   UNL     1      17.656  10.495 -26.365  1.00  0.00     0.000 A 
ATOM     33  C   UNL     1      17.935   8.816 -24.667  1.00  0.00     0.000 A 
ATOM     34  C   UNL     1      18.084   9.227 -25.986  1.00  0.00     0.000 A 
ENDBRANCH  20  29
ENDBRANCH  19  20
ENDBRANCH  18  19
ENDBRANCH   4  18
TORSDOF 9
ENDMDL
MODEL 2
REMARK VINA RESULT:      -6.3      4.249      7.965
REMARK SMILES CCOC(=O)C1(c2ccccc2)CCN(CCC(C#N)(c2ccccc2)c2ccccc2)CC1
REMARK SMILES IDX 6 1 13 2 14 3 15 4 33 5 34 6 4 7 5 8 3 9 2 10 1 11 7 12 8 13
REMARK SMILES IDX 12 14 9 15 11 16 10 17 16 18 17 19 18 20 19 21 20 22 21 23
REMARK SMILES IDX 22 24 26 25 23 26 25 27 24 28 27 29 28 30 32 31 29 32 31 33
REMARK SMILES IDX 30 34
REMARK H PARENT
ROOT
ATOM      1  C   UNL     1      26.763  14.304 -26.449  1.00  0.00     0.095 C 
ATOM      2  C   UNL     1      25.349  14.951 -26.329  1.00  0.00     0.039 C 
ATOM      3  C   UNL     1      24.473  14.664 -27.547  1.00  0.00     0.086 C 
ATOM      4  N   UNL     1      24.221  13.231 -27.749  1.00  0.00    -0.303 NA
ATOM      5  C   UNL     1      25.322  12.376 -27.275  1.00  0.00     0.086 C 
ATOM      6  C   UNL     1      26.679  13.069 -27.391  1.00  0.00     0.039 C 
ENDROOT
BRANCH   1   7
ATOM      7  C   UNL     1      27.121  13.935 -24.987  1.00  0.00     0.316 C 
ATOM      8  O   UNL     1      26.859  14.643 -24.019  1.00  0.00    -0.251 OA
BRANCH   7   9
ATOM      9  O   UNL     1      27.756  12.734 -24.891  1.00  0.00    -0.465 OA
BRANCH   9  10
ATOM     10  C   UNL     1      28.872  12.717 -23.993  1.00  0.00     0.229 C 
ATOM     11  C   UNL     1      29.286  11.273 -23.789  1.00  0.00     0.049 C 
ENDBRANCH   9  10
ENDBRANCH   7   9
ENDBRANCH   1   7
BRANCH   1  12
ATOM     12  C   UNL     1      27.867  15.224 -27.017  1.00  0.00    -0.031 A 
ATOM     13  C   UNL     1      29.212  14.836 -27.116  1.00  0.00     0.005 A 
ATOM     14  C   UNL     1      27.537  16.536 -27.416  1.00  0.00     0.005 A 
ATOM     15  C   UNL     1      30.181  15.711 -27.617  1.00  0.00     0.000 A 
ATOM     16  C   UNL     1      28.506  17.408 -27.916  1.00  0.00     0.000 A 
ATOM     17  C   UNL     1      29.829  16.994 -28.020  1.00  0.00     0.000 A 
ENDBRANCH   1  12
BRANCH   4  18
ATOM     18  C   UNL     1      22.933  12.768 -27.204  1.00  0.00     0.087 C 
BRANCH  18  19
ATOM     19  C   UNL     1      22.851  12.979 -25.680  1.00  0.00     0.047 C 
BRANCH  19  20
ATOM     20  C   UNL     1      22.350  11.745 -24.846  1.00  0.00     0.108 C 
ATOM     21  C   UNL     1      21.503  10.942 -25.798  1.00  0.00     0.079 C 
ATOM     22  N   UNL     1      20.863  10.327 -26.549  1.00  0.00    -0.197 NA
BRANCH  20  23
ATOM     23  C   UNL     1      23.604  10.927 -24.410  1.00  0.00    -0.023 A 
ATOM     24  C   UNL     1      24.527  11.441 -23.475  1.00  0.00     0.006 A 
ATOM     25  C   UNL     1      23.900   9.680 -24.995  1.00  0.00     0.006 A 
ATOM     26  C   UNL     1      25.671  10.723 -23.116  1.00  0.00     0.000 A 
ATOM     27  C   UNL     1      25.046   8.965 -24.634  1.00  0.00     0.000 A 
ATOM     28  C   UNL     1      25.928   9.485 -23.693  1.00  0.00     0.000 A 
ENDBRANCH  20  23
BRANCH  20  29
ATOM     29  C   UNL     1      21.414  12.095 -23.654  1.00  0.00    -0.023 A 
ATOM     30  C   UNL     1      20.931  11.141 -22.743  1.00  0.00     0.006 A 
ATOM     31  C   UNL     1      21.063  13.445 -23.422  1.00  0.00     0.006 A 
ATOM     32  C   UNL     1      20.107  11.511 -21.674  1.00  0.00     0.000 A 
ATOM     33  C   UNL     1      20.240  13.813 -22.356  1.00  0.00     0.000 A 
ATOM     34  C   UNL     1      19.758  12.844 -21.483  1.00  0.00     0.000 A 
ENDBRANCH  20  29
ENDBRANCH  19  20
ENDBRANCH  18  19
ENDBRANCH   4  18
TORSDOF 9
ENDMDL
MODEL 3
REMARK VINA RESULT:      -6.3      1.344      2.283
REMARK SMILES CCOC(=O)C1(c2ccccc2)CCN(CCC(C#N)(c2ccccc2)c2ccccc2)CC1
REMARK SMILES IDX 6 1 13 2 14 3 15 4 33 5 34 6 4 7 5 8 3 9 2 10 1 11 7 12 8 13
REMARK SMILES IDX 12 14 9 15 11 16 10 17 16 18 17 19 18 20 19 21 20 22 21 23
REMARK SMILES IDX 22 24 26 25 23 26 25 27 24 28 27 29 28 30 32 31 29 32 31 33
REMARK SMILES IDX 30 34
REMARK H PARENT
ROOT
ATOM      1  C   UNL     1      21.407  12.380 -23.847  1.00  0.00     0.095 C 
ATOM      2  C   UNL     1      20.811  11.204 -23.015  1.00  0.00     0.039 C 
ATOM      3  C   UNL     1      20.575  11.586 -21.555  1.00  0.00     0.086 C 
ATOM      4  N   UNL     1      19.618  12.689 -21.397  1.00  0.00    -0.303 NA
ATOM      5  C   UNL     1      19.624  13.629 -22.529  1.00  0.00     0.086 C 
ATOM      6  C   UNL     1      21.000  13.729 -23.187  1.00  0.00     0.039 C 
ENDROOT
BRANCH   1   7
ATOM      7  C   UNL     1      20.793  12.179 -25.256  1.00  0.00     0.316 C 
ATOM      8  O   UNL     1      20.213  13.061 -25.882  1.00  0.00    -0.251 OA
BRANCH   7   9
ATOM      9  O   UNL     1      20.969  10.913 -25.728  1.00  0.00    -0.465 OA
BRANCH   9  10
ATOM     10  C   UNL     1      19.877  10.405 -26.503  1.00  0.00     0.229 C 
ATOM     11  C   UNL     1      19.409   9.115 -25.860  1.00  0.00     0.049 C 
ENDBRANCH   9  10
ENDBRANCH   7   9
ENDBRANCH   1   7
BRANCH   1  12
ATOM     12  C   UNL     1      22.947  12.391 -23.971  1.00  0.00    -0.031 A 
ATOM     13  C   UNL     1      23.663  13.456 -24.540  1.00  0.00     0.005 A 
ATOM     14  C   UNL     1      23.683  11.268 -23.540  1.00  0.00     0.005 A 
ATOM     15  C   UNL     1      25.057  13.412 -24.651  1.00  0.00     0.000 A 
ATOM     16  C   UNL     1      25.075  11.226 -23.652  1.00  0.00     0.000 A 
ATOM     17  C   UNL     1      25.763  12.300 -24.204  1.00  0.00     0.000 A 
ENDBRANCH   1  12
BRANCH   4  18
ATOM     18  C   UNL     1      18.244  12.250 -21.095  1.00  0.00     0.087 C 
BRANCH  18  19
ATOM     19  C   UNL     1      18.169  10.727 -20.875  1.00  0.00     0.047 C 
BRANCH  19  20
ATOM     20  C   UNL     1      17.064   9.972 -21.699  1.00  0.00     0.108 C 
ATOM     21  C   UNL     1      15.998   9.614 -20.697  1.00  0.00     0.079 C 
ATOM     22  N   UNL     1      15.179   9.358 -19.913  1.00  0.00    -0.197 NA
BRANCH  20  23
ATOM     23  C   UNL     1      16.503  10.965 -22.761  1.00  0.00    -0.023 A 
ATOM     24  C   UNL     1      17.221  11.265 -23.938  1.00  0.00     0.006 A 
ATOM     25  C   UNL     1      15.296  11.659 -22.544  1.00  0.00     0.006 A 
ATOM     26  C   UNL     1      16.735  12.187 -24.870  1.00  0.00     0.000 A 
ATOM     27  C   UNL     1      14.812  12.581 -23.478  1.00  0.00     0.000 A 
ATOM     28  C   UNL     1      15.530  12.841 -24.640  1.00  0.00     0.000 A 
ENDBRANCH  20  23
BRANCH  20  29
ATOM     29  C   UNL     1      17.519   8.620 -22.319  1.00  0.00    -0.023 A 
ATOM     30  C   UNL     1      16.674   7.793 -23.078  1.00  0.00     0.006 A 
ATOM     31  C   UNL     1      18.863   8.207 -22.172  1.00  0.00     0.006 A 
ATOM     32  C   UNL     1      17.138   6.594 -23.632  1.00  0.00     0.000 A 
ATOM     33  C   UNL     1      19.325   7.010 -22.725  1.00  0.00     0.000 A 
ATOM     34  C   UNL     1      18.459   6.201 -23.451  1.00  0.00     0.000 A 
ENDBRANCH  20  29
ENDBRANCH  19  20
ENDBRANCH  18  19
ENDBRANCH   4  18
TORSDOF 9
ENDMDL
