MODEL 1
REMARK VINA RESULT:      -7.3      0.000      0.000
REMARK SMILES CCCCc1nc2ccc(NC(=O)NC(C)C)cc2c(=O)n1Cc1ccc(-c2ccccc2-c2nn[nH]n2)cc1
REMARK SMILES IDX 5 1 6 2 7 3 8 4 9 5 10 6 18 7 19 8 20 9 21 10 22 11 4 12
REMARK SMILES IDX 3 13 2 14 1 15 23 16 24 17 25 18 40 19 26 20 39 21 27 22
REMARK SMILES IDX 28 23 29 24 33 25 30 26 32 27 31 28 34 29 35 30 38 31 36 32
REMARK SMILES IDX 37 33 11 35 12 36 13 37 14 38 15 41 16 42 17 43
REMARK H PARENT 37 34 11 39 14 40
ROOT
ATOM      1  C   UNL     1      20.465  11.233 -22.210  1.00  0.00     0.112 C 
ATOM      2  N   UNL     1      21.509  10.735 -22.797  1.00  0.00    -0.234 NA
ATOM      3  C   UNL     1      22.315  11.563 -23.576  1.00  0.00     0.078 A 
ATOM      4  C   UNL     1      23.417  11.009 -24.226  1.00  0.00     0.031 A 
ATOM      5  C   UNL     1      24.241  11.804 -25.031  1.00  0.00     0.028 A 
ATOM      6  C   UNL     1      23.981  13.171 -25.184  1.00  0.00     0.043 A 
ATOM      7  C   UNL     1      22.877  13.727 -24.536  1.00  0.00     0.042 A 
ATOM      8  C   UNL     1      22.052  12.915 -23.740  1.00  0.00     0.068 A 
ATOM      9  C   UNL     1      20.863  13.458 -23.062  1.00  0.00     0.261 C 
ATOM     10  O   UNL     1      20.591  14.648 -23.201  1.00  0.00    -0.269 OA
ATOM     11  N   UNL     1      20.104  12.562 -22.303  1.00  0.00    -0.292 N 
ENDROOT
BRANCH   1  12
ATOM     12  C   UNL     1      19.628  10.241 -21.409  1.00  0.00     0.075 C 
BRANCH  12  13
ATOM     13  C   UNL     1      18.725   9.425 -22.341  1.00  0.00     0.008 C 
BRANCH  13  14
ATOM     14  C   UNL     1      17.239   9.533 -21.993  1.00  0.00    -0.003 C 
ATOM     15  C   UNL     1      16.975   9.894 -20.540  1.00  0.00     0.004 C 
ENDBRANCH  13  14
ENDBRANCH  12  13
ENDBRANCH   1  12
BRANCH  11  16
ATOM     16  C   UNL     1      18.944  13.138 -21.614  1.00  0.00     0.162 C 
BRANCH  16  17
ATOM     17  C   UNL     1      17.668  13.076 -22.427  1.00  0.00    -0.028 A 
ATOM     18  C   UNL     1      16.433  13.360 -21.831  1.00  0.00     0.006 A 
ATOM     19  C   UNL     1      17.699  12.779 -23.797  1.00  0.00     0.006 A 
ATOM     20  C   UNL     1      15.252  13.304 -22.579  1.00  0.00     0.009 A 
ATOM     21  C   UNL     1      16.519  12.729 -24.543  1.00  0.00     0.009 A 
ATOM     22  C   UNL     1      15.277  12.987 -23.944  1.00  0.00    -0.018 A 
BRANCH  22  23
ATOM     23  C   UNL     1      14.029  12.907 -24.724  1.00  0.00    -0.007 A 
ATOM     24  C   UNL     1      13.603  14.063 -25.413  1.00  0.00     0.009 A 
ATOM     25  C   UNL     1      13.259  11.727 -24.854  1.00  0.00     0.031 A 
ATOM     26  C   UNL     1      12.464  14.057 -26.218  1.00  0.00     0.001 A 
ATOM     27  C   UNL     1      12.120  11.734 -25.684  1.00  0.00     0.013 A 
ATOM     28  C   UNL     1      11.724  12.889 -26.358  1.00  0.00     0.001 A 
BRANCH  25  29
ATOM     29  C   UNL     1      13.586  10.493 -24.147  1.00  0.00     0.205 A 
ATOM     30  N   UNL     1      13.144  10.203 -22.876  1.00  0.00    -0.108 NA
ATOM     31  N   UNL     1      14.311   9.489 -24.677  1.00  0.00    -0.134 NA
ATOM     32  N   UNL     1      13.611   8.999 -22.571  1.00  0.00    -0.050 NA
ATOM     33  N   UNL     1      14.292   8.620 -23.655  1.00  0.00    -0.177 N 
ATOM     34  H   UNL     1      14.761   7.720 -23.700  1.00  0.00     0.216 HD
ENDBRANCH  25  29
ENDBRANCH  22  23
ENDBRANCH  16  17
ENDBRANCH  11  16
BRANCH   6  35
ATOM     35  N   UNL     1      24.840  13.898 -26.029  1.00  0.00    -0.308 N 
ATOM     36  C   UNL     1      25.819  14.794 -25.654  1.00  0.00     0.319 C 
ATOM     37  O   UNL     1      26.217  15.007 -24.519  1.00  0.00    -0.248 OA
ATOM     38  N   UNL     1      26.334  15.433 -26.768  1.00  0.00    -0.336 N 
ATOM     39  H   UNL     1      24.870  13.622 -26.999  1.00  0.00     0.171 HD
ATOM     40  H   UNL     1      25.667  15.571 -27.513  1.00  0.00     0.165 HD
BRANCH  38  41
ATOM     41  C   UNL     1      27.345  16.476 -26.622  1.00  0.00     0.077 C 
ATOM     42  C   UNL     1      26.789  17.839 -27.034  1.00  0.00     0.030 C 
ATOM     43  C   UNL     1      28.571  16.121 -27.457  1.00  0.00     0.030 C 
ENDBRANCH  38  41
ENDBRANCH   6  35
TORSDOF 9
ENDMDL
MODEL 2
REMARK VINA RESULT:      -6.8      1.341      1.739
REMARK SMILES CCCCc1nc2ccc(NC(=O)NC(C)C)cc2c(=O)n1Cc1ccc(-c2ccccc2-c2nn[nH]n2)cc1
REMARK SMILES IDX 5 1 6 2 7 3 8 4 9 5 10 6 18 7 19 8 20 9 21 10 22 11 4 12
REMARK SMILES IDX 3 13 2 14 1 15 23 16 24 17 25 18 40 19 26 20 39 21 27 22
REMARK SMILES IDX 28 23 29 24 33 25 30 26 32 27 31 28 34 29 35 30 38 31 36 32
REMARK SMILES IDX 37 33 11 35 12 36 13 37 14 38 15 41 16 42 17 43
REMARK H PARENT 37 34 11 39 14 40
ROOT
ATOM      1  C   UNL     1      19.977  11.085 -22.246  1.00  0.00     0.112 C 
ATOM      2  N   UNL     1      21.102  10.639 -22.713  1.00  0.00    -0.234 NA
ATOM      3  C   UNL     1      21.985  11.524 -23.329  1.00  0.00     0.078 A 
ATOM      4  C   UNL     1      23.178  11.028 -23.853  1.00  0.00     0.031 A 
ATOM      5  C   UNL     1      24.081  11.882 -24.495  1.00  0.00     0.028 A 
ATOM      6  C   UNL     1      23.810  13.250 -24.608  1.00  0.00     0.043 A 
ATOM      7  C   UNL     1      22.616  13.749 -24.085  1.00  0.00     0.042 A 
ATOM      8  C   UNL     1      21.712  12.879 -23.454  1.00  0.00     0.068 A 
ATOM      9  C   UNL     1      20.430  13.361 -22.915  1.00  0.00     0.261 C 
ATOM     10  O   UNL     1      20.149  14.552 -23.025  1.00  0.00    -0.269 OA
ATOM     11  N   UNL     1      19.598  12.410 -22.315  1.00  0.00    -0.292 N 
ENDROOT
BRANCH   1  12
ATOM     12  C   UNL     1      19.065  10.034 -21.621  1.00  0.00     0.075 C 
BRANCH  12  13
ATOM     13  C   UNL     1      18.204   9.362 -22.695  1.00  0.00     0.008 C 
BRANCH  13  14
ATOM     14  C   UNL     1      16.914   8.749 -22.145  1.00  0.00    -0.003 C 
ATOM     15  C   UNL     1      15.719   9.687 -22.203  1.00  0.00     0.004 C 
ENDBRANCH  13  14
ENDBRANCH  12  13
ENDBRANCH   1  12
BRANCH  11  16
ATOM     16  C   UNL     1      18.342  12.926 -21.759  1.00  0.00     0.162 C 
BRANCH  16  17
ATOM     17  C   UNL     1      17.215  12.983 -22.769  1.00  0.00    -0.028 A 
ATOM     18  C   UNL     1      17.426  12.569 -24.091  1.00  0.00     0.006 A 
ATOM     19  C   UNL     1      15.933  13.408 -22.396  1.00  0.00     0.006 A 
ATOM     20  C   UNL     1      16.387  12.619 -25.026  1.00  0.00     0.009 A 
ATOM     21  C   UNL     1      14.896  13.453 -23.332  1.00  0.00     0.009 A 
ATOM     22  C   UNL     1      15.108  13.063 -24.662  1.00  0.00    -0.018 A 
BRANCH  22  23
ATOM     23  C   UNL     1      14.023  13.136 -25.656  1.00  0.00    -0.007 A 
ATOM     24  C   UNL     1      13.418  14.391 -25.884  1.00  0.00     0.009 A 
ATOM     25  C   UNL     1      13.585  12.031 -26.423  1.00  0.00     0.031 A 
ATOM     26  C   UNL     1      12.422  14.559 -26.848  1.00  0.00     0.001 A 
ATOM     27  C   UNL     1      12.590  12.221 -27.403  1.00  0.00     0.013 A 
ATOM     28  C   UNL     1      12.011  13.473 -27.612  1.00  0.00     0.001 A 
BRANCH  25  29
ATOM     29  C   UNL     1      14.112  10.684 -26.233  1.00  0.00     0.205 A 
ATOM     30  N   UNL     1      13.716   9.847 -25.215  1.00  0.00    -0.108 NA
ATOM     31  N   UNL     1      15.003  10.098 -27.057  1.00  0.00    -0.134 NA
ATOM     32  N   UNL     1      14.379   8.709 -25.370  1.00  0.00    -0.050 NA
ATOM     33  N   UNL     1      15.124   8.902 -26.461  1.00  0.00    -0.177 N 
ATOM     34  H   UNL     1      15.740   8.178 -26.819  1.00  0.00     0.216 HD
ENDBRANCH  25  29
ENDBRANCH  22  23
ENDBRANCH  16  17
ENDBRANCH  11  16
BRANCH   6  35
ATOM     35  N   UNL     1      24.756  14.039 -25.288  1.00  0.00    -0.308 N 
ATOM     36  C   UNL     1      24.674  14.516 -26.579  1.00  0.00     0.319 C 
ATOM     37  O   UNL     1      23.700  14.463 -27.316  1.00  0.00    -0.248 OA
ATOM     38  N   UNL     1      25.869  15.105 -26.949  1.00  0.00    -0.336 N 
ATOM     39  H   UNL     1      25.495  14.448 -24.734  1.00  0.00     0.171 HD
ATOM     40  H   UNL     1      26.687  14.687 -26.529  1.00  0.00     0.165 HD
BRANCH  38  41
ATOM     41  C   UNL     1      26.050  15.632 -28.298  1.00  0.00     0.077 C 
ATOM     42  C   UNL     1      27.301  15.045 -28.951  1.00  0.00     0.030 C 
ATOM     43  C   UNL     1      26.133  17.154 -28.247  1.00  0.00     0.030 C 
ENDBRANCH  38  41
ENDBRANCH   6  35
TORSDOF 9
ENDMDL
MODEL 3
REMARK VINA RESULT:      -6.8      3.514     11.237
REMARK SMILES CCCCc1nc2ccc(NC(=O)NC(C)C)cc2c(=O)n1Cc1ccc(-c2ccccc2-c2nn[nH]n2)cc1
REMARK SMILES IDX 5 1 6 2 7 3 8 4 9 5 10 6 18 7 19 8 20 9 21 10 22 11 4 12
REMARK SMILES IDX 3 13 2 14 1 15 23 16 24 17 25 18 40 19 26 20 39 21 27 22
REMARK SMILES IDX 28 23 29 24 33 25 30 26 32 27 31 28 34 29 35 30 38 31 36 32
REMARK SMILES IDX 37 33 11 35 12 36 13 37 14 38 15 41 16 42 17 43
REMARK H PARENT 37 34 11 39 14 40
ROOT
ATOM      1  C   UNL     1      20.363  12.381 -25.247  1.00  0.00     0.112 C 
ATOM      2  N   UNL     1      19.128  11.986 -25.294  1.00  0.00    -0.234 NA
ATOM      3  C   UNL     1      18.298  12.207 -24.196  1.00  0.00     0.078 A 
ATOM      4  C   UNL     1      16.981  11.751 -24.247  1.00  0.00     0.031 A 
ATOM      5  C   UNL     1      16.123  11.938 -23.159  1.00  0.00     0.028 A 
ATOM      6  C   UNL     1      16.566  12.599 -22.007  1.00  0.00     0.043 A 
ATOM      7  C   UNL     1      17.885  13.055 -21.954  1.00  0.00     0.042 A 
ATOM      8  C   UNL     1      18.740  12.850 -23.049  1.00  0.00     0.068 A 
ATOM      9  C   UNL     1      20.143  13.292 -23.021  1.00  0.00     0.261 C 
ATOM     10  O   UNL     1      20.572  13.849 -22.013  1.00  0.00    -0.269 OA
ATOM     11  N   UNL     1      20.912  13.030 -24.160  1.00  0.00    -0.292 N 
ENDROOT
BRANCH   1  12
ATOM     12  C   UNL     1      21.199  12.064 -26.483  1.00  0.00     0.075 C 
BRANCH  12  13
ATOM     13  C   UNL     1      21.409  10.552 -26.616  1.00  0.00     0.008 C 
BRANCH  13  14
ATOM     14  C   UNL     1      22.561  10.179 -27.550  1.00  0.00    -0.003 C 
ATOM     15  C   UNL     1      23.117  11.356 -28.336  1.00  0.00     0.004 C 
ENDBRANCH  13  14
ENDBRANCH  12  13
ENDBRANCH   1  12
BRANCH  11  16
ATOM     16  C   UNL     1      22.298  13.508 -24.115  1.00  0.00     0.162 C 
BRANCH  16  17
ATOM     17  C   UNL     1      23.322  12.399 -24.221  1.00  0.00    -0.028 A 
ATOM     18  C   UNL     1      24.373  12.490 -25.144  1.00  0.00     0.006 A 
ATOM     19  C   UNL     1      23.270  11.284 -23.374  1.00  0.00     0.006 A 
ATOM     20  C   UNL     1      25.322  11.468 -25.245  1.00  0.00     0.009 A 
ATOM     21  C   UNL     1      24.222  10.266 -23.473  1.00  0.00     0.009 A 
ATOM     22  C   UNL     1      25.261  10.341 -24.413  1.00  0.00    -0.018 A 
BRANCH  22  23
ATOM     23  C   UNL     1      26.249   9.255 -24.538  1.00  0.00    -0.007 A 
ATOM     24  C   UNL     1      25.770   7.942 -24.734  1.00  0.00     0.009 A 
ATOM     25  C   UNL     1      27.649   9.462 -24.515  1.00  0.00     0.031 A 
ATOM     26  C   UNL     1      26.639   6.866 -24.918  1.00  0.00     0.001 A 
ATOM     27  C   UNL     1      28.512   8.367 -24.718  1.00  0.00     0.013 A 
ATOM     28  C   UNL     1      28.012   7.079 -24.915  1.00  0.00     0.001 A 
BRANCH  25  29
ATOM     29  C   UNL     1      28.246  10.771 -24.273  1.00  0.00     0.205 A 
ATOM     30  N   UNL     1      28.811  11.545 -25.260  1.00  0.00    -0.108 NA
ATOM     31  N   UNL     1      28.266  11.381 -23.071  1.00  0.00    -0.134 NA
ATOM     32  N   UNL     1      29.224  12.666 -24.682  1.00  0.00    -0.050 NA
ATOM     33  N   UNL     1      28.886  12.525 -23.398  1.00  0.00    -0.177 N 
ATOM     34  H   UNL     1      29.084  13.249 -22.714  1.00  0.00     0.216 HD
ENDBRANCH  25  29
ENDBRANCH  22  23
ENDBRANCH  16  17
ENDBRANCH  11  16
BRANCH   6  35
ATOM     35  N   UNL     1      15.651  12.727 -20.946  1.00  0.00    -0.308 N 
ATOM     36  C   UNL     1      15.526  11.904 -19.847  1.00  0.00     0.319 C 
ATOM     37  O   UNL     1      16.282  11.001 -19.521  1.00  0.00    -0.248 OA
ATOM     38  N   UNL     1      14.405  12.252 -19.114  1.00  0.00    -0.336 N 
ATOM     39  H   UNL     1      15.143  13.597 -20.882  1.00  0.00     0.171 HD
ATOM     40  H   UNL     1      13.641  12.612 -19.668  1.00  0.00     0.165 HD
BRANCH  38  41
ATOM     41  C   UNL     1      14.024  11.484 -17.933  1.00  0.00     0.077 C 
ATOM     42  C   UNL     1      12.800  10.614 -18.218  1.00  0.00     0.030 C 
ATOM     43  C   UNL     1      13.750  12.432 -16.771  1.00  0.00     0.030 C 
ENDBRANCH  38  41
ENDBRANCH   6  35
TORSDOF 9
ENDMDL
