MODEL 1
REMARK VINA RESULT:      -7.8      0.000      0.000
REMARK SMILES CC(C)C(=O)Nc1cccc2c1[nH]c1c(C3=C[C@@]4(O)CC/C=C\CCCCN5CC[C@@H]3[C@]3(C[C@@H]6/C=C\CCCCN6[C@H]34)C5)nccc12
REMARK SMILES IDX 7 1 8 2 9 3 10 4 11 5 12 6 13 7 14 8 15 9 44 10 45 11 46 12
REMARK SMILES IDX 47 13 6 15 4 16 5 17 2 19 1 20 3 21 16 22 17 23 31 24 18 25
REMARK SMILES IDX 30 26 32 27 20 28 42 29 29 30 33 31 43 32 21 33 41 34 28 35
REMARK SMILES IDX 34 36 22 37 40 38 27 39 35 40 23 41 39 42 26 43 36 44 24 45
REMARK SMILES IDX 38 46 25 47 37 48 19 49
REMARK H PARENT 13 14 6 18 19 50
ROOT
ATOM      1  C   UNL     1      23.348   7.223 -25.538  1.00  0.00     0.065 A 
ATOM      2  C   UNL     1      24.690   6.810 -25.663  1.00  0.00     0.028 A 
ATOM      3  C   UNL     1      25.752   7.684 -25.453  1.00  0.00     0.003 A 
ATOM      4  C   UNL     1      25.512   9.010 -25.088  1.00  0.00     0.011 A 
ATOM      5  C   UNL     1      24.185   9.453 -24.925  1.00  0.00     0.010 A 
ATOM      6  C   UNL     1      23.143   8.564 -25.169  1.00  0.00     0.070 A 
ATOM      7  N   UNL     1      21.990   9.288 -24.982  1.00  0.00    -0.351 N 
ATOM      8  C   UNL     1      22.219  10.542 -24.463  1.00  0.00     0.073 A 
ATOM      9  C   UNL     1      21.360  11.568 -24.011  1.00  0.00     0.090 A 
ATOM     10  N   UNL     1      21.948  12.771 -23.758  1.00  0.00    -0.254 NA
ATOM     11  C   UNL     1      23.283  12.929 -23.825  1.00  0.00     0.112 A 
ATOM     12  C   UNL     1      24.170  11.934 -24.168  1.00  0.00     0.031 A 
ATOM     13  C   UNL     1      23.608  10.700 -24.516  1.00  0.00     0.011 A 
ATOM     14  H   UNL     1      21.087   8.913 -25.241  1.00  0.00     0.167 HD
ENDROOT
BRANCH   1  15
ATOM     15  N   UNL     1      22.356   6.239 -25.741  1.00  0.00    -0.324 N 
ATOM     16  C   UNL     1      21.258   5.943 -24.962  1.00  0.00     0.226 C 
ATOM     17  O   UNL     1      20.882   6.578 -23.978  1.00  0.00    -0.274 OA
ATOM     18  H   UNL     1      22.459   5.705 -26.595  1.00  0.00     0.170 HD
BRANCH  16  19
ATOM     19  C   UNL     1      20.519   4.665 -25.371  1.00  0.00     0.072 C 
ATOM     20  C   UNL     1      19.214   4.938 -26.112  1.00  0.00     0.018 C 
ATOM     21  C   UNL     1      21.447   3.766 -26.187  1.00  0.00     0.018 C 
ENDBRANCH  16  19
ENDBRANCH   1  15
BRANCH   9  22
ATOM     22  C   UNL     1      19.865  11.477 -23.880  1.00  0.00    -0.017 C 
ATOM     23  C   UNL     1      19.126  10.850 -24.812  1.00  0.00     0.015 C 
ATOM     24  C   UNL     1      19.180  12.207 -22.701  1.00  0.00     0.032 C 
ATOM     25  C   UNL     1      17.685  11.159 -25.080  1.00  0.00     0.100 C 
ATOM     26  C   UNL     1      19.711  11.711 -21.325  1.00  0.00     0.024 C 
ATOM     27  C   UNL     1      17.579  12.166 -22.633  1.00  0.00     0.010 C 
ATOM     28  C   UNL     1      17.001  10.118 -26.014  1.00  0.00     0.045 C 
ATOM     29  C   UNL     1      16.861  11.406 -23.786  1.00  0.00     0.101 C 
ATOM     30  C   UNL     1      19.191  10.317 -20.970  1.00  0.00     0.085 C 
ATOM     31  C   UNL     1      16.948  13.578 -22.690  1.00  0.00     0.034 C 
ATOM     32  C   UNL     1      17.112  11.509 -21.277  1.00  0.00     0.094 C 
ATOM     33  C   UNL     1      16.538   8.780 -25.417  1.00  0.00     0.030 C 
ATOM     34  N   UNL     1      15.582  12.142 -24.060  1.00  0.00    -0.290 NA
ATOM     35  N   UNL     1      17.738  10.194 -21.140  1.00  0.00    -0.303 NA
ATOM     36  C   UNL     1      15.921  13.558 -23.834  1.00  0.00     0.080 C 
ATOM     37  C   UNL     1      17.602   7.992 -24.697  1.00  0.00    -0.031 C 
ATOM     38  C   UNL     1      14.431  11.616 -23.314  1.00  0.00     0.085 C 
ATOM     39  C   UNL     1      17.117   9.350 -20.118  1.00  0.00     0.084 C 
ATOM     40  C   UNL     1      14.803  14.550 -23.626  1.00  0.00    -0.012 C 
ATOM     41  C   UNL     1      17.506   7.446 -23.469  1.00  0.00    -0.031 C 
ATOM     42  C   UNL     1      13.284  11.272 -24.272  1.00  0.00     0.016 C 
ATOM     43  C   UNL     1      17.495   7.866 -20.268  1.00  0.00     0.016 C 
ATOM     44  C   UNL     1      13.608  14.567 -24.234  1.00  0.00    -0.030 C 
ATOM     45  C   UNL     1      16.300   7.504 -22.574  1.00  0.00     0.027 C 
ATOM     46  C   UNL     1      12.404  12.430 -24.752  1.00  0.00     0.005 C 
ATOM     47  C   UNL     1      16.533   7.035 -21.131  1.00  0.00     0.005 C 
ATOM     48  C   UNL     1      13.161  13.628 -25.315  1.00  0.00     0.027 C 
BRANCH  25  49
ATOM     49  O   UNL     1      17.779  12.374 -25.865  1.00  0.00    -0.384 OA
ATOM     50  H   UNL     1      17.227  13.045 -25.429  1.00  0.00     0.211 HD
ENDBRANCH  25  49
ENDBRANCH   9  22
TORSDOF 4
ENDMDL
MODEL 2
REMARK VINA RESULT:      -7.8      2.532      8.355
REMARK SMILES CC(C)C(=O)Nc1cccc2c1[nH]c1c(C3=C[C@@]4(O)CC/C=C\CCCCN5CC[C@@H]3[C@]3(C[C@@H]6/C=C\CCCCN6[C@H]34)C5)nccc12
REMARK SMILES IDX 7 1 8 2 9 3 10 4 11 5 12 6 13 7 14 8 15 9 44 10 45 11 46 12
REMARK SMILES IDX 47 13 6 15 4 16 5 17 2 19 1 20 3 21 16 22 17 23 31 24 18 25
REMARK SMILES IDX 30 26 32 27 20 28 42 29 29 30 33 31 43 32 21 33 41 34 28 35
REMARK SMILES IDX 34 36 22 37 40 38 27 39 35 40 23 41 39 42 26 43 36 44 24 45
REMARK SMILES IDX 38 46 25 47 37 48 19 49
REMARK H PARENT 13 14 6 18 19 50
ROOT
ATOM      1  C   UNL     1      13.295  11.534 -23.906  1.00  0.00     0.065 A 
ATOM      2  C   UNL     1      11.918  11.600 -24.194  1.00  0.00     0.028 A 
ATOM      3  C   UNL     1      11.445  11.841 -25.480  1.00  0.00     0.003 A 
ATOM      4  C   UNL     1      12.339  12.005 -26.540  1.00  0.00     0.011 A 
ATOM      5  C   UNL     1      13.724  11.917 -26.297  1.00  0.00     0.010 A 
ATOM      6  C   UNL     1      14.167  11.704 -24.995  1.00  0.00     0.070 A 
ATOM      7  N   UNL     1      15.539  11.717 -25.067  1.00  0.00    -0.351 N 
ATOM      8  C   UNL     1      16.012  11.753 -26.360  1.00  0.00     0.073 A 
ATOM      9  C   UNL     1      17.309  11.667 -26.913  1.00  0.00     0.090 A 
ATOM     10  N   UNL     1      17.411  11.957 -28.240  1.00  0.00    -0.254 NA
ATOM     11  C   UNL     1      16.322  12.194 -28.995  1.00  0.00     0.112 A 
ATOM     12  C   UNL     1      15.030  12.193 -28.520  1.00  0.00     0.031 A 
ATOM     13  C   UNL     1      14.878  11.981 -27.145  1.00  0.00     0.011 A 
ATOM     14  H   UNL     1      16.108  11.731 -24.231  1.00  0.00     0.167 HD
ENDROOT
BRANCH   1  15
ATOM     15  N   UNL     1      13.654  11.250 -22.570  1.00  0.00    -0.324 N 
ATOM     16  C   UNL     1      14.482  10.257 -22.088  1.00  0.00     0.226 C 
ATOM     17  O   UNL     1      15.156   9.488 -22.771  1.00  0.00    -0.274 OA
ATOM     18  H   UNL     1      13.271  11.888 -21.884  1.00  0.00     0.170 HD
BRANCH  16  19
ATOM     19  C   UNL     1      14.468  10.108 -20.563  1.00  0.00     0.072 C 
ATOM     20  C   UNL     1      15.596  10.872 -19.876  1.00  0.00     0.018 C 
ATOM     21  C   UNL     1      13.102  10.517 -20.013  1.00  0.00     0.018 C 
ENDBRANCH  16  19
ENDBRANCH   1  15
BRANCH   9  22
ATOM     22  C   UNL     1      18.576  11.384 -26.157  1.00  0.00    -0.017 C 
ATOM     23  C   UNL     1      19.194  12.351 -25.455  1.00  0.00     0.015 C 
ATOM     24  C   UNL     1      19.215   9.982 -26.283  1.00  0.00     0.032 C 
ATOM     25  C   UNL     1      20.660  12.352 -25.148  1.00  0.00     0.100 C 
ATOM     26  C   UNL     1      18.242   8.857 -25.822  1.00  0.00     0.024 C 
ATOM     27  C   UNL     1      20.612   9.733 -25.537  1.00  0.00     0.010 C 
ATOM     28  C   UNL     1      21.065  13.436 -24.106  1.00  0.00     0.045 C 
ATOM     29  C   UNL     1      21.207  10.948 -24.767  1.00  0.00     0.101 C 
ATOM     30  C   UNL     1      18.077   8.819 -24.302  1.00  0.00     0.085 C 
ATOM     31  C   UNL     1      21.745   9.343 -26.516  1.00  0.00     0.034 C 
ATOM     32  C   UNL     1      20.470   8.549 -24.503  1.00  0.00     0.094 C 
ATOM     33  C   UNL     1      20.817  13.157 -22.615  1.00  0.00     0.030 C 
ATOM     34  N   UNL     1      22.698  10.863 -24.909  1.00  0.00    -0.290 NA
ATOM     35  N   UNL     1      19.362   8.838 -23.592  1.00  0.00    -0.303 NA
ATOM     36  C   UNL     1      22.905  10.319 -26.262  1.00  0.00     0.080 C 
ATOM     37  C   UNL     1      19.398  12.803 -22.252  1.00  0.00    -0.031 C 
ATOM     38  C   UNL     1      23.352  10.147 -23.805  1.00  0.00     0.085 C 
ATOM     39  C   UNL     1      19.357   8.004 -22.389  1.00  0.00     0.084 C 
ATOM     40  C   UNL     1      24.249   9.724 -26.609  1.00  0.00    -0.012 C 
ATOM     41  C   UNL     1      18.997  11.758 -21.502  1.00  0.00    -0.031 C 
ATOM     42  C   UNL     1      24.451  11.015 -23.180  1.00  0.00     0.016 C 
ATOM     43  C   UNL     1      18.467   8.581 -21.275  1.00  0.00     0.016 C 
ATOM     44  C   UNL     1      25.455  10.157 -26.216  1.00  0.00    -0.030 C 
ATOM     45  C   UNL     1      19.898  10.739 -20.862  1.00  0.00     0.027 C 
ATOM     46  C   UNL     1      25.799  11.066 -23.905  1.00  0.00     0.005 C 
ATOM     47  C   UNL     1      19.186   9.508 -20.283  1.00  0.00     0.005 C 
ATOM     48  C   UNL     1      25.721  11.384 -25.394  1.00  0.00     0.027 C 
BRANCH  25  49
ATOM     49  O   UNL     1      21.229  12.798 -26.405  1.00  0.00    -0.384 OA
ATOM     50  H   UNL     1      21.608  12.018 -26.845  1.00  0.00     0.211 HD
ENDBRANCH  25  49
ENDBRANCH   9  22
TORSDOF 4
ENDMDL
MODEL 3
REMARK VINA RESULT:      -7.7      2.977      8.200
REMARK SMILES CC(C)C(=O)Nc1cccc2c1[nH]c1c(C3=C[C@@]4(O)CC/C=C\CCCCN5CC[C@@H]3[C@]3(C[C@@H]6/C=C\CCCCN6[C@H]34)C5)nccc12
REMARK SMILES IDX 7 1 8 2 9 3 10 4 11 5 12 6 13 7 14 8 15 9 44 10 45 11 46 12
REMARK SMILES IDX 47 13 6 15 4 16 5 17 2 19 1 20 3 21 16 22 17 23 31 24 18 25
REMARK SMILES IDX 30 26 32 27 20 28 42 29 29 30 33 31 43 32 21 33 41 34 28 35
REMARK SMILES IDX 34 36 22 37 40 38 27 39 35 40 23 41 39 42 26 43 36 44 24 45
REMARK SMILES IDX 38 46 25 47 37 48 19 49
REMARK H PARENT 13 14 6 18 19 50
ROOT
ATOM      1  C   UNL     1      18.150   7.955 -23.042  1.00  0.00     0.065 A 
ATOM      2  C   UNL     1      16.909   7.689 -22.430  1.00  0.00     0.028 A 
ATOM      3  C   UNL     1      16.309   8.591 -21.558  1.00  0.00     0.003 A 
ATOM      4  C   UNL     1      16.922   9.814 -21.277  1.00  0.00     0.011 A 
ATOM      5  C   UNL     1      18.149  10.129 -21.893  1.00  0.00     0.010 A 
ATOM      6  C   UNL     1      18.739   9.194 -22.738  1.00  0.00     0.070 A 
ATOM      7  N   UNL     1      19.928   9.757 -23.135  1.00  0.00    -0.351 N 
ATOM      8  C   UNL     1      20.064  11.068 -22.738  1.00  0.00     0.073 A 
ATOM      9  C   UNL     1      21.037  12.057 -23.004  1.00  0.00     0.090 A 
ATOM     10  N   UNL     1      20.951  13.193 -22.257  1.00  0.00    -0.254 NA
ATOM     11  C   UNL     1      19.930  13.399 -21.404  1.00  0.00     0.112 A 
ATOM     12  C   UNL     1      18.908  12.505 -21.182  1.00  0.00     0.031 A 
ATOM     13  C   UNL     1      18.994  11.287 -21.866  1.00  0.00     0.011 A 
ATOM     14  H   UNL     1      20.620   9.218 -23.640  1.00  0.00     0.167 HD
ENDROOT
BRANCH   1  15
ATOM     15  N   UNL     1      18.643   6.978 -23.935  1.00  0.00    -0.324 N 
ATOM     16  C   UNL     1      19.916   6.456 -24.030  1.00  0.00     0.226 C 
ATOM     17  O   UNL     1      20.846   6.682 -23.257  1.00  0.00    -0.274 OA
ATOM     18  H   UNL     1      17.951   6.594 -24.565  1.00  0.00     0.170 HD
BRANCH  16  19
ATOM     19  C   UNL     1      20.146   5.575 -25.262  1.00  0.00     0.072 C 
ATOM     20  C   UNL     1      21.556   4.996 -25.329  1.00  0.00     0.018 C 
ATOM     21  C   UNL     1      19.088   4.475 -25.319  1.00  0.00     0.018 C 
ENDBRANCH  16  19
ENDBRANCH   1  15
BRANCH   9  22
ATOM     22  C   UNL     1      22.194  11.928 -23.954  1.00  0.00    -0.017 C 
ATOM     23  C   UNL     1      23.155  11.009 -23.753  1.00  0.00     0.015 C 
ATOM     24  C   UNL     1      22.313  12.941 -25.117  1.00  0.00     0.032 C 
ATOM     25  C   UNL     1      24.557  11.143 -24.264  1.00  0.00     0.100 C 
ATOM     26  C   UNL     1      21.061  12.914 -26.041  1.00  0.00     0.024 C 
ATOM     27  C   UNL     1      23.602  12.835 -26.063  1.00  0.00     0.010 C 
ATOM     28  C   UNL     1      25.387   9.833 -24.123  1.00  0.00     0.045 C 
ATOM     29  C   UNL     1      24.631  11.724 -25.703  1.00  0.00     0.101 C 
ATOM     30  C   UNL     1      21.019  11.666 -26.924  1.00  0.00     0.085 C 
ATOM     31  C   UNL     1      24.455  14.127 -26.050  1.00  0.00     0.034 C 
ATOM     32  C   UNL     1      23.158  12.594 -27.558  1.00  0.00     0.094 C 
ATOM     33  C   UNL     1      25.183   8.715 -25.157  1.00  0.00     0.030 C 
ATOM     34  N   UNL     1      25.991  12.272 -26.024  1.00  0.00    -0.290 NA
ATOM     35  N   UNL     1      22.289  11.417 -27.616  1.00  0.00    -0.303 NA
ATOM     36  C   UNL     1      25.892  13.706 -25.702  1.00  0.00     0.080 C 
ATOM     37  C   UNL     1      23.762   8.240 -25.324  1.00  0.00    -0.031 C 
ATOM     38  C   UNL     1      26.455  11.933 -27.376  1.00  0.00     0.085 C 
ATOM     39  C   UNL     1      22.104  10.889 -28.969  1.00  0.00     0.084 C 
ATOM     40  C   UNL     1      26.924  14.652 -26.265  1.00  0.00    -0.012 C 
ATOM     41  C   UNL     1      23.098   8.086 -26.486  1.00  0.00    -0.031 C 
ATOM     42  C   UNL     1      27.829  11.254 -27.316  1.00  0.00     0.016 C 
ATOM     43  C   UNL     1      21.554   9.453 -28.971  1.00  0.00     0.016 C 
ATOM     44  C   UNL     1      28.234  14.419 -26.432  1.00  0.00    -0.030 C 
ATOM     45  C   UNL     1      23.654   8.346 -27.858  1.00  0.00     0.027 C 
ATOM     46  C   UNL     1      29.052  12.163 -27.157  1.00  0.00     0.005 C 
ATOM     47  C   UNL     1      22.621   8.348 -28.993  1.00  0.00     0.005 C 
ATOM     48  C   UNL     1      28.963  13.174 -26.019  1.00  0.00     0.027 C 
BRANCH  25  49
ATOM     49  O   UNL     1      25.137  12.068 -23.310  1.00  0.00    -0.384 OA
ATOM     50  H   UNL     1      25.862  11.603 -22.859  1.00  0.00     0.211 HD
ENDBRANCH  25  49
ENDBRANCH   9  22
TORSDOF 4
ENDMDL
