MODEL 1
REMARK VINA RESULT:      -8.5      0.000      0.000
REMARK SMILES Nc1nc2c3ccc(F)cc3nc(Cc3ccc4c(c3)OCO4)n2n1
REMARK SMILES IDX 2 1 3 2 4 3 5 4 6 5 7 6 8 7 9 8 10 9 11 10 12 11 13 12 24 13
REMARK SMILES IDX 25 14 1 15 14 18 15 19 16 20 20 21 17 22 19 23 18 24 21 25
REMARK SMILES IDX 23 26 22 27
REMARK H PARENT 1 16 1 17
ROOT
ATOM      1  C   UNL     1      21.858  18.172  -8.103  1.00  0.00     0.240 A 
ATOM      2  N   UNL     1      22.293  17.522  -9.218  1.00  0.00    -0.192 NA
ATOM      3  C   UNL     1      23.419  18.143  -9.492  1.00  0.00     0.169 A 
ATOM      4  C   UNL     1      24.387  17.981 -10.555  1.00  0.00     0.045 A 
ATOM      5  C   UNL     1      24.248  17.018 -11.558  1.00  0.00     0.017 A 
ATOM      6  C   UNL     1      25.222  16.924 -12.551  1.00  0.00     0.040 A 
ATOM      7  C   UNL     1      26.316  17.787 -12.530  1.00  0.00     0.125 A 
ATOM      8  F   UNL     1      27.246  17.689 -13.489  1.00  0.00    -0.207 F 
ATOM      9  C   UNL     1      26.461  18.749 -11.534  1.00  0.00     0.068 A 
ATOM     10  C   UNL     1      25.497  18.859 -10.534  1.00  0.00     0.079 A 
ATOM     11  N   UNL     1      25.665  19.846  -9.526  1.00  0.00    -0.232 NA
ATOM     12  C   UNL     1      24.761  19.946  -8.585  1.00  0.00     0.137 C 
ATOM     13  N   UNL     1      23.643  19.114  -8.553  1.00  0.00    -0.196 N 
ATOM     14  N   UNL     1      22.646  19.145  -7.649  1.00  0.00    -0.126 NA
ENDROOT
BRANCH   1  15
ATOM     15  N   UNL     1      20.716  17.782  -7.549  1.00  0.00    -0.366 N 
ATOM     16  H   UNL     1      20.050  17.329  -8.162  1.00  0.00     0.159 HD
ATOM     17  H   UNL     1      20.773  17.370  -6.627  1.00  0.00     0.159 HD
ENDBRANCH   1  15
BRANCH  12  18
ATOM     18  C   UNL     1      24.866  20.941  -7.462  1.00  0.00     0.113 C 
BRANCH  18  19
ATOM     19  C   UNL     1      25.689  22.150  -7.846  1.00  0.00    -0.036 A 
ATOM     20  C   UNL     1      26.407  22.861  -6.856  1.00  0.00     0.008 A 
ATOM     21  C   UNL     1      25.725  22.590  -9.179  1.00  0.00     0.054 A 
ATOM     22  C   UNL     1      27.160  23.991  -7.187  1.00  0.00     0.051 A 
ATOM     23  C   UNL     1      26.477  23.707  -9.474  1.00  0.00     0.166 A 
ATOM     24  C   UNL     1      27.175  24.389  -8.505  1.00  0.00     0.165 A 
ATOM     25  O   UNL     1      26.620  24.265 -10.706  1.00  0.00    -0.454 OA
ATOM     26  O   UNL     1      27.846  25.460  -9.005  1.00  0.00    -0.454 OA
ATOM     27  C   UNL     1      27.493  25.373 -10.401  1.00  0.00     0.468 C 
ENDBRANCH  18  19
ENDBRANCH  12  18
TORSDOF 3
ENDMDL
MODEL 2
REMARK VINA RESULT:      -8.2      4.368      6.846
REMARK SMILES Nc1nc2c3ccc(F)cc3nc(Cc3ccc4c(c3)OCO4)n2n1
REMARK SMILES IDX 2 1 3 2 4 3 5 4 6 5 7 6 8 7 9 8 10 9 11 10 12 11 13 12 24 13
REMARK SMILES IDX 25 14 1 15 14 18 15 19 16 20 20 21 17 22 19 23 18 24 21 25
REMARK SMILES IDX 23 26 22 27
REMARK H PARENT 1 16 1 17
ROOT
ATOM      1  C   UNL     1      23.332  17.268  -4.390  1.00  0.00     0.240 A 
ATOM      2  N   UNL     1      23.213  18.499  -3.819  1.00  0.00    -0.192 NA
ATOM      3  C   UNL     1      22.654  19.206  -4.776  1.00  0.00     0.169 A 
ATOM      4  C   UNL     1      22.266  20.598  -4.858  1.00  0.00     0.045 A 
ATOM      5  C   UNL     1      22.447  21.493  -3.801  1.00  0.00     0.017 A 
ATOM      6  C   UNL     1      22.050  22.821  -3.957  1.00  0.00     0.040 A 
ATOM      7  C   UNL     1      21.481  23.234  -5.160  1.00  0.00     0.125 A 
ATOM      8  F   UNL     1      21.103  24.512  -5.300  1.00  0.00    -0.207 F 
ATOM      9  C   UNL     1      21.297  22.348  -6.218  1.00  0.00     0.068 A 
ATOM     10  C   UNL     1      21.688  21.018  -6.081  1.00  0.00     0.079 A 
ATOM     11  N   UNL     1      21.491  20.130  -7.172  1.00  0.00    -0.232 NA
ATOM     12  C   UNL     1      21.856  18.880  -7.041  1.00  0.00     0.137 C 
ATOM     13  N   UNL     1      22.434  18.406  -5.864  1.00  0.00    -0.196 N 
ATOM     14  N   UNL     1      22.864  17.152  -5.631  1.00  0.00    -0.126 NA
ENDROOT
BRANCH   1  15
ATOM     15  N   UNL     1      23.872  16.289  -3.673  1.00  0.00    -0.366 N 
ATOM     16  H   UNL     1      24.263  15.514  -4.193  1.00  0.00     0.159 HD
ATOM     17  H   UNL     1      24.419  16.561  -2.867  1.00  0.00     0.159 HD
ENDBRANCH   1  15
BRANCH  12  18
ATOM     18  C   UNL     1      21.663  17.860  -8.129  1.00  0.00     0.113 C 
BRANCH  18  19
ATOM     19  C   UNL     1      22.734  17.951  -9.192  1.00  0.00    -0.036 A 
ATOM     20  C   UNL     1      22.642  17.156 -10.359  1.00  0.00     0.008 A 
ATOM     21  C   UNL     1      23.837  18.801  -9.018  1.00  0.00     0.054 A 
ATOM     22  C   UNL     1      23.631  17.212 -11.347  1.00  0.00     0.051 A 
ATOM     23  C   UNL     1      24.795  18.834 -10.010  1.00  0.00     0.166 A 
ATOM     24  C   UNL     1      24.695  18.061 -11.142  1.00  0.00     0.165 A 
ATOM     25  O   UNL     1      25.921  19.597 -10.000  1.00  0.00    -0.454 OA
ATOM     26  O   UNL     1      25.743  18.241 -11.988  1.00  0.00    -0.454 OA
ATOM     27  C   UNL     1      26.514  19.218 -11.260  1.00  0.00     0.468 C 
ENDBRANCH  18  19
ENDBRANCH  12  18
TORSDOF 3
ENDMDL
MODEL 3
REMARK VINA RESULT:      -8.1      4.070      6.760
REMARK SMILES Nc1nc2c3ccc(F)cc3nc(Cc3ccc4c(c3)OCO4)n2n1
REMARK SMILES IDX 2 1 3 2 4 3 5 4 6 5 7 6 8 7 9 8 10 9 11 10 12 11 13 12 24 13
REMARK SMILES IDX 25 14 1 15 14 18 15 19 16 20 20 21 17 22 19 23 18 24 21 25
REMARK SMILES IDX 23 26 22 27
REMARK H PARENT 1 16 1 17
ROOT
ATOM      1  C   UNL     1      25.764  23.009  -5.620  1.00  0.00     0.240 A 
ATOM      2  N   UNL     1      25.312  22.157  -4.659  1.00  0.00    -0.192 NA
ATOM      3  C   UNL     1      25.039  21.070  -5.346  1.00  0.00     0.169 A 
ATOM      4  C   UNL     1      24.502  19.783  -4.959  1.00  0.00     0.045 A 
ATOM      5  C   UNL     1      24.164  19.475  -3.638  1.00  0.00     0.017 A 
ATOM      6  C   UNL     1      23.649  18.213  -3.344  1.00  0.00     0.040 A 
ATOM      7  C   UNL     1      23.480  17.281  -4.366  1.00  0.00     0.125 A 
ATOM      8  F   UNL     1      22.984  16.071  -4.072  1.00  0.00    -0.207 F 
ATOM      9  C   UNL     1      23.814  17.580  -5.683  1.00  0.00     0.068 A 
ATOM     10  C   UNL     1      24.329  18.836  -5.997  1.00  0.00     0.079 A 
ATOM     11  N   UNL     1      24.665  19.121  -7.348  1.00  0.00    -0.232 NA
ATOM     12  C   UNL     1      25.151  20.300  -7.641  1.00  0.00     0.137 C 
ATOM     13  N   UNL     1      25.342  21.277  -6.664  1.00  0.00    -0.196 N 
ATOM     14  N   UNL     1      25.812  22.523  -6.858  1.00  0.00    -0.126 NA
ENDROOT
BRANCH   1  15
ATOM     15  N   UNL     1      26.137  24.231  -5.256  1.00  0.00    -0.366 N 
ATOM     16  H   UNL     1      25.594  24.668  -4.523  1.00  0.00     0.159 HD
ATOM     17  H   UNL     1      27.132  24.403  -5.188  1.00  0.00     0.159 HD
ENDBRANCH   1  15
BRANCH  12  18
ATOM     18  C   UNL     1      25.560  20.684  -9.036  1.00  0.00     0.113 C 
BRANCH  18  19
ATOM     19  C   UNL     1      25.425  19.533 -10.007  1.00  0.00    -0.036 A 
ATOM     20  C   UNL     1      24.240  18.760 -10.028  1.00  0.00     0.008 A 
ATOM     21  C   UNL     1      26.480  19.208 -10.874  1.00  0.00     0.054 A 
ATOM     22  C   UNL     1      24.101  17.681 -10.906  1.00  0.00     0.051 A 
ATOM     23  C   UNL     1      26.312  18.138 -11.728  1.00  0.00     0.166 A 
ATOM     24  C   UNL     1      25.156  17.396 -11.744  1.00  0.00     0.165 A 
ATOM     25  O   UNL     1      27.229  17.690 -12.628  1.00  0.00    -0.454 OA
ATOM     26  O   UNL     1      25.198  16.388 -12.655  1.00  0.00    -0.454 OA
ATOM     27  C   UNL     1      26.513  16.583 -13.214  1.00  0.00     0.468 C 
ENDBRANCH  18  19
ENDBRANCH  12  18
TORSDOF 3
ENDMDL
