MODEL 1
REMARK VINA RESULT:      -7.2      0.000      0.000
REMARK SMILES CN1CCN(C(=O)N2c3ccccc3C(=O)Nc3cccnc32)CC1
REMARK SMILES IDX 8 1 9 2 10 3 11 4 12 5 13 6 14 7 15 8 16 9 17 10 18 11 19 12
REMARK SMILES IDX 20 13 21 14 22 15 23 16 6 18 2 19 3 20 25 21 4 22 24 23 5 24
REMARK SMILES IDX 7 25 1 26
REMARK H PARENT 17 17
ROOT
ATOM      1  N   UNL     1      24.122  20.101  -7.550  1.00  0.00    -0.244 N 
ATOM      2  C   UNL     1      23.916  19.189  -6.463  1.00  0.00     0.065 A 
ATOM      3  C   UNL     1      24.722  19.228  -5.310  1.00  0.00     0.028 A 
ATOM      4  C   UNL     1      24.493  18.384  -4.219  1.00  0.00     0.002 A 
ATOM      5  C   UNL     1      23.443  17.478  -4.251  1.00  0.00     0.001 A 
ATOM      6  C   UNL     1      22.636  17.413  -5.383  1.00  0.00     0.016 A 
ATOM      7  C   UNL     1      22.876  18.250  -6.491  1.00  0.00     0.064 A 
ATOM      8  C   UNL     1      21.950  18.084  -7.630  1.00  0.00     0.257 C 
ATOM      9  O   UNL     1      20.780  17.765  -7.431  1.00  0.00    -0.269 OA
ATOM     10  N   UNL     1      22.422  18.113  -8.914  1.00  0.00    -0.319 N 
ATOM     11  C   UNL     1      23.683  18.504  -9.382  1.00  0.00     0.085 A 
ATOM     12  C   UNL     1      24.066  18.001 -10.631  1.00  0.00     0.032 A 
ATOM     13  C   UNL     1      25.278  18.381 -11.195  1.00  0.00     0.022 A 
ATOM     14  C   UNL     1      26.059  19.280 -10.501  1.00  0.00     0.113 A 
ATOM     15  N   UNL     1      25.701  19.816  -9.316  1.00  0.00    -0.236 NA
ATOM     16  C   UNL     1      24.523  19.432  -8.751  1.00  0.00     0.165 A 
ATOM     17  H   UNL     1      21.775  17.688  -9.567  1.00  0.00     0.170 HD
ENDROOT
BRANCH   1  18
ATOM     18  C   UNL     1      24.577  21.417  -7.329  1.00  0.00     0.330 C 
ATOM     19  N   UNL     1      22.570  23.833  -4.908  1.00  0.00    -0.303 NA
ATOM     20  C   UNL     1      21.616  23.263  -5.872  1.00  0.00     0.106 C 
ATOM     21  C   UNL     1      23.837  24.246  -5.555  1.00  0.00     0.106 C 
ATOM     22  C   UNL     1      22.240  22.095  -6.671  1.00  0.00     0.137 C 
ATOM     23  C   UNL     1      23.997  23.786  -7.019  1.00  0.00     0.137 C 
ATOM     24  N   UNL     1      23.580  22.398  -7.192  1.00  0.00    -0.321 N 
ATOM     25  O   UNL     1      25.756  21.730  -7.149  1.00  0.00    -0.248 OA
ATOM     26  C   UNL     1      21.980  24.913  -4.129  1.00  0.00     0.105 C 
ENDBRANCH   1  18
TORSDOF 1
ENDMDL
MODEL 2
REMARK VINA RESULT:      -6.9      1.333      1.740
REMARK SMILES CN1CCN(C(=O)N2c3ccccc3C(=O)Nc3cccnc32)CC1
REMARK SMILES IDX 8 1 9 2 10 3 11 4 12 5 13 6 14 7 15 8 16 9 17 10 18 11 19 12
REMARK SMILES IDX 20 13 21 14 22 15 23 16 6 18 2 19 3 20 25 21 4 22 24 23 5 24
REMARK SMILES IDX 7 25 1 26
REMARK H PARENT 17 17
ROOT
ATOM      1  N   UNL     1      23.359  19.846  -6.541  1.00  0.00    -0.244 N 
ATOM      2  C   UNL     1      23.681  19.120  -5.348  1.00  0.00     0.065 A 
ATOM      3  C   UNL     1      24.923  19.281  -4.704  1.00  0.00     0.028 A 
ATOM      4  C   UNL     1      25.226  18.624  -3.508  1.00  0.00     0.002 A 
ATOM      5  C   UNL     1      24.287  17.791  -2.917  1.00  0.00     0.001 A 
ATOM      6  C   UNL     1      23.055  17.608  -3.537  1.00  0.00     0.016 A 
ATOM      7  C   UNL     1      22.754  18.255  -4.753  1.00  0.00     0.064 A 
ATOM      8  C   UNL     1      21.414  17.979  -5.310  1.00  0.00     0.257 C 
ATOM      9  O   UNL     1      20.466  17.766  -4.556  1.00  0.00    -0.269 OA
ATOM     10  N   UNL     1      21.250  17.787  -6.654  1.00  0.00    -0.319 N 
ATOM     11  C   UNL     1      22.155  18.025  -7.695  1.00  0.00     0.085 A 
ATOM     12  C   UNL     1      21.935  17.319  -8.884  1.00  0.00     0.032 A 
ATOM     13  C   UNL     1      22.753  17.535  -9.987  1.00  0.00     0.022 A 
ATOM     14  C   UNL     1      23.753  18.477  -9.874  1.00  0.00     0.113 A 
ATOM     15  N   UNL     1      23.966  19.204  -8.758  1.00  0.00    -0.236 NA
ATOM     16  C   UNL     1      23.179  18.983  -7.669  1.00  0.00     0.165 A 
ATOM     17  H   UNL     1      20.382  17.311  -6.867  1.00  0.00     0.170 HD
ENDROOT
BRANCH   1  18
ATOM     18  C   UNL     1      23.849  21.149  -6.764  1.00  0.00     0.330 C 
ATOM     19  N   UNL     1      22.004  24.267  -5.151  1.00  0.00    -0.303 NA
ATOM     20  C   UNL     1      20.996  23.455  -5.850  1.00  0.00     0.106 C 
ATOM     21  C   UNL     1      23.246  24.415  -5.944  1.00  0.00     0.106 C 
ATOM     22  C   UNL     1      21.559  22.075  -6.263  1.00  0.00     0.137 C 
ATOM     23  C   UNL     1      23.329  23.513  -7.194  1.00  0.00     0.137 C 
ATOM     24  N   UNL     1      22.878  22.156  -6.905  1.00  0.00    -0.321 N 
ATOM     25  O   UNL     1      25.041  21.464  -6.738  1.00  0.00    -0.248 OA
ATOM     26  C   UNL     1      21.472  25.556  -4.730  1.00  0.00     0.105 C 
ENDBRANCH   1  18
TORSDOF 1
ENDMDL
MODEL 3
REMARK VINA RESULT:      -6.6     11.771     14.491
REMARK SMILES CN1CCN(C(=O)N2c3ccccc3C(=O)Nc3cccnc32)CC1
REMARK SMILES IDX 8 1 9 2 10 3 11 4 12 5 13 6 14 7 15 8 16 9 17 10 18 11 19 12
REMARK SMILES IDX 20 13 21 14 22 15 23 16 6 18 2 19 3 20 25 21 4 22 24 23 5 24
REMARK SMILES IDX 7 25 1 26
REMARK H PARENT 17 17
ROOT
ATOM      1  N   UNL     1      33.554  25.507 -13.078  1.00  0.00    -0.244 N 
ATOM      2  C   UNL     1      34.408  25.627 -11.933  1.00  0.00     0.065 A 
ATOM      3  C   UNL     1      34.460  24.622 -10.948  1.00  0.00     0.028 A 
ATOM      4  C   UNL     1      35.333  24.700  -9.858  1.00  0.00     0.002 A 
ATOM      5  C   UNL     1      36.185  25.788  -9.728  1.00  0.00     0.001 A 
ATOM      6  C   UNL     1      36.148  26.799 -10.683  1.00  0.00     0.016 A 
ATOM      7  C   UNL     1      35.255  26.731 -11.773  1.00  0.00     0.064 A 
ATOM      8  C   UNL     1      35.312  27.866 -12.716  1.00  0.00     0.257 C 
ATOM      9  O   UNL     1      36.376  28.448 -12.918  1.00  0.00    -0.269 OA
ATOM     10  N   UNL     1      34.160  28.389 -13.238  1.00  0.00    -0.319 N 
ATOM     11  C   UNL     1      32.859  27.874 -13.195  1.00  0.00     0.085 A 
ATOM     12  C   UNL     1      31.819  28.794 -13.369  1.00  0.00     0.032 A 
ATOM     13  C   UNL     1      30.499  28.362 -13.395  1.00  0.00     0.022 A 
ATOM     14  C   UNL     1      30.261  27.009 -13.273  1.00  0.00     0.113 A 
ATOM     15  N   UNL     1      31.241  26.090 -13.146  1.00  0.00    -0.236 NA
ATOM     16  C   UNL     1      32.535  26.513 -13.102  1.00  0.00     0.165 A 
ATOM     17  H   UNL     1      34.298  29.324 -13.604  1.00  0.00     0.170 HD
ENDROOT
BRANCH   1  18
ATOM     18  C   UNL     1      33.275  24.253 -13.658  1.00  0.00     0.330 C 
ATOM     19  N   UNL     1      36.196  22.122 -15.287  1.00  0.00    -0.303 NA
ATOM     20  C   UNL     1      36.259  23.481 -15.847  1.00  0.00     0.106 C 
ATOM     21  C   UNL     1      34.806  21.616 -15.208  1.00  0.00     0.106 C 
ATOM     22  C   UNL     1      35.352  24.463 -15.068  1.00  0.00     0.137 C 
ATOM     23  C   UNL     1      33.715  22.672 -15.488  1.00  0.00     0.137 C 
ATOM     24  N   UNL     1      34.006  23.933 -14.814  1.00  0.00    -0.321 N 
ATOM     25  O   UNL     1      32.526  23.404 -13.166  1.00  0.00    -0.248 OA
ATOM     26  C   UNL     1      37.071  21.198 -15.994  1.00  0.00     0.105 C 
ENDBRANCH   1  18
TORSDOF 1
ENDMDL
