MODEL 1
REMARK VINA RESULT:      -8.1      0.000      0.000
REMARK SMILES O=C(O)CCC/C=C/C[C@@H]1[C@@H](COCc2ccccc2)C2CC1(C#Cc1ccccc1)CO2
REMARK SMILES IDX 7 1 8 2 6 3 5 4 4 5 2 6 1 7 3 8 9 10 10 11 11 12 23 13 21 14
REMARK SMILES IDX 22 15 24 16 32 17 33 18 12 19 13 20 14 21 15 22 16 23 20 24
REMARK SMILES IDX 17 25 19 26 18 27 25 28 26 29 27 30 31 31 28 32 30 33 29 34
REMARK H PARENT 3 9
ROOT
ATOM      1  C   UNL     1      27.263  25.135 -10.237  1.00  0.00    -0.031 C 
ATOM      2  C   UNL     1      26.557  24.543  -9.261  1.00  0.00    -0.031 C 
ENDROOT
BRANCH   1   3
ATOM      3  C   UNL     1      28.238  26.251  -9.991  1.00  0.00     0.027 C 
BRANCH   3   4
ATOM      4  C   UNL     1      28.654  26.913 -11.304  1.00  0.00     0.016 C 
BRANCH   4   5
ATOM      5  C   UNL     1      30.174  26.995 -11.424  1.00  0.00     0.123 C 
BRANCH   5   6
ATOM      6  C   UNL     1      30.690  26.123 -12.535  1.00  0.00     0.303 C 
ATOM      7  O   UNL     1      31.514  26.409 -13.386  1.00  0.00    -0.252 OA
BRANCH   6   8
ATOM      8  O   UNL     1      30.136  24.895 -12.507  1.00  0.00    -0.481 OA
ATOM      9  H   UNL     1      30.818  24.317 -12.908  1.00  0.00     0.296 HD
ENDBRANCH   6   8
ENDBRANCH   5   6
ENDBRANCH   4   5
ENDBRANCH   3   4
ENDBRANCH   1   3
BRANCH   2  10
ATOM     10  C   UNL     1      25.552  23.449  -9.492  1.00  0.00     0.032 C 
BRANCH  10  11
ATOM     11  C   UNL     1      24.842  23.004  -8.194  1.00  0.00     0.021 C 
ATOM     12  C   UNL     1      25.258  23.858  -6.948  1.00  0.00     0.049 C 
ATOM     13  C   UNL     1      25.237  21.570  -7.723  1.00  0.00     0.061 C 
ATOM     14  C   UNL     1      25.787  22.783  -5.980  1.00  0.00     0.125 C 
ATOM     15  C   UNL     1      26.498  21.809  -6.903  1.00  0.00     0.055 C 
ATOM     16  C   UNL     1      25.357  20.555  -8.765  1.00  0.00    -0.088 C 
ATOM     17  C   UNL     1      24.283  21.161  -6.591  1.00  0.00     0.181 C 
ATOM     18  O   UNL     1      24.664  22.018  -5.489  1.00  0.00    -0.376 OA
BRANCH  12  19
ATOM     19  C   UNL     1      24.109  24.669  -6.349  1.00  0.00     0.167 C 
BRANCH  19  20
ATOM     20  O   UNL     1      23.597  25.549  -7.350  1.00  0.00    -0.376 OA
BRANCH  20  21
ATOM     21  C   UNL     1      22.252  25.238  -7.723  1.00  0.00     0.195 C 
BRANCH  21  22
ATOM     22  C   UNL     1      21.729  26.193  -8.768  1.00  0.00    -0.022 A 
ATOM     23  C   UNL     1      21.119  25.706  -9.934  1.00  0.00     0.006 A 
ATOM     24  C   UNL     1      21.813  27.578  -8.574  1.00  0.00     0.006 A 
ATOM     25  C   UNL     1      20.619  26.588 -10.894  1.00  0.00     0.000 A 
ATOM     26  C   UNL     1      21.313  28.458  -9.535  1.00  0.00     0.000 A 
ATOM     27  C   UNL     1      20.719  27.964 -10.694  1.00  0.00     0.000 A 
ENDBRANCH  21  22
ENDBRANCH  20  21
ENDBRANCH  19  20
ENDBRANCH  12  19
BRANCH  16  28
ATOM     28  C   UNL     1      25.453  19.719  -9.623  1.00  0.00    -0.066 C 
ATOM     29  C   UNL     1      25.567  18.732 -10.651  1.00  0.00     0.024 A 
ATOM     30  C   UNL     1      26.760  18.602 -11.366  1.00  0.00     0.017 A 
ATOM     31  C   UNL     1      24.486  17.898 -10.945  1.00  0.00     0.017 A 
ATOM     32  C   UNL     1      26.872  17.640 -12.371  1.00  0.00     0.001 A 
ATOM     33  C   UNL     1      24.599  16.936 -11.951  1.00  0.00     0.001 A 
ATOM     34  C   UNL     1      25.791  16.807 -12.663  1.00  0.00     0.000 A 
ENDBRANCH  16  28
ENDBRANCH  10  11
ENDBRANCH   2  10
TORSDOF 12
ENDMDL
MODEL 2
REMARK VINA RESULT:      -8.1      3.296      7.913
REMARK SMILES O=C(O)CCC/C=C/C[C@@H]1[C@@H](COCc2ccccc2)C2CC1(C#Cc1ccccc1)CO2
REMARK SMILES IDX 7 1 8 2 6 3 5 4 4 5 2 6 1 7 3 8 9 10 10 11 11 12 23 13 21 14
REMARK SMILES IDX 22 15 24 16 32 17 33 18 12 19 13 20 14 21 15 22 16 23 20 24
REMARK SMILES IDX 17 25 19 26 18 27 25 28 26 29 27 30 31 31 28 32 30 33 29 34
REMARK H PARENT 3 9
ROOT
ATOM      1  C   UNL     1      26.083  20.504 -10.593  1.00  0.00    -0.031 C 
ATOM      2  C   UNL     1      25.706  21.147  -9.478  1.00  0.00    -0.031 C 
ENDROOT
BRANCH   1   3
ATOM      3  C   UNL     1      26.140  19.007 -10.704  1.00  0.00     0.027 C 
BRANCH   3   4
ATOM      4  C   UNL     1      24.735  18.406 -10.731  1.00  0.00     0.016 C 
BRANCH   4   5
ATOM      5  C   UNL     1      24.615  17.331 -11.809  1.00  0.00     0.123 C 
BRANCH   5   6
ATOM      6  C   UNL     1      23.213  16.797 -11.905  1.00  0.00     0.303 C 
ATOM      7  O   UNL     1      22.540  16.301 -11.018  1.00  0.00    -0.252 OA
BRANCH   6   8
ATOM      8  O   UNL     1      22.711  16.930 -13.149  1.00  0.00    -0.481 OA
ATOM      9  H   UNL     1      22.687  17.900 -13.293  1.00  0.00     0.296 HD
ENDBRANCH   6   8
ENDBRANCH   5   6
ENDBRANCH   4   5
ENDBRANCH   3   4
ENDBRANCH   1   3
BRANCH   2  10
ATOM     10  C   UNL     1      25.676  22.643  -9.338  1.00  0.00     0.032 C 
BRANCH  10  11
ATOM     11  C   UNL     1      26.064  23.120  -7.920  1.00  0.00     0.021 C 
ATOM     12  C   UNL     1      24.867  23.073  -6.912  1.00  0.00     0.049 C 
ATOM     13  C   UNL     1      26.460  24.628  -7.851  1.00  0.00     0.061 C 
ATOM     14  C   UNL     1      24.797  24.532  -6.424  1.00  0.00     0.125 C 
ATOM     15  C   UNL     1      25.119  25.329  -7.675  1.00  0.00     0.055 C 
ATOM     16  C   UNL     1      27.286  25.132  -8.943  1.00  0.00    -0.088 C 
ATOM     17  C   UNL     1      27.062  24.900  -6.465  1.00  0.00     0.181 C 
ATOM     18  O   UNL     1      25.932  24.783  -5.567  1.00  0.00    -0.376 OA
BRANCH  12  19
ATOM     19  C   UNL     1      25.069  22.083  -5.765  1.00  0.00     0.167 C 
BRANCH  19  20
ATOM     20  O   UNL     1      26.160  21.221  -6.089  1.00  0.00    -0.376 OA
BRANCH  20  21
ATOM     21  C   UNL     1      25.984  19.894  -5.587  1.00  0.00     0.195 C 
BRANCH  21  22
ATOM     22  C   UNL     1      24.627  19.339  -5.945  1.00  0.00    -0.022 A 
ATOM     23  C   UNL     1      24.175  19.365  -7.273  1.00  0.00     0.006 A 
ATOM     24  C   UNL     1      23.815  18.757  -4.963  1.00  0.00     0.006 A 
ATOM     25  C   UNL     1      22.928  18.836  -7.607  1.00  0.00     0.000 A 
ATOM     26  C   UNL     1      22.567  18.228  -5.300  1.00  0.00     0.000 A 
ATOM     27  C   UNL     1      22.123  18.270  -6.620  1.00  0.00     0.000 A 
ENDBRANCH  21  22
ENDBRANCH  20  21
ENDBRANCH  19  20
ENDBRANCH  12  19
BRANCH  16  28
ATOM     28  C   UNL     1      27.969  25.547  -9.841  1.00  0.00    -0.066 C 
ATOM     29  C   UNL     1      28.773  26.040 -10.915  1.00  0.00     0.024 A 
ATOM     30  C   UNL     1      28.600  27.347 -11.376  1.00  0.00     0.017 A 
ATOM     31  C   UNL     1      29.731  25.214 -11.510  1.00  0.00     0.017 A 
ATOM     32  C   UNL     1      29.383  27.828 -12.426  1.00  0.00     0.001 A 
ATOM     33  C   UNL     1      30.514  25.697 -12.561  1.00  0.00     0.001 A 
ATOM     34  C   UNL     1      30.340  27.003 -13.019  1.00  0.00     0.000 A 
ENDBRANCH  16  28
ENDBRANCH  10  11
ENDBRANCH   2  10
TORSDOF 12
ENDMDL
MODEL 3
REMARK VINA RESULT:      -8.0      0.885      1.242
REMARK SMILES O=C(O)CCC/C=C/C[C@@H]1[C@@H](COCc2ccccc2)C2CC1(C#Cc1ccccc1)CO2
REMARK SMILES IDX 7 1 8 2 6 3 5 4 4 5 2 6 1 7 3 8 9 10 10 11 11 12 23 13 21 14
REMARK SMILES IDX 22 15 24 16 32 17 33 18 12 19 13 20 14 21 15 22 16 23 20 24
REMARK SMILES IDX 17 25 19 26 18 27 25 28 26 29 27 30 31 31 28 32 30 33 29 34
REMARK H PARENT 3 9
ROOT
ATOM      1  C   UNL     1      27.578  25.178 -10.767  1.00  0.00    -0.031 C 
ATOM      2  C   UNL     1      26.917  24.617  -9.743  1.00  0.00    -0.031 C 
ENDROOT
BRANCH   1   3
ATOM      3  C   UNL     1      28.548  26.313 -10.601  1.00  0.00     0.027 C 
BRANCH   3   4
ATOM      4  C   UNL     1      29.828  26.058 -11.396  1.00  0.00     0.016 C 
BRANCH   4   5
ATOM      5  C   UNL     1      30.396  27.359 -11.959  1.00  0.00     0.123 C 
BRANCH   5   6
ATOM      6  C   UNL     1      30.069  27.522 -13.418  1.00  0.00     0.303 C 
ATOM      7  O   UNL     1      30.822  27.848 -14.319  1.00  0.00    -0.252 OA
BRANCH   6   8
ATOM      8  O   UNL     1      28.776  27.242 -13.676  1.00  0.00    -0.481 OA
ATOM      9  H   UNL     1      28.454  28.033 -14.156  1.00  0.00     0.296 HD
ENDBRANCH   6   8
ENDBRANCH   5   6
ENDBRANCH   4   5
ENDBRANCH   3   4
ENDBRANCH   1   3
BRANCH   2  10
ATOM     10  C   UNL     1      25.917  23.505  -9.892  1.00  0.00     0.032 C 
BRANCH  10  11
ATOM     11  C   UNL     1      25.166  23.193  -8.579  1.00  0.00     0.021 C 
ATOM     12  C   UNL     1      25.639  24.084  -7.381  1.00  0.00     0.049 C 
ATOM     13  C   UNL     1      25.445  21.763  -8.021  1.00  0.00     0.061 C 
ATOM     14  C   UNL     1      26.076  23.031  -6.345  1.00  0.00     0.125 C 
ATOM     15  C   UNL     1      26.715  21.952  -7.202  1.00  0.00     0.055 C 
ATOM     16  C   UNL     1      25.492  20.682  -9.001  1.00  0.00    -0.088 C 
ATOM     17  C   UNL     1      24.455  21.496  -6.878  1.00  0.00     0.181 C 
ATOM     18  O   UNL     1      24.893  22.385  -5.823  1.00  0.00    -0.376 OA
BRANCH  12  19
ATOM     19  C   UNL     1      24.552  25.016  -6.843  1.00  0.00     0.167 C 
BRANCH  19  20
ATOM     20  O   UNL     1      23.461  25.028  -7.764  1.00  0.00    -0.376 OA
BRANCH  20  21
ATOM     21  C   UNL     1      22.387  25.868  -7.335  1.00  0.00     0.195 C 
BRANCH  21  22
ATOM     22  C   UNL     1      21.562  26.356  -8.501  1.00  0.00    -0.022 A 
ATOM     23  C   UNL     1      21.490  25.607  -9.685  1.00  0.00     0.006 A 
ATOM     24  C   UNL     1      20.826  27.545  -8.405  1.00  0.00     0.006 A 
ATOM     25  C   UNL     1      20.714  26.049 -10.758  1.00  0.00     0.000 A 
ATOM     26  C   UNL     1      20.050  27.985  -9.479  1.00  0.00     0.000 A 
ATOM     27  C   UNL     1      19.996  27.239 -10.654  1.00  0.00     0.000 A 
ENDBRANCH  21  22
ENDBRANCH  20  21
ENDBRANCH  19  20
ENDBRANCH  12  19
BRANCH  16  28
ATOM     28  C   UNL     1      25.529  19.792  -9.807  1.00  0.00    -0.066 C 
ATOM     29  C   UNL     1      25.572  18.727 -10.759  1.00  0.00     0.024 A 
ATOM     30  C   UNL     1      24.450  17.918 -10.956  1.00  0.00     0.017 A 
ATOM     31  C   UNL     1      26.737  18.489 -11.493  1.00  0.00     0.017 A 
ATOM     32  C   UNL     1      24.493  16.876 -11.884  1.00  0.00     0.001 A 
ATOM     33  C   UNL     1      26.779  17.447 -12.421  1.00  0.00     0.001 A 
ATOM     34  C   UNL     1      25.657  16.641 -12.616  1.00  0.00     0.000 A 
ENDBRANCH  16  28
ENDBRANCH  10  11
ENDBRANCH   2  10
TORSDOF 12
ENDMDL
