MODEL 1
REMARK VINA RESULT:      -7.2      0.000      0.000
REMARK SMILES O=C(O)C1N=C(c2ccccc2)c2cc(Cl)ccc2NC1=O
REMARK SMILES IDX 1 1 2 2 3 3 4 5 5 6 21 7 6 8 20 9 22 10 13 11 19 12 14 13
REMARK SMILES IDX 18 14 15 15 17 16 16 18 7 19 8 20 12 21 9 22 11 23 10 24
REMARK H PARENT 3 4 20 17
ROOT
ATOM      1  O   UNL     1      23.018  23.116  -7.612  1.00  0.00    -0.249 OA
ATOM      2  C   UNL     1      24.159  23.210  -7.186  1.00  0.00     0.338 C 
ENDROOT
BRANCH   2   3
ATOM      3  O   UNL     1      24.347  23.603  -5.907  1.00  0.00    -0.479 OA
ATOM      4  H   UNL     1      23.641  24.269  -5.761  1.00  0.00     0.296 HD
ENDBRANCH   2   3
BRANCH   2   5
ATOM      5  C   UNL     1      25.452  22.978  -7.948  1.00  0.00     0.304 C 
ATOM      6  N   UNL     1      25.362  21.849  -8.888  1.00  0.00    -0.259 NA
ATOM      7  C   UNL     1      26.691  22.854  -7.082  1.00  0.00     0.260 C 
ATOM      8  C   UNL     1      25.204  20.637  -8.480  1.00  0.00     0.076 C 
ATOM      9  N   UNL     1      26.822  21.792  -6.229  1.00  0.00    -0.323 N 
ATOM     10  O   UNL     1      27.576  23.717  -7.076  1.00  0.00    -0.272 OA
ATOM     11  C   UNL     1      25.098  20.207  -7.054  1.00  0.00     0.025 A 
ATOM     12  C   UNL     1      25.947  20.712  -6.057  1.00  0.00     0.050 A 
ATOM     13  C   UNL     1      24.181  19.191  -6.736  1.00  0.00     0.033 A 
ATOM     14  C   UNL     1      25.948  20.112  -4.790  1.00  0.00     0.028 A 
ATOM     15  C   UNL     1      24.163  18.637  -5.459  1.00  0.00     0.041 A 
ATOM     16  C   UNL     1      25.056  19.081  -4.489  1.00  0.00     0.023 A 
ATOM     17  H   UNL     1      27.572  21.930  -5.561  1.00  0.00     0.170 HD
ATOM     18  Cl  UNL     1      23.052  17.380  -5.085  1.00  0.00    -0.084 Cl
BRANCH   8  19
ATOM     19  C   UNL     1      25.135  19.585  -9.543  1.00  0.00     0.000 A 
ATOM     20  C   UNL     1      23.985  18.794  -9.641  1.00  0.00     0.010 A 
ATOM     21  C   UNL     1      26.187  19.405 -10.450  1.00  0.00     0.010 A 
ATOM     22  C   UNL     1      23.899  17.808 -10.624  1.00  0.00     0.001 A 
ATOM     23  C   UNL     1      26.095  18.417 -11.433  1.00  0.00     0.001 A 
ATOM     24  C   UNL     1      24.954  17.618 -11.516  1.00  0.00     0.000 A 
ENDBRANCH   8  19
ENDBRANCH   2   5
TORSDOF 3
ENDMDL
MODEL 2
REMARK VINA RESULT:      -7.2      0.352      1.254
REMARK SMILES O=C(O)C1N=C(c2ccccc2)c2cc(Cl)ccc2NC1=O
REMARK SMILES IDX 1 1 2 2 3 3 4 5 5 6 21 7 6 8 20 9 22 10 13 11 19 12 14 13
REMARK SMILES IDX 18 14 15 15 17 16 16 18 7 19 8 20 12 21 9 22 11 23 10 24
REMARK H PARENT 3 4 20 17
ROOT
ATOM      1  O   UNL     1      23.997  23.191  -6.313  1.00  0.00    -0.249 OA
ATOM      2  C   UNL     1      24.253  23.301  -7.503  1.00  0.00     0.338 C 
ENDROOT
BRANCH   2   3
ATOM      3  O   UNL     1      23.267  23.669  -8.350  1.00  0.00    -0.479 OA
ATOM      4  H   UNL     1      22.534  23.052  -8.139  1.00  0.00     0.296 HD
ENDBRANCH   2   3
BRANCH   2   5
ATOM      5  C   UNL     1      25.577  23.022  -8.193  1.00  0.00     0.304 C 
ATOM      6  N   UNL     1      25.508  21.875  -9.113  1.00  0.00    -0.259 NA
ATOM      7  C   UNL     1      26.767  22.890  -7.262  1.00  0.00     0.260 C 
ATOM      8  C   UNL     1      25.300  20.677  -8.688  1.00  0.00     0.076 C 
ATOM      9  N   UNL     1      26.829  21.844  -6.381  1.00  0.00    -0.323 N 
ATOM     10  O   UNL     1      27.671  23.732  -7.229  1.00  0.00    -0.272 OA
ATOM     11  C   UNL     1      25.112  20.281  -7.260  1.00  0.00     0.025 A 
ATOM     12  C   UNL     1      25.920  20.789  -6.232  1.00  0.00     0.050 A 
ATOM     13  C   UNL     1      24.155  19.293  -6.968  1.00  0.00     0.033 A 
ATOM     14  C   UNL     1      25.842  20.218  -4.954  1.00  0.00     0.028 A 
ATOM     15  C   UNL     1      24.059  18.769  -5.682  1.00  0.00     0.041 A 
ATOM     16  C   UNL     1      24.911  19.214  -4.677  1.00  0.00     0.023 A 
ATOM     17  H   UNL     1      27.547  21.980  -5.678  1.00  0.00     0.170 HD
ATOM     18  Cl  UNL     1      22.900  17.546  -5.339  1.00  0.00    -0.084 Cl
BRANCH   8  19
ATOM     19  C   UNL     1      25.260  19.603  -9.730  1.00  0.00     0.000 A 
ATOM     20  C   UNL     1      26.361  19.440 -10.578  1.00  0.00     0.010 A 
ATOM     21  C   UNL     1      24.155  18.750  -9.847  1.00  0.00     0.010 A 
ATOM     22  C   UNL     1      26.346  18.446 -11.556  1.00  0.00     0.001 A 
ATOM     23  C   UNL     1      24.146  17.756 -10.827  1.00  0.00     0.001 A 
ATOM     24  C   UNL     1      25.238  17.607 -11.683  1.00  0.00     0.000 A 
ENDBRANCH   8  19
ENDBRANCH   2   5
TORSDOF 3
ENDMDL
MODEL 3
REMARK VINA RESULT:      -7.0      9.498     11.458
REMARK SMILES O=C(O)C1N=C(c2ccccc2)c2cc(Cl)ccc2NC1=O
REMARK SMILES IDX 1 1 2 2 3 3 4 5 5 6 21 7 6 8 20 9 22 10 13 11 19 12 14 13
REMARK SMILES IDX 18 14 15 15 17 16 16 18 7 19 8 20 12 21 9 22 11 23 10 24
REMARK H PARENT 3 4 20 17
ROOT
ATOM      1  O   UNL     1      33.754  23.236 -14.053  1.00  0.00    -0.249 OA
ATOM      2  C   UNL     1      33.684  22.875 -12.887  1.00  0.00     0.338 C 
ENDROOT
BRANCH   2   3
ATOM      3  O   UNL     1      34.733  22.218 -12.345  1.00  0.00    -0.479 OA
ATOM      4  H   UNL     1      34.565  21.279 -12.575  1.00  0.00     0.296 HD
ENDBRANCH   2   3
BRANCH   2   5
ATOM      5  C   UNL     1      32.507  23.033 -11.941  1.00  0.00     0.304 C 
ATOM      6  N   UNL     1      31.782  24.298 -12.143  1.00  0.00    -0.259 NA
ATOM      7  C   UNL     1      32.836  22.834 -10.474  1.00  0.00     0.260 C 
ATOM      8  C   UNL     1      32.328  25.439 -11.901  1.00  0.00     0.076 C 
ATOM      9  N   UNL     1      33.666  23.716  -9.836  1.00  0.00    -0.323 N 
ATOM     10  O   UNL     1      32.421  21.861  -9.835  1.00  0.00    -0.272 OA
ATOM     11  C   UNL     1      33.717  25.647 -11.395  1.00  0.00     0.025 A 
ATOM     12  C   UNL     1      34.259  24.872 -10.360  1.00  0.00     0.050 A 
ATOM     13  C   UNL     1      34.456  26.724 -11.916  1.00  0.00     0.033 A 
ATOM     14  C   UNL     1      35.477  25.256  -9.781  1.00  0.00     0.028 A 
ATOM     15  C   UNL     1      35.686  27.065 -11.360  1.00  0.00     0.041 A 
ATOM     16  C   UNL     1      36.192  26.346 -10.282  1.00  0.00     0.023 A 
ATOM     17  H   UNL     1      33.977  23.365  -8.938  1.00  0.00     0.170 HD
ATOM     18  Cl  UNL     1      36.573  28.396 -11.990  1.00  0.00    -0.084 Cl
BRANCH   8  19
ATOM     19  C   UNL     1      31.475  26.645 -12.144  1.00  0.00     0.000 A 
ATOM     20  C   UNL     1      31.053  27.408 -11.049  1.00  0.00     0.010 A 
ATOM     21  C   UNL     1      31.121  27.031 -13.443  1.00  0.00     0.010 A 
ATOM     22  C   UNL     1      30.258  28.536 -11.252  1.00  0.00     0.001 A 
ATOM     23  C   UNL     1      30.326  28.161 -13.640  1.00  0.00     0.001 A 
ATOM     24  C   UNL     1      29.891  28.910 -12.545  1.00  0.00     0.000 A 
ENDBRANCH   8  19
ENDBRANCH   2   5
TORSDOF 3
ENDMDL
