MODEL 1
REMARK VINA RESULT:      -8.0      0.000      0.000
REMARK SMILES Clc1nc(/C=C/c2ccccc2)c2ncn(Cc3ccccc3)c2n1
REMARK SMILES IDX 1 1 2 2 3 3 4 4 13 5 14 6 15 7 16 8 24 9 25 10 5 11 6 12
REMARK SMILES IDX 7 13 8 14 12 15 9 16 11 17 10 18 17 19 18 20 19 21 23 22
REMARK SMILES IDX 20 23 22 24 21 25
REMARK H PARENT
ROOT
ATOM      1  Cl  UNL     1      25.487  20.881  -3.863  1.00  0.00    -0.041 Cl
ATOM      2  C   UNL     1      25.650  21.427  -5.476  1.00  0.00     0.225 A 
ATOM      3  N   UNL     1      25.495  20.487  -6.425  1.00  0.00    -0.216 NA
ATOM      4  C   UNL     1      25.618  20.875  -7.721  1.00  0.00     0.096 A 
ATOM      5  C   UNL     1      25.895  22.219  -8.015  1.00  0.00     0.133 A 
ATOM      6  N   UNL     1      26.067  22.935  -9.183  1.00  0.00    -0.233 NA
ATOM      7  C   UNL     1      26.310  24.172  -8.804  1.00  0.00     0.202 A 
ATOM      8  N   UNL     1      26.297  24.296  -7.442  1.00  0.00    -0.311 N 
ATOM      9  C   UNL     1      26.028  23.062  -6.917  1.00  0.00     0.165 A 
ATOM     10  N   UNL     1      25.916  22.738  -5.618  1.00  0.00    -0.198 NA
ENDROOT
BRANCH   4  11
ATOM     11  C   UNL     1      25.441  19.829  -8.732  1.00  0.00     0.031 C 
ATOM     12  C   UNL     1      26.004  19.772  -9.949  1.00  0.00     0.010 C 
BRANCH  12  13
ATOM     13  C   UNL     1      25.764  18.684 -10.910  1.00  0.00    -0.026 A 
ATOM     14  C   UNL     1      24.549  17.990 -10.968  1.00  0.00     0.008 A 
ATOM     15  C   UNL     1      26.807  18.289 -11.757  1.00  0.00     0.008 A 
ATOM     16  C   UNL     1      24.372  16.942 -11.876  1.00  0.00     0.001 A 
ATOM     17  C   UNL     1      26.631  17.242 -12.665  1.00  0.00     0.001 A 
ATOM     18  C   UNL     1      25.411  16.570 -12.725  1.00  0.00     0.000 A 
ENDBRANCH  12  13
ENDBRANCH   4  11
BRANCH   8  19
ATOM     19  C   UNL     1      26.487  25.524  -6.696  1.00  0.00     0.160 C 
BRANCH  19  20
ATOM     20  C   UNL     1      25.391  26.518  -6.990  1.00  0.00    -0.028 A 
ATOM     21  C   UNL     1      25.708  27.813  -7.429  1.00  0.00     0.005 A 
ATOM     22  C   UNL     1      24.043  26.160  -6.849  1.00  0.00     0.005 A 
ATOM     23  C   UNL     1      24.697  28.729  -7.716  1.00  0.00     0.000 A 
ATOM     24  C   UNL     1      23.034  27.080  -7.137  1.00  0.00     0.000 A 
ATOM     25  C   UNL     1      23.360  28.363  -7.570  1.00  0.00     0.000 A 
ENDBRANCH  19  20
ENDBRANCH   8  19
TORSDOF 4
ENDMDL
MODEL 2
REMARK VINA RESULT:      -7.8      0.496      1.084
REMARK SMILES Clc1nc(/C=C/c2ccccc2)c2ncn(Cc3ccccc3)c2n1
REMARK SMILES IDX 1 1 2 2 3 3 4 4 13 5 14 6 15 7 16 8 24 9 25 10 5 11 6 12
REMARK SMILES IDX 7 13 8 14 12 15 9 16 11 17 10 18 17 19 18 20 19 21 23 22
REMARK SMILES IDX 20 23 22 24 21 25
REMARK H PARENT
ROOT
ATOM      1  Cl  UNL     1      25.745  20.425  -3.471  1.00  0.00    -0.041 Cl
ATOM      2  C   UNL     1      25.753  21.072  -5.055  1.00  0.00     0.225 A 
ATOM      3  N   UNL     1      25.712  20.170  -6.050  1.00  0.00    -0.216 NA
ATOM      4  C   UNL     1      25.718  20.638  -7.326  1.00  0.00     0.096 A 
ATOM      5  C   UNL     1      25.764  22.023  -7.550  1.00  0.00     0.133 A 
ATOM      6  N   UNL     1      25.772  22.817  -8.681  1.00  0.00    -0.233 NA
ATOM      7  C   UNL     1      25.829  24.055  -8.239  1.00  0.00     0.202 A 
ATOM      8  N   UNL     1      25.852  24.106  -6.873  1.00  0.00    -0.311 N 
ATOM      9  C   UNL     1      25.805  22.819  -6.411  1.00  0.00     0.165 A 
ATOM     10  N   UNL     1      25.799  22.415  -5.130  1.00  0.00    -0.198 NA
ENDROOT
BRANCH   4  11
ATOM     11  C   UNL     1      25.670  19.632  -8.388  1.00  0.00     0.031 C 
ATOM     12  C   UNL     1      25.792  19.837  -9.709  1.00  0.00     0.010 C 
BRANCH  12  13
ATOM     13  C   UNL     1      25.723  18.764 -10.713  1.00  0.00    -0.026 A 
ATOM     14  C   UNL     1      26.796  18.460 -11.561  1.00  0.00     0.008 A 
ATOM     15  C   UNL     1      24.522  18.059 -10.866  1.00  0.00     0.008 A 
ATOM     16  C   UNL     1      26.679  17.452 -12.522  1.00  0.00     0.001 A 
ATOM     17  C   UNL     1      24.405  17.051 -11.827  1.00  0.00     0.001 A 
ATOM     18  C   UNL     1      25.485  16.747 -12.653  1.00  0.00     0.000 A 
ENDBRANCH  12  13
ENDBRANCH   4  11
BRANCH   8  19
ATOM     19  C   UNL     1      25.873  25.309  -6.064  1.00  0.00     0.160 C 
BRANCH  19  20
ATOM     20  C   UNL     1      24.946  26.359  -6.621  1.00  0.00    -0.028 A 
ATOM     21  C   UNL     1      25.456  27.582  -7.081  1.00  0.00     0.005 A 
ATOM     22  C   UNL     1      23.566  26.123  -6.707  1.00  0.00     0.005 A 
ATOM     23  C   UNL     1      24.602  28.550  -7.611  1.00  0.00     0.000 A 
ATOM     24  C   UNL     1      22.715  27.094  -7.236  1.00  0.00     0.000 A 
ATOM     25  C   UNL     1      23.232  28.306  -7.688  1.00  0.00     0.000 A 
ENDBRANCH  19  20
ENDBRANCH   8  19
TORSDOF 4
ENDMDL
MODEL 3
REMARK VINA RESULT:      -7.7      1.137      1.575
REMARK SMILES Clc1nc(/C=C/c2ccccc2)c2ncn(Cc3ccccc3)c2n1
REMARK SMILES IDX 1 1 2 2 3 3 4 4 13 5 14 6 15 7 16 8 24 9 25 10 5 11 6 12
REMARK SMILES IDX 7 13 8 14 12 15 9 16 11 17 10 18 17 19 18 20 19 21 23 22
REMARK SMILES IDX 20 23 22 24 21 25
REMARK H PARENT
ROOT
ATOM      1  Cl  UNL     1      23.441  21.899  -5.026  1.00  0.00    -0.041 Cl
ATOM      2  C   UNL     1      24.428  22.437  -6.316  1.00  0.00     0.225 A 
ATOM      3  N   UNL     1      24.609  21.555  -7.314  1.00  0.00    -0.216 NA
ATOM      4  C   UNL     1      25.388  21.938  -8.359  1.00  0.00     0.096 A 
ATOM      5  C   UNL     1      25.959  23.220  -8.358  1.00  0.00     0.133 A 
ATOM      6  N   UNL     1      26.767  23.916  -9.236  1.00  0.00    -0.233 NA
ATOM      7  C   UNL     1      26.974  25.086  -8.670  1.00  0.00     0.202 A 
ATOM      8  N   UNL     1      26.334  25.186  -7.466  1.00  0.00    -0.311 N 
ATOM      9  C   UNL     1      25.674  24.008  -7.248  1.00  0.00     0.165 A 
ATOM     10  N   UNL     1      24.913  23.685  -6.190  1.00  0.00    -0.198 NA
ENDROOT
BRANCH   4  11
ATOM     11  C   UNL     1      25.565  20.957  -9.432  1.00  0.00     0.031 C 
ATOM     12  C   UNL     1      25.197  19.666  -9.423  1.00  0.00     0.010 C 
BRANCH  12  13
ATOM     13  C   UNL     1      25.421  18.744 -10.546  1.00  0.00    -0.026 A 
ATOM     14  C   UNL     1      24.436  17.856 -10.996  1.00  0.00     0.008 A 
ATOM     15  C   UNL     1      26.684  18.712 -11.152  1.00  0.00     0.008 A 
ATOM     16  C   UNL     1      24.699  16.975 -12.048  1.00  0.00     0.001 A 
ATOM     17  C   UNL     1      26.948  17.832 -12.204  1.00  0.00     0.001 A 
ATOM     18  C   UNL     1      25.954  16.965 -12.653  1.00  0.00     0.000 A 
ENDBRANCH  12  13
ENDBRANCH   4  11
BRANCH   8  19
ATOM     19  C   UNL     1      26.320  26.350  -6.602  1.00  0.00     0.160 C 
BRANCH  19  20
ATOM     20  C   UNL     1      25.579  27.497  -7.241  1.00  0.00    -0.028 A 
ATOM     21  C   UNL     1      24.176  27.530  -7.227  1.00  0.00     0.005 A 
ATOM     22  C   UNL     1      26.276  28.557  -7.839  1.00  0.00     0.005 A 
ATOM     23  C   UNL     1      23.487  28.596  -7.804  1.00  0.00     0.000 A 
ATOM     24  C   UNL     1      25.584  29.622  -8.416  1.00  0.00     0.000 A 
ATOM     25  C   UNL     1      24.191  29.643  -8.398  1.00  0.00     0.000 A 
ENDBRANCH  19  20
ENDBRANCH   8  19
TORSDOF 4
ENDMDL
