REMARK  Name = 
REMARK  6 active torsions:
REMARK  status: ('A' for Active; 'I' for Inactive)
REMARK    1  A    between atoms: C_1  and  C_2
REMARK    2  A    between atoms: N_4  and  C_5
REMARK    3  A    between atoms: C_5  and  C_6
REMARK    4  A    between atoms: C_6  and  C_7
REMARK    5  A    between atoms: C_7  and  S_8
REMARK    6  A    between atoms: S_8  and  O_11
REMARK                            x       y       z     vdW  Elec       q    Type
REMARK                         _______ _______ _______ _____ _____    ______ ____
ROOT
ATOM      1  C   UNL     1       3.032   1.201   3.326  0.00  0.00    +0.000 C 
ENDROOT
BRANCH   1   2
ATOM      2  C   UNL     1       1.813   0.457   2.752  0.00  0.00    +0.000 C 
BRANCH   2   6
ATOM      3  C   UNL     1       1.099   0.043  -0.137  0.00  0.00    +0.000 C 
ATOM      4  C   UNL     1       0.604   1.194   0.696  0.00  0.00    +0.000 C 
ATOM      5  O   UNL     1      -0.145   2.007   0.174  0.00  0.00    +0.000 OA
ATOM      6  N   UNL     1       0.939   1.353   2.009  0.00  0.00    +0.000 N 
ATOM      7  H   UNL     1       0.530   2.151   2.514  0.00  0.00    +0.000 HD
ENDBRANCH   2   6
ENDBRANCH   1   2
BRANCH   1   8
ATOM      8  C   UNL     1       2.683   2.349   4.286  0.00  0.00    +0.000 C 
BRANCH   8   9
ATOM      9  S   UNL     1       1.723   1.792   5.735  0.00  0.00    +0.000 S 
ATOM     10  O   UNL     1       2.455   0.683   6.509  0.00  0.00    +0.000 OA
ATOM     11  O   UNL     1       1.630   2.887   6.807  0.00  0.00    +0.000 OA
BRANCH   9  12
ATOM     12  O   UNL     1       0.105   1.237   5.533  0.00  0.00    +0.000 OA
ATOM     13  H   UNL     1       0.022   0.430   6.102  0.00  0.00    +0.000 HD
ENDBRANCH   9  12
ENDBRANCH   8   9
ENDBRANCH   1   8
TORSDOF 5
