REMARK  Name = 
REMARK  1 active torsions:
REMARK  status: ('A' for Active; 'I' for Inactive)
REMARK    1  A    between atoms: N_1  and  C_2
REMARK                            x       y       z     vdW  Elec       q    Type
REMARK                         _______ _______ _______ _____ _____    ______ ____
ROOT
ATOM      1  C   UNL     1       0.639  -0.496   1.212  0.00  0.00    +0.000 C 
ATOM      2  C   UNL     1       1.741  -1.413   1.806  0.00  0.00    +0.000 C 
ATOM      3  C   UNL     1       1.309  -1.916   3.202  0.00  0.00    +0.000 C 
ATOM      4  C   UNL     1       1.088  -0.708   4.139  0.00  0.00    +0.000 C 
ATOM      5  C   UNL     1      -0.018   0.202   3.558  0.00  0.00    +0.000 C 
ATOM      6  C   UNL     1      -1.331  -0.602   3.431  0.00  0.00    +0.000 C 
ATOM      7  C   UNL     1      -1.110  -1.810   2.493  0.00  0.00    +0.000 C 
ATOM      8  C   UNL     1      -0.005  -2.718   3.076  0.00  0.00    +0.000 C 
ATOM      9  C   UNL     1      -0.680  -1.306   1.097  0.00  0.00    +0.000 C 
ATOM     10  C   UNL     1       0.412   0.710   2.164  0.00  0.00    +0.000 C 
ENDROOT
BRANCH   1  11
ATOM     11  N   UNL     1       1.049  -0.032  -0.117  0.00  0.00    +0.000 NA
ATOM     12  H   UNL     1       0.317   0.600  -0.516  0.00  0.00    +0.000 HD
ATOM     13  H   UNL     1       1.941   0.510  -0.047  0.00  0.00    +0.000 HD
ENDBRANCH   1  11
TORSDOF 1
