REMARK  Name = 
REMARK  14 active torsions:
REMARK  status: ('A' for Active; 'I' for Inactive)
REMARK    1  A    between atoms: C_1  and  C_2
REMARK    2  A    between atoms: C_2  and  O_3
REMARK    3  A    between atoms: O_3  and  C_4
REMARK    4  A    between atoms: C_4  and  C_6
REMARK    5  A    between atoms: C_7  and  C_8
REMARK    6  A    between atoms: C_8  and  O_9
REMARK    7  A    between atoms: O_9  and  C_10
REMARK    8  A    between atoms: C_10  and  C_11
REMARK    9  A    between atoms: C_11  and  N_12
REMARK   10  A    between atoms: C_14  and  C_15
REMARK   11  A    between atoms: C_16  and  C_17
REMARK   12  A    between atoms: C_17  and  O_19
REMARK   13  A    between atoms: O_19  and  C_20
REMARK   14  A    between atoms: C_21  and  C_22
REMARK                            x       y       z     vdW  Elec       q    Type
REMARK                         _______ _______ _______ _____ _____    ______ ____
ROOT
ATOM      1  C   UNL     1       2.733   3.894   0.263  0.00  0.00    +0.000 C 
ATOM      2  C   UNL     1       2.209   4.986   0.892  0.00  0.00    +0.000 C 
ATOM      3  N   UNL     1       2.687   6.274   0.555  0.00  0.00    +0.000 N 
ATOM      4  C   UNL     1       3.343   6.522  -0.679  0.00  0.00    +0.000 C 
ATOM      5  C   UNL     1       3.335   7.980  -1.103  0.00  0.00    +0.000 C 
ATOM      6  C   UNL     1       3.905   5.467  -1.371  0.00  0.00    +0.000 C 
ATOM      7  C   UNL     1       3.958   4.079  -0.682  0.00  0.00    +0.000 C 
ATOM      8  H   UNL     1       2.312   7.081   1.082  0.00  0.00    +0.000 HD
ENDROOT
BRANCH   7   9
ATOM      9  C   UNL     1       5.345   3.866   0.023  0.00  0.00    +0.000 A 
ATOM     10  C   UNL     1       6.142   5.009   0.322  0.00  0.00    +0.000 A 
ATOM     11  C   UNL     1       7.378   4.912   0.962  0.00  0.00    +0.000 A 
ATOM     12  C   UNL     1       7.870   3.678   1.354  0.00  0.00    +0.000 A 
ATOM     13  C   UNL     1       7.157   2.531   1.054  0.00  0.00    +0.000 A 
ATOM     14  C   UNL     1       5.935   2.595   0.369  0.00  0.00    +0.000 A 
ATOM     15 CL   UNL     1       5.356   1.001  -0.079  0.00  0.00    +0.000 Cl
ENDBRANCH   7   9
BRANCH   1  16
ATOM     16  C   UNL     1       2.161   2.523   0.494  0.00  0.00    +0.000 C 
ATOM     17  O   UNL     1       2.906   1.577   0.491  0.00  0.00    +0.000 OA
BRANCH  16  18
ATOM     18  O   UNL     1       0.826   2.281   0.643  0.00  0.00    +0.000 OA
BRANCH  18  20
ATOM     19  C   UNL     1       0.600  -0.058  -0.069  0.00  0.00    +0.000 C 
ATOM     20  C   UNL     1       0.271   1.040   0.956  0.00  0.00    +0.000 C 
ENDBRANCH  18  20
ENDBRANCH  16  18
ENDBRANCH   1  16
BRANCH   6  21
ATOM     21  C   UNL     1       4.553   5.601  -2.722  0.00  0.00    +0.000 C 
ATOM     22  O   UNL     1       4.491   6.643  -3.355  0.00  0.00    +0.000 OA
BRANCH  21  23
ATOM     23  O   UNL     1       5.193   4.541  -3.277  0.00  0.00    +0.000 OA
ATOM     24  C   UNL     1       5.804   4.609  -4.515  0.00  0.00    +0.000 C 
ENDBRANCH  21  23
ENDBRANCH   6  21
BRANCH   2  25
ATOM     25  C   UNL     1       1.147   4.932   1.984  0.00  0.00    +0.000 C 
BRANCH  25  26
ATOM     26  O   UNL     1       1.614   5.407   3.240  0.00  0.00    +0.000 OA
BRANCH  26  27
ATOM     27  C   UNL     1       2.850   4.833   3.664  0.00  0.00    +0.000 C 
BRANCH  27  28
ATOM     28  C   UNL     1       2.731   3.468   4.363  0.00  0.00    +0.000 C 
BRANCH  28  29
ATOM     29  N   UNL     1       2.268   2.418   3.463  0.00  0.00    +0.000 NA
ATOM     30  H   UNL     1       2.539   1.486   3.848  0.00  0.00    +0.000 HD
ATOM     31  H   UNL     1       1.225   2.430   3.458  0.00  0.00    +0.000 HD
ENDBRANCH  28  29
ENDBRANCH  27  28
ENDBRANCH  26  27
ENDBRANCH  25  26
ENDBRANCH   2  25
TORSDOF 11
