REMARK  Name = 
REMARK  9 active torsions:
REMARK  status: ('A' for Active; 'I' for Inactive)
REMARK    1  A    between atoms: C_1  and  C_2
REMARK    2  A    between atoms: C_2  and  N_3
REMARK    3  A    between atoms: N_3  and  C_4
REMARK    4  A    between atoms: N_3  and  C_6
REMARK    5  A    between atoms: C_4  and  C_5
REMARK    6  A    between atoms: C_6  and  C_7
REMARK    7  A    between atoms: C_9  and  N_10
REMARK    8  A    between atoms: N_10  and  C_11
REMARK    9  A    between atoms: C_24  and  O_25
REMARK                            x       y       z     vdW  Elec       q    Type
REMARK                         _______ _______ _______ _____ _____    ______ ____
ROOT
ATOM      1  C   UNL     1       3.043   1.919   2.217  0.00  0.00    +0.000 A 
ATOM      2  C   UNL     1       2.975   0.573   2.584  0.00  0.00    +0.000 A 
ATOM      3  C   UNL     1       3.424   0.117   3.826  0.00  0.00    +0.000 A 
ATOM      4  C   UNL     1       3.960   1.048   4.727  0.00  0.00    +0.000 A 
ATOM      5  C   UNL     1       4.090   2.396   4.358  0.00  0.00    +0.000 A 
ATOM      6  C   UNL     1       3.643   2.838   3.099  0.00  0.00    +0.000 A 
ENDROOT
BRANCH   3   7
ATOM      7  N   UNL     1       3.269  -1.257   4.204  0.00  0.00    +0.000 N 
ATOM      8  H   UNL     1       3.188  -1.441   5.215  0.00  0.00    +0.000 HD
BRANCH   7   9
ATOM      9  C   UNL     1       2.906  -2.315   3.304  0.00  0.00    +0.000 A 
ATOM     10  C   UNL     1       1.889  -3.197   3.703  0.00  0.00    +0.000 A 
ATOM     11  C   UNL     1       1.463  -4.215   2.852  0.00  0.00    +0.000 A 
ATOM     12  N   UNL     1       2.034  -4.373   1.633  0.00  0.00    +0.000 NA
ATOM     13  C   UNL     1       3.042  -3.568   1.204  0.00  0.00    +0.000 A 
ATOM     14  C   UNL     1       3.610  -3.801  -0.057  0.00  0.00    +0.000 A 
ATOM     15  C   UNL     1       4.663  -3.007  -0.510  0.00  0.00    +0.000 A 
ATOM     16 CL   UNL     1       5.371  -3.302  -2.087  0.00  0.00    +0.000 Cl
ATOM     17  C   UNL     1       5.161  -1.985   0.298  0.00  0.00    +0.000 A 
ATOM     18  C   UNL     1       4.607  -1.745   1.558  0.00  0.00    +0.000 A 
ATOM     19  C   UNL     1       3.523  -2.519   2.030  0.00  0.00    +0.000 A 
ENDBRANCH   7   9
ENDBRANCH   3   7
BRANCH   6  20
ATOM     20  O   UNL     1       3.744   4.144   2.763  0.00  0.00    +0.000 OA
ATOM     21  H   UNL     1       4.111   4.805   3.365  0.00  0.00    +0.000 HD
ENDBRANCH   6  20
BRANCH   1  22
ATOM     22  C   UNL     1       2.439   2.351   0.897  0.00  0.00    +0.000 C 
BRANCH  22  23
ATOM     23  N   UNL     1       0.951   2.261   0.871  0.00  0.00    +0.000 NA
BRANCH  23  25
ATOM     24  C   UNL     1       0.753  -0.025  -0.171  0.00  0.00    +0.000 C 
ATOM     25  C   UNL     1       0.316   0.921   0.954  0.00  0.00    +0.000 C 
ENDBRANCH  23  25
BRANCH  23  26
ATOM     26  C   UNL     1       0.256   3.272   1.712  0.00  0.00    +0.000 C 
ATOM     27  C   UNL     1       0.246   2.986   3.227  0.00  0.00    +0.000 C 
ENDBRANCH  23  26
ENDBRANCH  22  23
ENDBRANCH   1  22
TORSDOF 7
