REMARK  Name = 
REMARK  8 active torsions:
REMARK  status: ('A' for Active; 'I' for Inactive)
REMARK    1  A    between atoms: C_1  and  C_2
REMARK    2  A    between atoms: C_2  and  C_3
REMARK    3  A    between atoms: CA_6  and  N_7
REMARK    4  A    between atoms: C_8  and  CA_10
REMARK    5  A    between atoms: CA_10  and  N_11
REMARK    6  A    between atoms: CA_10  and  C_12
REMARK    7  A    between atoms: CA_21  and  C_22
REMARK    8  A    between atoms: C_22  and  OXT_24
REMARK                            x       y       z     vdW  Elec       q    Type
REMARK                         _______ _______ _______ _____ _____    ______ ____
ROOT
ATOM      1  C   UNL     1      -9.952  -4.756   1.521  0.00  0.00    +0.000 C 
ATOM      2  C   UNL     1      -9.349  -3.895   0.414  0.00  0.00    +0.000 C 
ATOM      3  C   UNL     1     -10.303  -3.957  -0.825  0.00  0.00    +0.000 C 
ATOM      4  S   UNL     1      -7.794  -4.642  -0.044  0.00  0.00    +0.000 S 
ATOM      5  C   UNL     1      -7.422  -3.136  -1.035  0.00  0.00    +0.000 C 
ATOM      6  CA  UNL     1      -5.952  -2.634  -0.987  0.00  0.00    +0.000 C 
ATOM      7  C   UNL     1      -6.601  -1.754   0.062  0.00  0.00    +0.000 C 
ATOM      8  O   UNL     1      -6.151  -1.383   1.128  0.00  0.00    +0.000 OA
ATOM      9  N   UNL     1      -7.877  -2.108  -0.152  0.00  0.00    +0.000 N 
ATOM     10  CA  UNL     1      -8.892  -2.464   0.845  0.00  0.00    +0.000 C 
ENDROOT
BRANCH   6  11
ATOM     11  N   UNL     1      -4.930  -3.591  -0.551  0.00  0.00    +0.000 N 
ATOM     12  C   UNL     1      -4.521  -4.745  -1.202  0.00  0.00    +0.000 C 
ATOM     13  O   UNL     1      -3.583  -5.350  -0.708  0.00  0.00    +0.000 OA
ATOM     14  H   UNL     1      -4.421  -3.331   0.309  0.00  0.00    +0.000 HD
BRANCH  12  15
ATOM     15  CA  UNL     1      -5.128  -5.312  -2.519  0.00  0.00    +0.000 C 
BRANCH  15  16
ATOM     16  C   UNL     1      -4.933  -6.803  -2.818  0.00  0.00    +0.000 A 
ATOM     17  C   UNL     1      -5.331  -7.249  -4.096  0.00  0.00    +0.000 A 
ATOM     18  C   UNL     1      -5.583  -8.600  -4.335  0.00  0.00    +0.000 A 
ATOM     19  C   UNL     1      -5.438  -9.530  -3.306  0.00  0.00    +0.000 A 
ATOM     20  C   UNL     1      -5.018  -9.113  -2.042  0.00  0.00    +0.000 A 
ATOM     21  C   UNL     1      -4.775  -7.760  -1.790  0.00  0.00    +0.000 A 
ENDBRANCH  15  16
BRANCH  15  22
ATOM     22  N   UNL     1      -6.579  -5.236  -2.467  0.00  0.00    +0.000 NA
ATOM     23  H1  UNL     1      -7.025  -5.380  -3.398  0.00  0.00    +0.000 HD
ATOM     24  H2  UNL     1      -6.928  -6.030  -1.871  0.00  0.00    +0.000 HD
ENDBRANCH  15  22
ENDBRANCH  12  15
ENDBRANCH   6  11
BRANCH  10  25
ATOM     25  C   UNL     1     -10.028  -1.469   0.939  0.00  0.00    +0.000 C 
ATOM     26  O   UNL     1     -10.202  -0.855   1.979  0.00  0.00    +0.000 OA
BRANCH  25  27
ATOM     27  OXT UNL     1     -10.887  -1.283  -0.089  0.00  0.00    +0.000 OA
ATOM     28  HXT UNL     1     -11.689  -0.748   0.014  0.00  0.00    +0.000 HD
ENDBRANCH  25  27
ENDBRANCH  10  25
TORSDOF 6
