REMARK  Name = 
REMARK  17 active torsions:
REMARK  status: ('A' for Active; 'I' for Inactive)
REMARK    1  A    between atoms: C_1  and  C_2
REMARK    2  A    between atoms: C_2  and  C_3
REMARK    3  A    between atoms: C_2  and  C_4
REMARK    4  A    between atoms: C_5  and  C_6
REMARK    5  A    between atoms: N_8  and  C_9
REMARK    6  A    between atoms: C_15  and  C_16
REMARK    7  A    between atoms: C_22  and  C_23
REMARK    8  A    between atoms: N_30  and  C_31
REMARK    9  A    between atoms: C_31  and  C_32
REMARK   10  A    between atoms: C_32  and  C_33
REMARK   11  A    between atoms: C_33  and  O_34
REMARK   12  A    between atoms: C_33  and  C_35
REMARK   13  A    between atoms: C_35  and  C_36
REMARK   14  A    between atoms: C_36  and  O_37
REMARK   15  A    between atoms: C_36  and  C_38
REMARK   16  A    between atoms: C_38  and  C_39
REMARK   17  A    between atoms: C_39  and  O_41
REMARK                            x       y       z     vdW  Elec       q    Type
REMARK                         _______ _______ _______ _____ _____    ______ ____
ROOT
ATOM      1  C   UNL     1      -1.343   0.177   1.338  0.00  0.00    +0.000 A 
ATOM      2  C   UNL     1      -2.144  -1.038   1.397  0.00  0.00    +0.000 A 
ATOM      3  C   UNL     1      -3.489  -0.563   1.406  0.00  0.00    +0.000 A 
ATOM      4  C   UNL     1      -3.470   0.826   1.442  0.00  0.00    +0.000 A 
ATOM      5  N   UNL     1      -2.168   1.277   1.429  0.00  0.00    +0.000 N 
ENDROOT
BRANCH   4   6
ATOM      6  C   UNL     1      -4.744   1.656   1.568  0.00  0.00    +0.000 A 
ATOM      7  C   UNL     1      -5.208   2.052   2.832  0.00  0.00    +0.000 A 
ATOM      8  C   UNL     1      -6.317   2.909   2.949  0.00  0.00    +0.000 A 
ATOM      9  C   UNL     1      -6.963   3.396   1.808  0.00  0.00    +0.000 A 
ATOM     10  F   UNL     1      -7.980   4.286   1.919  0.00  0.00    +0.000 F 
ATOM     11  C   UNL     1      -6.560   2.968   0.551  0.00  0.00    +0.000 A 
ATOM     12  C   UNL     1      -5.499   2.074   0.434  0.00  0.00    +0.000 A 
ENDBRANCH   4   6
BRANCH   3  13
ATOM     13  C   UNL     1      -4.800  -1.288   1.381  0.00  0.00    +0.000 A 
ATOM     14  C   UNL     1      -5.204  -2.183   2.389  0.00  0.00    +0.000 A 
ATOM     15  C   UNL     1      -6.501  -2.730   2.360  0.00  0.00    +0.000 A 
ATOM     16  C   UNL     1      -7.390  -2.400   1.328  0.00  0.00    +0.000 A 
ATOM     17  C   UNL     1      -6.981  -1.544   0.312  0.00  0.00    +0.000 A 
ATOM     18  C   UNL     1      -5.700  -1.001   0.338  0.00  0.00    +0.000 A 
ENDBRANCH   3  13
BRANCH   2  19
ATOM     19  C   UNL     1      -1.860  -2.566   1.323  0.00  0.00    +0.000 C 
ATOM     20  O   UNL     1      -2.849  -3.256   1.074  0.00  0.00    +0.000 OA
ATOM     21  N   UNL     1      -0.678  -3.275   1.445  0.00  0.00    +0.000 N 
ATOM     22  H   UNL     1      -0.725  -4.273   1.182  0.00  0.00    +0.000 HD
BRANCH  21  23
ATOM     23  C   UNL     1       0.607  -2.809   1.782  0.00  0.00    +0.000 A 
ATOM     24  C   UNL     1       1.649  -2.957   0.853  0.00  0.00    +0.000 A 
ATOM     25  C   UNL     1       2.900  -2.375   1.079  0.00  0.00    +0.000 A 
ATOM     26  C   UNL     1       3.143  -1.679   2.264  0.00  0.00    +0.000 A 
ATOM     27  C   UNL     1       2.139  -1.583   3.242  0.00  0.00    +0.000 A 
ATOM     28  C   UNL     1       0.867  -2.133   3.005  0.00  0.00    +0.000 A 
ENDBRANCH  21  23
ENDBRANCH   2  19
BRANCH   1  30
ATOM     29  C   UNL     1       0.602   0.572  -0.357  0.00  0.00    +0.000 C 
ATOM     30  C   UNL     1       0.197   0.292   1.094  0.00  0.00    +0.000 C 
ATOM     31  C   UNL     1       1.101   1.084   2.082  0.00  0.00    +0.000 C 
ENDBRANCH   1  30
BRANCH   5  32
ATOM     32  C   UNL     1      -1.682   2.683   1.546  0.00  0.00    +0.000 C 
BRANCH  32  33
ATOM     33  C   UNL     1      -1.676   3.513   0.239  0.00  0.00    +0.000 C 
BRANCH  33  34
ATOM     34  C   UNL     1      -3.091   3.813  -0.113  0.00  0.00    +0.000 C 
BRANCH  34  35
ATOM     35  O   UNL     1      -3.666   4.639   0.873  0.00  0.00    +0.000 OA
ATOM     36  H   UNL     1      -3.963   4.080   1.629  0.00  0.00    +0.000 HD
ENDBRANCH  34  35
BRANCH  34  37
ATOM     37  C   UNL     1      -3.441   4.394  -1.450  0.00  0.00    +0.000 C 
BRANCH  37  38
ATOM     38  C   UNL     1      -3.118   3.524  -2.683  0.00  0.00    +0.000 C 
BRANCH  38  39
ATOM     39  O   UNL     1      -3.677   2.240  -2.567  0.00  0.00    +0.000 OA
ATOM     40  H   UNL     1      -2.999   1.646  -2.151  0.00  0.00    +0.000 HD
ENDBRANCH  38  39
BRANCH  38  41
ATOM     41  C   UNL     1      -3.722   4.171  -3.952  0.00  0.00    +0.000 C 
BRANCH  41  42
ATOM     42  C   UNL     1      -3.343   5.621  -4.121  0.00  0.00    +0.000 C 
ATOM     43  O   UNL     1      -2.635   5.962  -5.051  0.00  0.00    +0.000 OA
BRANCH  42  44
ATOM     44  O   UNL     1      -3.816   6.545  -3.253  0.00  0.00    +0.000 OA
ATOM     45  H   UNL     1      -3.548   7.472  -3.283  0.00  0.00    +0.000 HD
ENDBRANCH  42  44
ENDBRANCH  41  42
ENDBRANCH  38  41
ENDBRANCH  37  38
ENDBRANCH  34  37
ENDBRANCH  33  34
ENDBRANCH  32  33
ENDBRANCH   5  32
TORSDOF 15
