REMARK  Name = 
REMARK  4 active torsions:
REMARK  status: ('A' for Active; 'I' for Inactive)
REMARK    1  A    between atoms: C_2  and  C_4
REMARK    2  A    between atoms: N_12  and  O_13
REMARK    3  A    between atoms: O_13  and  S_14
REMARK    4  A    between atoms: S_14  and  O_17
REMARK                            x       y       z     vdW  Elec       q    Type
REMARK                         _______ _______ _______ _____ _____    ______ ____
ROOT
ATOM      1  C   UNL     1       0.828  -1.070   1.615  0.00  0.00    +0.000 C 
ATOM      2  C   UNL     1       2.400  -0.895   1.488  0.00  0.00    +0.000 C 
ATOM      3  C   UNL     1       2.993  -2.173   0.873  0.00  0.00    +0.000 C 
ATOM      4  C   UNL     1       2.554  -3.439   1.739  0.00  0.00    +0.000 C 
ATOM      5  C   UNL     1       1.513  -3.032   2.799  0.00  0.00    +0.000 C 
ATOM      6  N   UNL     1       0.500  -2.490   1.913  0.00  0.00    +0.000 N 
ATOM      7  C   UNL     1       0.486  -3.474   0.943  0.00  0.00    +0.000 C 
ATOM      8  O   UNL     1      -0.485  -3.728   0.251  0.00  0.00    +0.000 OA
ATOM      9  N   UNL     1       1.640  -4.204   0.959  0.00  0.00    +0.000 N 
ENDROOT
BRANCH   1  11
ATOM     10  N   UNL     1       0.539   0.333  -0.472  0.00  0.00    +0.000 N 
ATOM     11  C   UNL     1      -0.004  -0.441   0.507  0.00  0.00    +0.000 C 
ATOM     12  O   UNL     1      -1.218  -0.556   0.559  0.00  0.00    +0.000 OA
ATOM     13  H   UNL     1      -0.068   0.808  -1.154  0.00  0.00    +0.000 HD
ATOM     14  H   UNL     1       1.545   0.519  -0.552  0.00  0.00    +0.000 HD
ENDBRANCH   1  11
BRANCH   9  15
ATOM     15  O   UNL     1       1.803  -5.483   0.556  0.00  0.00    +0.000 OA
BRANCH  15  16
ATOM     16  S   UNL     1       1.784  -6.469   2.026  0.00  0.00    +0.000 S 
ATOM     17  O   UNL     1       2.616  -5.829   3.152  0.00  0.00    +0.000 OA
ATOM     18  O   UNL     1       0.368  -6.532   2.611  0.00  0.00    +0.000 OA
BRANCH  16  19
ATOM     19  O   UNL     1       2.390  -8.068   1.889  0.00  0.00    +0.000 OA
ATOM     20  H   UNL     1       2.782  -8.256   2.785  0.00  0.00    +0.000 HD
ENDBRANCH  16  19
ENDBRANCH  15  16
ENDBRANCH   9  15
TORSDOF 4
