REMARK  Name = 
REMARK  8 active torsions:
REMARK  status: ('A' for Active; 'I' for Inactive)
REMARK    1  A    between atoms: C_1  and  C_2
REMARK    2  A    between atoms: C_2  and  C_3
REMARK    3  A    between atoms: CA_6  and  N_7
REMARK    4  A    between atoms: C_8  and  CA_10
REMARK    5  A    between atoms: CA_10  and  N_11
REMARK    6  A    between atoms: CA_10  and  C_20
REMARK    7  A    between atoms: CA_29  and  C_30
REMARK    8  A    between atoms: C_30  and  OXT_32
REMARK                            x       y       z     vdW  Elec       q    Type
REMARK                         _______ _______ _______ _____ _____    ______ ____
ROOT
ATOM      1  N   UNL     1      -1.588  -3.829   2.377  0.00  0.00    +0.000 N 
ATOM      2  C   UNL     1      -1.365  -3.845   1.014  0.00  0.00    +0.000 C 
ATOM      3  O   UNL     1      -0.197  -3.728   0.686  0.00  0.00    +0.000 OA
ATOM      4  H   UNL     1      -0.750  -3.771   2.982  0.00  0.00    +0.000 HD
ENDROOT
BRANCH   1  10
ATOM      5  C   UNL     1      -1.807  -6.507   7.180  0.00  0.00    +0.000 C 
ATOM      6  C   UNL     1      -2.797  -5.932   6.175  0.00  0.00    +0.000 C 
ATOM      7  C   UNL     1      -4.147  -6.695   6.233  0.00  0.00    +0.000 C 
ATOM      8  S   UNL     1      -2.122  -6.142   4.471  0.00  0.00    +0.000 S 
ATOM      9  C   UNL     1      -3.327  -4.883   3.946  0.00  0.00    +0.000 C 
ATOM     10  CA  UNL     1      -2.867  -3.720   3.051  0.00  0.00    +0.000 C 
ATOM     11  C   UNL     1      -2.846  -3.022   4.336  0.00  0.00    +0.000 C 
ATOM     12  O   UNL     1      -2.105  -2.136   4.734  0.00  0.00    +0.000 OA
ATOM     13  N   UNL     1      -3.380  -3.985   5.067  0.00  0.00    +0.000 N 
ATOM     14  CA  UNL     1      -2.981  -4.399   6.368  0.00  0.00    +0.000 C 
BRANCH  14  15
ATOM     15  C   UNL     1      -4.024  -3.984   7.385  0.00  0.00    +0.000 C 
ATOM     16  O   UNL     1      -3.878  -4.272   8.562  0.00  0.00    +0.000 OA
BRANCH  15  17
ATOM     17  OXT UNL     1      -5.096  -3.258   6.994  0.00  0.00    +0.000 OA
ATOM     18  HXT UNL     1      -5.762  -2.945   7.615  0.00  0.00    +0.000 HD
ENDBRANCH  15  17
ENDBRANCH  14  15
ENDBRANCH   1  10
BRANCH   2  19
ATOM     19  CA  UNL     1      -2.445  -4.005  -0.127  0.00  0.00    +0.000 C 
BRANCH  19  20
ATOM     20  N   UNL     1      -2.006  -3.448  -1.418  0.00  0.00    +0.000 N 
ATOM     21  C   UNL     1      -0.803  -3.640  -2.054  0.00  0.00    +0.000 C 
ATOM     22  O   UNL     1      -0.474  -2.802  -2.883  0.00  0.00    +0.000 OA
ATOM     23  N   UNL     1       0.119  -4.591  -1.692  0.00  0.00    +0.000 N 
ATOM     24  C   UNL     1       1.540  -4.370  -1.827  0.00  0.00    +0.000 C 
ATOM     25  C   UNL     1       2.134  -5.402  -0.854  0.00  0.00    +0.000 C 
ATOM     26  N   UNL     1       1.092  -6.385  -0.747  0.00  0.00    +0.000 N 
ATOM     27  C   UNL     1      -0.054  -5.824  -1.156  0.00  0.00    +0.000 C 
ATOM     28  O   UNL     1      -1.122  -6.405  -1.081  0.00  0.00    +0.000 OA
ATOM     29  H   UNL     1      -2.591  -2.688  -1.803  0.00  0.00    +0.000 HD
ATOM     30  H   UNL     1       1.159  -7.287  -0.254  0.00  0.00    +0.000 HD
ENDBRANCH  19  20
BRANCH  19  31
ATOM     31  C   UNL     1      -3.749  -3.352   0.266  0.00  0.00    +0.000 A 
ATOM     32  C   UNL     1      -4.929  -4.122   0.360  0.00  0.00    +0.000 A 
ATOM     33  C   UNL     1      -6.073  -3.582   0.951  0.00  0.00    +0.000 A 
ATOM     34  C   UNL     1      -6.050  -2.280   1.460  0.00  0.00    +0.000 A 
ATOM     35  C   UNL     1      -4.902  -1.490   1.325  0.00  0.00    +0.000 A 
ATOM     36  C   UNL     1      -3.759  -2.008   0.701  0.00  0.00    +0.000 A 
ENDBRANCH  19  31
ENDBRANCH   2  19
TORSDOF 6
