REMARK  Name = 
REMARK  15 active torsions:
REMARK  status: ('A' for Active; 'I' for Inactive)
REMARK    1  A    between atoms: C_1  and  C_2
REMARK    2  A    between atoms: C_2  and  O_3
REMARK    3  A    between atoms: O_3  and  C_4
REMARK    4  A    between atoms: C_4  and  O_6
REMARK    5  A    between atoms: O_6  and  C_7
REMARK    6  A    between atoms: C_7  and  C_8
REMARK    7  A    between atoms: C_7  and  O_9
REMARK    8  A    between atoms: O_9  and  C_10
REMARK    9  A    between atoms: C_10  and  C_12
REMARK   10  A    between atoms: C_16  and  N_17
REMARK   11  A    between atoms: C_18  and  C_20
REMARK   12  A    between atoms: C_20  and  N_21
REMARK   13  A    between atoms: C_20  and  C_22
REMARK   14  A    between atoms: C_30  and  C_31
REMARK   15  A    between atoms: C_30  and  C_32
REMARK                            x       y       z     vdW  Elec       q    Type
REMARK                         _______ _______ _______ _____ _____    ______ ____
ROOT
ATOM      1  C   UNL     1       1.872  -0.104   1.963  0.00  0.00    +0.000 C 
ATOM      2  N   UNL     1       2.142  -1.086   2.990  0.00  0.00    +0.000 N 
ATOM      3  C   UNL     1       2.952  -0.923   4.044  0.00  0.00    +0.000 C 
ATOM      4  O   UNL     1       3.784  -0.038   4.138  0.00  0.00    +0.000 OA
ATOM      5  C   UNL     1       2.015  -1.427   5.109  0.00  0.00    +0.000 C 
ATOM      6  C   UNL     1       1.073  -1.505   3.874  0.00  0.00    +0.000 C 
ATOM      7  S   UNL     1      -0.232  -0.269   3.667  0.00  0.00    +0.000 S 
ATOM      8  C   UNL     1       0.311  -0.122   1.916  0.00  0.00    +0.000 C 
ATOM      9  C   UNL     1      -0.221   1.182   1.336  0.00  0.00    +0.000 C 
ATOM     10  C   UNL     1      -0.285  -1.353   1.152  0.00  0.00    +0.000 C 
ENDROOT
BRANCH   5  11
ATOM     11  N   UNL     1       1.957  -0.524   6.193  0.00  0.00    +0.000 N 
ATOM     12  C   UNL     1       2.959  -0.568   7.126  0.00  0.00    +0.000 C 
ATOM     13  O   UNL     1       2.850   0.190   8.084  0.00  0.00    +0.000 OA
ATOM     14  H   UNL     1       1.145   0.101   6.316  0.00  0.00    +0.000 HD
BRANCH  12  15
ATOM     15  C   UNL     1       4.284  -1.433   7.101  0.00  0.00    +0.000 C 
BRANCH  15  16
ATOM     16  C   UNL     1       4.773  -2.728   6.288  0.00  0.00    +0.000 A 
ATOM     17  C   UNL     1       4.196  -3.439   5.177  0.00  0.00    +0.000 A 
ATOM     18  C   UNL     1       4.756  -4.576   4.616  0.00  0.00    +0.000 A 
ATOM     19  C   UNL     1       5.934  -5.085   5.101  0.00  0.00    +0.000 A 
ATOM     20  C   UNL     1       6.558  -4.449   6.165  0.00  0.00    +0.000 A 
ATOM     21  C   UNL     1       5.992  -3.305   6.751  0.00  0.00    +0.000 A 
ENDBRANCH  15  16
BRANCH  15  22
ATOM     22  N   UNL     1       5.345  -0.417   7.043  0.00  0.00    +0.000 NA
ATOM     23  H   UNL     1       5.430  -0.034   6.075  0.00  0.00    +0.000 HD
ATOM     24  H   UNL     1       6.274  -0.751   7.378  0.00  0.00    +0.000 HD
ENDBRANCH  15  22
ENDBRANCH  12  15
ENDBRANCH   5  11
BRANCH   1  25
ATOM     25  C   UNL     1       2.558  -0.358   0.607  0.00  0.00    +0.000 C 
ATOM     26  O   UNL     1       1.863  -0.508  -0.376  0.00  0.00    +0.000 OA
BRANCH  25  27
ATOM     27  O   UNL     1       3.910  -0.258   0.440  0.00  0.00    +0.000 OA
BRANCH  27  28
ATOM     28  C   UNL     1       4.633  -0.493  -0.744  0.00  0.00    +0.000 C 
ATOM     29  C   UNL     1       4.082   0.239  -1.998  0.00  0.00    +0.000 C 
BRANCH  28  30
ATOM     30  O   UNL     1       4.820  -1.855  -0.951  0.00  0.00    +0.000 OA
BRANCH  30  31
ATOM     31  C   UNL     1       3.885  -2.785  -1.272  0.00  0.00    +0.000 C 
ATOM     32  O   UNL     1       2.802  -2.459  -1.735  0.00  0.00    +0.000 OA
BRANCH  31  33
ATOM     33  O   UNL     1       4.160  -4.096  -1.060  0.00  0.00    +0.000 OA
BRANCH  33  35
ATOM     34  C   UNL     1       2.376  -4.895   0.314  0.00  0.00    +0.000 C 
ATOM     35  C   UNL     1       3.179  -5.067  -0.977  0.00  0.00    +0.000 C 
ENDBRANCH  33  35
ENDBRANCH  31  33
ENDBRANCH  30  31
ENDBRANCH  28  30
ENDBRANCH  27  28
ENDBRANCH  25  27
ENDBRANCH   1  25
TORSDOF 11
