REMARK  Name = 
REMARK  11 active torsions:
REMARK  status: ('A' for Active; 'I' for Inactive)
REMARK    1  A    between atoms: C_1  and  N_2
REMARK    2  A    between atoms: C_3  and  C_4
REMARK    3  A    between atoms: C_4  and  C_5
REMARK    4  A    between atoms: C_5  and  C_6
REMARK    5  A    between atoms: C_6  and  C_7
REMARK    6  A    between atoms: C_7  and  O_9
REMARK    7  A    between atoms: C_13  and  N_14
REMARK    8  A    between atoms: N_14  and  C_15
REMARK    9  A    between atoms: N_14  and  C_18
REMARK   10  A    between atoms: C_15  and  C_16
REMARK   11  A    between atoms: C_18  and  C_19
REMARK                            x       y       z     vdW  Elec       q    Type
REMARK                         _______ _______ _______ _____ _____    ______ ____
ROOT
ATOM      1  C   UNL     1      -2.440   1.662   0.058  0.00  0.00    +0.000 C 
ATOM      2  N   UNL     1      -1.598   0.463   0.064  0.00  0.00    +0.000 N 
ATOM      3  C   UNL     1      -1.938  -0.858   0.009  0.00  0.00    +0.000 A 
ATOM      4  N   UNL     1      -0.843  -1.665   0.017  0.00  0.00    +0.000 NA
ATOM      5  C   UNL     1       0.196  -0.818   0.063  0.00  0.00    +0.000 A 
ATOM      6  C   UNL     1       1.553  -1.134   0.033  0.00  0.00    +0.000 A 
ATOM      7  C   UNL     1       2.509  -0.068   0.092  0.00  0.00    +0.000 A 
ATOM      8  C   UNL     1       1.988   1.259   0.232  0.00  0.00    +0.000 A 
ATOM      9  C   UNL     1       0.613   1.530   0.221  0.00  0.00    +0.000 A 
ATOM     10  C   UNL     1      -0.255   0.459   0.120  0.00  0.00    +0.000 A 
ENDROOT
BRANCH   3  11
ATOM     11  C   UNL     1      -3.341  -1.412  -0.043  0.00  0.00    +0.000 C 
BRANCH  11  12
ATOM     12  C   UNL     1      -3.585  -2.348  -1.244  0.00  0.00    +0.000 C 
BRANCH  12  13
ATOM     13  C   UNL     1      -2.729  -3.635  -1.294  0.00  0.00    +0.000 C 
BRANCH  13  14
ATOM     14  C   UNL     1      -2.896  -4.511  -0.077  0.00  0.00    +0.000 C 
ATOM     15  O   UNL     1      -3.363  -5.634  -0.197  0.00  0.00    +0.000 OA
BRANCH  14  16
ATOM     16  O   UNL     1      -2.499  -4.077   1.139  0.00  0.00    +0.000 OA
ATOM     17  H   UNL     1      -2.607  -4.617   1.934  0.00  0.00    +0.000 HD
ENDBRANCH  14  16
ENDBRANCH  13  14
ENDBRANCH  12  13
ENDBRANCH  11  12
ENDBRANCH   3  11
BRANCH   7  18
ATOM     18  N   UNL     1       3.951  -0.295   0.017  0.00  0.00    +0.000 N 
BRANCH  18  19
ATOM     19  C   UNL     1       4.540  -1.648   0.068  0.00  0.00    +0.000 C 
BRANCH  19  20
ATOM     20  C   UNL     1       5.279  -2.054  -1.225  0.00  0.00    +0.000 C 
ATOM     21 CL   UNL     1       6.874  -1.281  -1.449  0.00  0.00    +0.000 Cl
ENDBRANCH  19  20
ENDBRANCH  18  19
BRANCH  18  22
ATOM     22  C   UNL     1       4.878   0.844  -0.006  0.00  0.00    +0.000 C 
BRANCH  22  23
ATOM     23  C   UNL     1       5.009   1.528  -1.393  0.00  0.00    +0.000 C 
ATOM     24 CL   UNL     1       3.577   2.343  -2.076  0.00  0.00    +0.000 Cl
ENDBRANCH  22  23
ENDBRANCH  18  22
ENDBRANCH   7  18
TORSDOF 10
