REMARK  Name = 
REMARK  9 active torsions:
REMARK  status: ('A' for Active; 'I' for Inactive)
REMARK    1  A    between atoms: C_1  and  N_2
REMARK    2  A    between atoms: N_2  and  C_3
REMARK    3  A    between atoms: N_2  and  C_4
REMARK    4  A    between atoms: C_4  and  C_5
REMARK    5  A    between atoms: C_5  and  C_6
REMARK    6  A    between atoms: C_6  and  O_7
REMARK    7  A    between atoms: O_7  and  C_8
REMARK    8  A    between atoms: N_10  and  C_11
REMARK    9  A    between atoms: C_11  and  C_12
REMARK                            x       y       z     vdW  Elec       q    Type
REMARK                         _______ _______ _______ _____ _____    ______ ____
ROOT
ATOM      1  C   UNL     1       3.369   1.822  -0.827  0.00  0.00    +0.000 A 
ATOM      2  N   UNL     1       4.289   0.912  -0.388  0.00  0.00    +0.000 NA
ATOM      3  N   UNL     1       4.721   0.212  -1.441  0.00  0.00    +0.000 N 
ATOM      4  C   UNL     1       4.096   0.691  -2.546  0.00  0.00    +0.000 A 
ATOM      5  C   UNL     1       4.208   0.301  -3.883  0.00  0.00    +0.000 A 
ATOM      6  C   UNL     1       3.334   0.882  -4.818  0.00  0.00    +0.000 A 
ATOM      7  C   UNL     1       2.461   1.917  -4.434  0.00  0.00    +0.000 A 
ATOM      8  C   UNL     1       2.460   2.383  -3.120  0.00  0.00    +0.000 A 
ATOM      9  C   UNL     1       3.255   1.707  -2.193  0.00  0.00    +0.000 A 
ENDROOT
BRANCH   1  10
ATOM     10  O   UNL     1       2.681   2.682  -0.029  0.00  0.00    +0.000 OA
BRANCH  10  11
ATOM     11  C   UNL     1       1.407   2.491   0.526  0.00  0.00    +0.000 C 
BRANCH  11  12
ATOM     12  C   UNL     1       0.228   2.457  -0.486  0.00  0.00    +0.000 C 
BRANCH  12  13
ATOM     13  C   UNL     1       0.099   1.249  -1.463  0.00  0.00    +0.000 C 
BRANCH  13  15
ATOM     14  C   UNL     1       0.367  -0.582   0.203  0.00  0.00    +0.000 C 
ATOM     15  N   UNL     1      -0.353  -0.050  -0.955  0.00  0.00    +0.000 NA
ATOM     16  C   UNL     1      -1.805  -0.224  -0.928  0.00  0.00    +0.000 C 
ENDBRANCH  13  15
ENDBRANCH  12  13
ENDBRANCH  11  12
ENDBRANCH  10  11
ENDBRANCH   1  10
BRANCH   3  17
ATOM     17  C   UNL     1       5.736  -0.854  -1.354  0.00  0.00    +0.000 C 
BRANCH  17  18
ATOM     18  C   UNL     1       5.230  -2.299  -1.491  0.00  0.00    +0.000 A 
ATOM     19  C   UNL     1       4.544  -2.776  -2.628  0.00  0.00    +0.000 A 
ATOM     20  C   UNL     1       4.162  -4.106  -2.741  0.00  0.00    +0.000 A 
ATOM     21  C   UNL     1       4.440  -5.010  -1.726  0.00  0.00    +0.000 A 
ATOM     22  C   UNL     1       5.107  -4.572  -0.582  0.00  0.00    +0.000 A 
ATOM     23  C   UNL     1       5.500  -3.231  -0.462  0.00  0.00    +0.000 A 
ENDBRANCH  17  18
ENDBRANCH   3  17
TORSDOF 7
