REMARK  Name = 
REMARK  4 active torsions:
REMARK  status: ('A' for Active; 'I' for Inactive)
REMARK    1  A    between atoms: C_1  and  N_2
REMARK    2  A    between atoms: N_4  and  C_5
REMARK    3  A    between atoms: N_6  and  C_7
REMARK    4  A    between atoms: C_7  and  C_8
REMARK                            x       y       z     vdW  Elec       q    Type
REMARK                         _______ _______ _______ _____ _____    ______ ____
ROOT
ATOM      1  C   UNL     1       0.992   0.071  -0.078  0.00  0.00    +0.000 C 
ATOM      2  N   UNL     1       0.570  -1.030  -0.911  0.00  0.00    +0.000 NA
ATOM      3  C   UNL     1       0.862  -1.199  -2.163  0.00  0.00    +0.000 C 
ATOM      4  N   UNL     1       1.686  -0.234  -2.847  0.00  0.00    +0.000 N 
ATOM      5  C   UNL     1       2.076  -0.276  -4.241  0.00  0.00    +0.000 C 
ATOM      6  N   UNL     1       0.348  -2.366  -2.828  0.00  0.00    +0.000 N 
ATOM      7  H   UNL     1       2.040   0.581  -2.328  0.00  0.00    +0.000 HD
ATOM      8  H   UNL     1       0.575  -2.569  -3.808  0.00  0.00    +0.000 HD
ENDROOT
BRANCH   6   9
ATOM      9  C   UNL     1      -0.519  -3.324  -2.155  0.00  0.00    +0.000 C 
BRANCH   9  10
ATOM     10  C   UNL     1      -1.859  -3.416  -2.839  0.00  0.00    +0.000 A 
ATOM     11  C   UNL     1      -2.613  -2.254  -3.080  0.00  0.00    +0.000 A 
ATOM     12  C   UNL     1      -3.867  -2.341  -3.693  0.00  0.00    +0.000 A 
ATOM     13  C   UNL     1      -4.385  -3.587  -4.054  0.00  0.00    +0.000 A 
ATOM     14  C   UNL     1      -3.645  -4.748  -3.814  0.00  0.00    +0.000 A 
ATOM     15  C   UNL     1      -2.383  -4.665  -3.216  0.00  0.00    +0.000 A 
ENDBRANCH   9  10
ENDBRANCH   6   9
TORSDOF 2
