REMARK  Name = 
REMARK  6 active torsions:
REMARK  status: ('A' for Active; 'I' for Inactive)
REMARK    1  A    between atoms: C_1  and  C_2
REMARK    2  A    between atoms: C_2  and  N_3
REMARK    3  A    between atoms: N_3  and  C_4
REMARK    4  A    between atoms: N_3  and  C_5
REMARK    5  A    between atoms: N_3  and  C_6
REMARK    6  A    between atoms: C_6  and  C_7
REMARK                            x       y       z     vdW  Elec       q    Type
REMARK                         _______ _______ _______ _____ _____    ______ ____
ROOT
ATOM      1  C   UNL     1       3.054   2.712   0.723  0.00  0.00    +0.000 A 
ATOM      2  C   UNL     1       2.936   4.059   1.117  0.00  0.00    +0.000 A 
ATOM      3  C   UNL     1       3.370   4.486   2.373  0.00  0.00    +0.000 A 
ATOM      4  C   UNL     1       3.942   3.579   3.259  0.00  0.00    +0.000 A 
ATOM      5  C   UNL     1       4.112   2.249   2.878  0.00  0.00    +0.000 A 
ATOM      6  C   UNL     1       3.690   1.806   1.618  0.00  0.00    +0.000 A 
ATOM      7 BR   UNL     1       4.022  -0.041   1.228  0.00  0.00    +0.000 Br
ENDROOT
BRANCH   1   8
ATOM      8  C   UNL     1       2.521   2.277  -0.648  0.00  0.00    +0.000 C 
BRANCH   8   9
ATOM      9  N   UNL     1       1.019   2.214  -0.759  0.00  0.00    +0.000 N 
ATOM     10  C   UNL     1       0.660   1.836  -2.150  0.00  0.00    +0.000 C 
ATOM     11  C   UNL     1       0.392   3.538  -0.509  0.00  0.00    +0.000 C 
BRANCH   9  13
ATOM     12  C   UNL     1       0.688  -0.245  -0.076  0.00  0.00    +0.000 C 
ATOM     13  C   UNL     1       0.431   1.242   0.224  0.00  0.00    +0.000 C 
ENDBRANCH   9  13
ENDBRANCH   8   9
ENDBRANCH   1   8
TORSDOF 3
