REMARK  Name = 
REMARK  7 active torsions:
REMARK  status: ('A' for Active; 'I' for Inactive)
REMARK    1  A    between atoms: C_1  and  N_2
REMARK    2  A    between atoms: N_2  and  C_3
REMARK    3  A    between atoms: N_2  and  C_4
REMARK    4  A    between atoms: C_4  and  C_5
REMARK    5  A    between atoms: C_5  and  C_6
REMARK    6  A    between atoms: C_6  and  C_7
REMARK    7  A    between atoms: C_6  and  C_14
REMARK                            x       y       z     vdW  Elec       q    Type
REMARK                         _______ _______ _______ _____ _____    ______ ____
ROOT
ATOM      1  C   UNL     1       1.216   2.607  -0.077  0.00  0.00    +0.000 C 
ENDROOT
BRANCH   1   2
ATOM      2  C   UNL     1       2.767   2.642  -0.082  0.00  0.00    +0.000 A 
ATOM      3  C   UNL     1       3.535   3.828   0.045  0.00  0.00    +0.000 A 
ATOM      4  C   UNL     1       4.934   3.790   0.050  0.00  0.00    +0.000 A 
ATOM      5  C   UNL     1       5.606   2.574  -0.059  0.00  0.00    +0.000 A 
ATOM      6 BR   UNL     1       7.512   2.516  -0.038  0.00  0.00    +0.000 Br
ATOM      7  C   UNL     1       4.877   1.396  -0.175  0.00  0.00    +0.000 A 
ATOM      8  C   UNL     1       3.484   1.431  -0.185  0.00  0.00    +0.000 A 
ENDBRANCH   1   2
BRANCH   1   9
ATOM      9  C   UNL     1       0.582   3.906   0.421  0.00  0.00    +0.000 A 
ATOM     10  C   UNL     1      -0.260   3.878   1.551  0.00  0.00    +0.000 A 
ATOM     11  C   UNL     1      -0.793   5.066   2.051  0.00  0.00    +0.000 A 
ATOM     12  C   UNL     1      -0.482   6.277   1.437  0.00  0.00    +0.000 A 
ATOM     13  C   UNL     1       0.331   6.276   0.302  0.00  0.00    +0.000 A 
ATOM     14  N   UNL     1       0.822   5.101  -0.188  0.00  0.00    +0.000 NA
ENDBRANCH   1   9
BRANCH   1  15
ATOM     15  C   UNL     1       0.581   2.201  -1.439  0.00  0.00    +0.000 C 
BRANCH  15  16
ATOM     16  C   UNL     1       0.814   0.754  -1.976  0.00  0.00    +0.000 C 
BRANCH  16  18
ATOM     17  C   UNL     1       0.468  -0.746   0.062  0.00  0.00    +0.000 C 
ATOM     18  N   UNL     1       0.085  -0.367  -1.306  0.00  0.00    +0.000 NA
ATOM     19  C   UNL     1      -1.375  -0.279  -1.438  0.00  0.00    +0.000 C 
ENDBRANCH  16  18
ENDBRANCH  15  16
ENDBRANCH   1  15
TORSDOF 5
