REMARK  Name = 
REMARK  8 active torsions:
REMARK  status: ('A' for Active; 'I' for Inactive)
REMARK    1  A    between atoms: C_1  and  C_2
REMARK    2  A    between atoms: C_2  and  N_3
REMARK    3  A    between atoms: C_2  and  C_8
REMARK    4  A    between atoms: N_3  and  C_4
REMARK    5  A    between atoms: C_4  and  C_5
REMARK    6  A    between atoms: C_4  and  C_6
REMARK    7  A    between atoms: C_4  and  C_7
REMARK    8  A    between atoms: C_8  and  C_10
REMARK                            x       y       z     vdW  Elec       q    Type
REMARK                         _______ _______ _______ _____ _____    ______ ____
ROOT
ATOM      1  C   UNL     1      -1.330  -0.851  -0.873  0.00  0.00    +0.000 C 
ATOM      2  O   UNL     1      -2.024  -0.503  -1.816  0.00  0.00    +0.000 OA
ENDROOT
BRANCH   1   3
ATOM      3  C   UNL     1      -2.025  -1.329   0.371  0.00  0.00    +0.000 A 
ATOM      4  C   UNL     1      -1.350  -1.613   1.578  0.00  0.00    +0.000 A 
ATOM      5  C   UNL     1      -2.057  -2.046   2.708  0.00  0.00    +0.000 A 
ATOM      6  C   UNL     1      -3.437  -2.236   2.646  0.00  0.00    +0.000 A 
ATOM      7  C   UNL     1      -4.119  -1.988   1.455  0.00  0.00    +0.000 A 
ATOM      8 CL   UNL     1      -5.849  -2.262   1.362  0.00  0.00    +0.000 Cl
ATOM      9  C   UNL     1      -3.420  -1.532   0.332  0.00  0.00    +0.000 A 
ENDBRANCH   1   3
BRANCH   1  11
ATOM     10  C   UNL     1       0.865   0.256  -0.233  0.00  0.00    +0.000 C 
ATOM     11  C   UNL     1       0.174  -0.822  -1.092  0.00  0.00    +0.000 C 
BRANCH  11  12
ATOM     12  N   UNL     1       0.788  -2.158  -0.880  0.00  0.00    +0.000 NA
ATOM     13  H   UNL     1       1.822  -2.027  -0.764  0.00  0.00    +0.000 HD
BRANCH  12  14
ATOM     14  C   UNL     1       0.598  -3.200  -1.935  0.00  0.00    +0.000 C 
ATOM     15  C   UNL     1       1.185  -2.759  -3.298  0.00  0.00    +0.000 C 
ATOM     16  C   UNL     1       1.351  -4.470  -1.481  0.00  0.00    +0.000 C 
ATOM     17  C   UNL     1      -0.884  -3.592  -2.120  0.00  0.00    +0.000 C 
ENDBRANCH  12  14
ENDBRANCH  11  12
ENDBRANCH   1  11
TORSDOF 4
