REMARK  Name = 
REMARK  5 active torsions:
REMARK  status: ('A' for Active; 'I' for Inactive)
REMARK    1  A    between atoms: C_1  and  N_2
REMARK    2  A    between atoms: C_3  and  C_5
REMARK    3  A    between atoms: C_8  and  C_9
REMARK    4  A    between atoms: C_15  and  C_16
REMARK    5  A    between atoms: C_16  and  C_17
REMARK                            x       y       z     vdW  Elec       q    Type
REMARK                         _______ _______ _______ _____ _____    ______ ____
ROOT
ATOM      1  C   UNL     1      -2.144   5.567  -0.286  0.00  0.00    +0.000 A 
ATOM      2  C   UNL     1      -3.402   5.718  -0.912  0.00  0.00    +0.000 A 
ATOM      3  N   UNL     1      -3.712   6.882  -1.552  0.00  0.00    +0.000 NA
ATOM      4  C   UNL     1      -2.779   7.858  -1.600  0.00  0.00    +0.000 A 
ATOM      5  N   UNL     1      -2.911   9.044  -2.227  0.00  0.00    +0.000 NA
ATOM      6  C   UNL     1      -1.711   9.648  -2.037  0.00  0.00    +0.000 A 
ATOM      7  C   UNL     1      -0.870   8.817  -1.303  0.00  0.00    +0.000 A 
ATOM      8  N   UNL     1      -1.577   7.700  -1.033  0.00  0.00    +0.000 N 
ATOM      9  N   UNL     1      -1.252   6.597  -0.366  0.00  0.00    +0.000 NA
ENDROOT
BRANCH   1  13
ATOM     10  C   UNL     1      -0.842   1.890   1.507  0.00  0.00    +0.000 A 
ATOM     11  C   UNL     1      -0.857   3.077   2.264  0.00  0.00    +0.000 A 
ATOM     12  C   UNL     1      -1.286   4.281   1.687  0.00  0.00    +0.000 A 
ATOM     13  C   UNL     1      -1.753   4.308   0.368  0.00  0.00    +0.000 A 
ATOM     14  C   UNL     1      -1.813   3.117  -0.362  0.00  0.00    +0.000 A 
ATOM     15  C   UNL     1      -1.354   1.922   0.192  0.00  0.00    +0.000 A 
ATOM     16  F   UNL     1      -1.439   0.795  -0.560  0.00  0.00    +0.000 F 
BRANCH  10  19
ATOM     17  C   UNL     1       1.084  -0.062   0.159  0.00  0.00    +0.000 C 
ATOM     18  N   UNL     1       0.459  -0.275   1.453  0.00  0.00    +0.000 N 
ATOM     19  C   UNL     1      -0.320   0.632   2.120  0.00  0.00    +0.000 C 
ATOM     20  O   UNL     1      -0.584   0.415   3.294  0.00  0.00    +0.000 OA
ATOM     21  H   UNL     1       0.711  -1.151   1.936  0.00  0.00    +0.000 HD
ENDBRANCH  10  19
ENDBRANCH   1  13
BRANCH   7  22
ATOM     22  C   UNL     1       0.567   9.151  -0.931  0.00  0.00    +0.000 C 
BRANCH  22  23
ATOM     23  C   UNL     1       0.754   9.181   0.560  0.00  0.00    +0.000 A 
ATOM     24  C   UNL     1       0.882  10.397   1.259  0.00  0.00    +0.000 A 
ATOM     25  C   UNL     1       0.967  10.401   2.659  0.00  0.00    +0.000 A 
ATOM     26  C   UNL     1       0.921   9.191   3.366  0.00  0.00    +0.000 A 
ATOM     27  N   UNL     1       0.944   9.178   4.727  0.00  0.00    +0.000 NA
ATOM     28  C   UNL     1       0.881   8.011   5.429  0.00  0.00    +0.000 A 
ATOM     29  C   UNL     1       0.811   6.787   4.757  0.00  0.00    +0.000 A 
ATOM     30  C   UNL     1       0.806   6.773   3.367  0.00  0.00    +0.000 A 
ATOM     31  C   UNL     1       0.843   7.975   2.660  0.00  0.00    +0.000 A 
ATOM     32  C   UNL     1       0.780   7.979   1.271  0.00  0.00    +0.000 A 
ENDBRANCH  22  23
ENDBRANCH   7  22
TORSDOF 4
