REMARK  Name = 
REMARK  8 active torsions:
REMARK  status: ('A' for Active; 'I' for Inactive)
REMARK    1  A    between atoms: C_1  and  N_2
REMARK    2  A    between atoms: N_2  and  C_3
REMARK    3  A    between atoms: N_2  and  C_4
REMARK    4  A    between atoms: C_4  and  C_5
REMARK    5  A    between atoms: C_5  and  O_6
REMARK    6  A    between atoms: O_6  and  C_7
REMARK    7  A    between atoms: C_7  and  C_8
REMARK    8  A    between atoms: C_7  and  C_15
REMARK                            x       y       z     vdW  Elec       q    Type
REMARK                         _______ _______ _______ _____ _____    ______ ____
ROOT
ATOM      1  C   UNL     1       1.078   0.100  -1.709  0.00  0.00    +0.000 C 
ENDROOT
BRANCH   1   2
ATOM      2  C   UNL     1      -0.541   0.415  -1.804  0.00  0.00    +0.000 A 
ATOM      3  C   UNL     1      -1.021   1.715  -1.547  0.00  0.00    +0.000 A 
ATOM      4  C   UNL     1      -2.421   1.988  -1.488  0.00  0.00    +0.000 A 
ATOM      5  C   UNL     1      -3.373   0.984  -1.680  0.00  0.00    +0.000 A 
ATOM      6 CL   UNL     1      -5.100   1.284  -1.552  0.00  0.00    +0.000 Cl
ATOM      7  C   UNL     1      -2.947  -0.277  -2.000  0.00  0.00    +0.000 A 
ATOM      8  C   UNL     1      -1.585  -0.554  -2.093  0.00  0.00    +0.000 A 
ENDBRANCH   1   2
BRANCH   1   9
ATOM      9  C   UNL     1       1.883   0.037  -0.332  0.00  0.00    +0.000 A 
ATOM     10  C   UNL     1       2.083   1.116   0.567  0.00  0.00    +0.000 A 
ATOM     11  C   UNL     1       2.536   0.845   1.886  0.00  0.00    +0.000 A 
ATOM     12  C   UNL     1       2.809  -0.459   2.291  0.00  0.00    +0.000 A 
ATOM     13  C   UNL     1       2.728  -1.470   1.348  0.00  0.00    +0.000 A 
ATOM     14  N   UNL     1       2.297  -1.185   0.094  0.00  0.00    +0.000 NA
ENDBRANCH   1   9
BRANCH   1  15
ATOM     15  O   UNL     1       1.427  -1.094  -2.364  0.00  0.00    +0.000 OA
BRANCH  15  16
ATOM     16  C   UNL     1       0.745  -2.270  -1.989  0.00  0.00    +0.000 C 
BRANCH  16  17
ATOM     17  C   UNL     1       0.106  -2.541  -0.518  0.00  0.00    +0.000 C 
BRANCH  17  19
ATOM     18  C   UNL     1      -0.606  -0.392   1.022  0.00  0.00    +0.000 C 
ATOM     19  N   UNL     1      -0.887  -1.622   0.201  0.00  0.00    +0.000 NA
ATOM     20  C   UNL     1      -1.848  -2.366   1.018  0.00  0.00    +0.000 C 
ENDBRANCH  17  19
ENDBRANCH  16  17
ENDBRANCH  15  16
ENDBRANCH   1  15
TORSDOF 6
