REMARK  Name = 
REMARK  10 active torsions:
REMARK  status: ('A' for Active; 'I' for Inactive)
REMARK    1  A    between atoms: C_1  and  C_2
REMARK    2  A    between atoms: C_2  and  C_3
REMARK    3  A    between atoms: C_2  and  C_4
REMARK    4  A    between atoms: C_2  and  N_5
REMARK    5  A    between atoms: N_5  and  C_6
REMARK    6  A    between atoms: C_6  and  C_7
REMARK    7  A    between atoms: C_7  and  O_8
REMARK    8  A    between atoms: C_7  and  C_9
REMARK    9  A    between atoms: C_9  and  O_10
REMARK   10  A    between atoms: O_10  and  C_11
REMARK                            x       y       z     vdW  Elec       q    Type
REMARK                         _______ _______ _______ _____ _____    ______ ____
ROOT
ATOM      1  O   UNL     1       4.329  -1.019  -0.528  0.00  0.00    +0.000 OA
ENDROOT
BRANCH   1   2
ATOM      2  C   UNL     1       4.336   0.076  -1.363  0.00  0.00    +0.000 A 
ATOM      3  C   UNL     1       5.459   0.913  -1.395  0.00  0.00    +0.000 A 
ATOM      4  C   UNL     1       5.424   2.121  -2.114  0.00  0.00    +0.000 A 
ATOM      5  C   UNL     1       4.284   2.523  -2.802  0.00  0.00    +0.000 A 
ATOM      6  C   UNL     1       3.136   1.696  -2.795  0.00  0.00    +0.000 A 
ATOM      7  C   UNL     1       3.180   0.487  -2.090  0.00  0.00    +0.000 A 
ATOM      8  C   UNL     1       2.017  -0.389  -2.194  0.00  0.00    +0.000 C 
ATOM      9  C   UNL     1       0.654   0.233  -2.473  0.00  0.00    +0.000 C 
ATOM     10  C   UNL     1       0.767   1.423  -3.384  0.00  0.00    +0.000 C 
ATOM     11  O   UNL     1      -0.241   1.853  -3.899  0.00  0.00    +0.000 OA
ATOM     12  N   UNL     1       1.950   2.095  -3.493  0.00  0.00    +0.000 N 
ATOM     13  H   UNL     1       1.954   2.957  -4.037  0.00  0.00    +0.000 HD
ENDBRANCH   1   2
BRANCH   1  14
ATOM     14  C   UNL     1       4.531  -2.387  -0.719  0.00  0.00    +0.000 C 
BRANCH  14  15
ATOM     15  C   UNL     1       3.346  -3.227  -0.137  0.00  0.00    +0.000 C 
BRANCH  15  16
ATOM     16  O   UNL     1       3.781  -4.551   0.072  0.00  0.00    +0.000 OA
ATOM     17  H   UNL     1       2.999  -5.065   0.420  0.00  0.00    +0.000 HD
ENDBRANCH  15  16
BRANCH  15  18
ATOM     18  C   UNL     1       2.116  -3.285  -1.074  0.00  0.00    +0.000 C 
BRANCH  18  19
ATOM     19  N   UNL     1       0.826  -2.664  -0.656  0.00  0.00    +0.000 NA
ATOM     20  H   UNL     1       0.080  -2.912  -1.349  0.00  0.00    +0.000 HD
BRANCH  19  22
ATOM     21  C   UNL     1       0.999  -0.692   1.025  0.00  0.00    +0.000 C 
ATOM     22  C   UNL     1       0.331  -2.046   0.623  0.00  0.00    +0.000 C 
ATOM     23  C   UNL     1       0.478  -2.993   1.819  0.00  0.00    +0.000 C 
ATOM     24  C   UNL     1      -1.176  -1.759   0.411  0.00  0.00    +0.000 C 
ENDBRANCH  19  22
ENDBRANCH  18  19
ENDBRANCH  15  18
ENDBRANCH  14  15
ENDBRANCH   1  14
TORSDOF 7
