REMARK  Name = 
REMARK  13 active torsions:
REMARK  status: ('A' for Active; 'I' for Inactive)
REMARK    1  A    between atoms: C_1  and  O_2
REMARK    2  A    between atoms: O_2  and  C_3
REMARK    3  A    between atoms: C_3  and  N_4
REMARK    4  A    between atoms: C_5  and  C_7
REMARK    5  A    between atoms: C_7  and  S_8
REMARK    6  A    between atoms: S_8  and  C_9
REMARK    7  A    between atoms: C_9  and  C_10
REMARK    8  A    between atoms: C_15  and  C_16
REMARK    9  A    between atoms: C_16  and  O_18
REMARK   10  A    between atoms: C_19  and  C_20
REMARK   11  A    between atoms: C_20  and  S_21
REMARK   12  A    between atoms: S_21  and  C_22
REMARK   13  A    between atoms: N_26  and  C_27
REMARK                            x       y       z     vdW  Elec       q    Type
REMARK                         _______ _______ _______ _____ _____    ______ ____
ROOT
ATOM      1  C   UNL     1       0.956  -0.019   1.998  0.00  0.00    +0.000 C 
ATOM      2  C   UNL     1       0.278  -1.118   2.678  0.00  0.00    +0.000 C 
ATOM      3  O   UNL     1      -0.845  -1.220   3.154  0.00  0.00    +0.000 OA
ATOM      4  N   UNL     1       1.229  -2.034   2.593  0.00  0.00    +0.000 N 
ATOM      5  C   UNL     1       1.395  -3.372   2.986  0.00  0.00    +0.000 C 
ATOM      6  C   UNL     1       2.650  -3.731   3.381  0.00  0.00    +0.000 C 
ATOM      7  C   UNL     1       3.830  -2.738   3.341  0.00  0.00    +0.000 C 
ATOM      8  S   UNL     1       3.446  -0.925   3.309  0.00  0.00    +0.000 S 
ATOM      9  C   UNL     1       2.156  -1.090   2.049  0.00  0.00    +0.000 C 
ENDROOT
BRANCH   1  10
ATOM     10  N   UNL     1       1.174   1.185   2.800  0.00  0.00    +0.000 N 
ATOM     11  C   UNL     1       1.030   2.483   2.382  0.00  0.00    +0.000 C 
ATOM     12  O   UNL     1       1.297   3.381   3.169  0.00  0.00    +0.000 OA
ATOM     13  H   UNL     1       1.524   1.040   3.764  0.00  0.00    +0.000 HD
BRANCH  11  14
ATOM     14  C   UNL     1       0.536   2.887   1.011  0.00  0.00    +0.000 C 
BRANCH  14  15
ATOM     15  S   UNL     1       1.525   2.201  -0.391  0.00  0.00    +0.000 S 
BRANCH  15  16
ATOM     16  C   UNL     1       3.141   2.841   0.016  0.00  0.00    +0.000 C 
BRANCH  16  17
ATOM     17  C   UNL     1       2.907   4.278  -0.421  0.00  0.00    +0.000 C 
ATOM     18  N   UNL     1       2.712   5.470  -0.784  0.00  0.00    +0.000 NA
ENDBRANCH  16  17
ENDBRANCH  15  16
ENDBRANCH  14  15
ENDBRANCH  11  14
ENDBRANCH   1  10
BRANCH   1  20
ATOM     19  C   UNL     1       0.611  -0.640  -0.276  0.00  0.00    +0.000 C 
ATOM     20  O   UNL     1       0.197   0.168   0.811  0.00  0.00    +0.000 OA
ENDBRANCH   1  20
BRANCH   5  21
ATOM     21  C   UNL     1       0.180  -4.260   2.950  0.00  0.00    +0.000 C 
ATOM     22  O   UNL     1      -0.910  -3.786   2.668  0.00  0.00    +0.000 OA
BRANCH  21  23
ATOM     23  O   UNL     1       0.263  -5.594   3.113  0.00  0.00    +0.000 OA
ATOM     24  H   UNL     1      -0.523  -6.157   3.078  0.00  0.00    +0.000 HD
ENDBRANCH  21  23
ENDBRANCH   5  21
BRANCH   6  25
ATOM     25  C   UNL     1       2.959  -5.104   3.931  0.00  0.00    +0.000 C 
BRANCH  25  26
ATOM     26  S   UNL     1       1.884  -5.534   5.380  0.00  0.00    +0.000 S 
BRANCH  26  27
ATOM     27  C   UNL     1       2.439  -4.440   6.704  0.00  0.00    +0.000 A 
ATOM     28  N   UNL     1       3.137  -4.895   7.759  0.00  0.00    +0.000 NA
ATOM     29  N   UNL     1       3.286  -3.855   8.568  0.00  0.00    +0.000 NA
ATOM     30  N   UNL     1       2.696  -2.793   8.045  0.00  0.00    +0.000 NA
ATOM     31  N   UNL     1       2.150  -3.131   6.891  0.00  0.00    +0.000 N 
ATOM     32  C   UNL     1       1.377  -2.196   6.088  0.00  0.00    +0.000 C 
ENDBRANCH  26  27
ENDBRANCH  25  26
ENDBRANCH   6  25
TORSDOF 11
