REMARK  Name = 
REMARK  11 active torsions:
REMARK  status: ('A' for Active; 'I' for Inactive)
REMARK    1  A    between atoms: C_1  and  O_2
REMARK    2  A    between atoms: O_2  and  N_3
REMARK    3  A    between atoms: C_4  and  C_5
REMARK    4  A    between atoms: C_4  and  C_28
REMARK    5  A    between atoms: N_7  and  CA_8
REMARK    6  A    between atoms: CA_12  and  C_13
REMARK    7  A    between atoms: C_13  and  OXT_15
REMARK    8  A    between atoms: C_16  and  C_17
REMARK    9  A    between atoms: C_17  and  S_18
REMARK   10  A    between atoms: S_18  and  C_19
REMARK   11  A    between atoms: N_23  and  C_24
REMARK                            x       y       z     vdW  Elec       q    Type
REMARK                         _______ _______ _______ _____ _____    ______ ____
ROOT
ATOM      1  CA  UNL     1      -0.185  -2.107  -0.189  0.00  0.00    +0.000 C 
ATOM      2  C   UNL     1       1.176  -2.202   0.370  0.00  0.00    +0.000 C 
ATOM      3  O   UNL     1       1.760  -3.078   0.989  0.00  0.00    +0.000 OA
ATOM      4  N   UNL     1       1.670  -1.073  -0.120  0.00  0.00    +0.000 N 
ATOM      5  CA  UNL     1       2.890  -0.374  -0.197  0.00  0.00    +0.000 C 
ATOM      6  C   UNL     1       2.800   0.992  -0.237  0.00  0.00    +0.000 C 
ATOM      7  C   UNL     1       1.434   1.710  -0.204  0.00  0.00    +0.000 C 
ATOM      8  S   UNL     1      -0.007   0.761   0.458  0.00  0.00    +0.000 S 
ATOM      9  C   UNL     1       0.392  -0.668  -0.577  0.00  0.00    +0.000 C 
ENDROOT
BRANCH   1  12
ATOM     10  C   UNL     1      -2.635  -2.116   0.033  0.00  0.00    +0.000 C 
ATOM     11  O   UNL     1      -3.564  -2.068   0.824  0.00  0.00    +0.000 OA
ATOM     12  N   UNL     1      -1.378  -2.013   0.589  0.00  0.00    +0.000 N 
ATOM     13  H   UNL     1      -1.286  -1.889   1.611  0.00  0.00    +0.000 HD
BRANCH  10  15
ATOM     14  N   UNL     1      -2.236  -2.401  -2.509  0.00  0.00    +0.000 NA
ATOM     15  C   UNL     1      -3.005  -2.406  -1.456  0.00  0.00    +0.000 C 
BRANCH  15  16
ATOM     16  C   UNL     1      -4.420  -2.702  -1.809  0.00  0.00    +0.000 A 
ATOM     17  C   UNL     1      -5.535  -2.157  -1.164  0.00  0.00    +0.000 A 
ATOM     18  S   UNL     1      -6.924  -2.679  -1.956  0.00  0.00    +0.000 S 
ATOM     19  C   UNL     1      -6.058  -3.579  -3.074  0.00  0.00    +0.000 A 
ATOM     20  N   UNL     1      -6.642  -4.354  -4.098  0.00  0.00    +0.000 N 
ATOM     21  N   UNL     1      -4.726  -3.482  -2.886  0.00  0.00    +0.000 NA
ATOM     22  H   UNL     1      -7.666  -4.376  -4.210  0.00  0.00    +0.000 HD
ATOM     23  H   UNL     1      -6.051  -4.919  -4.724  0.00  0.00    +0.000 HD
ENDBRANCH  15  16
BRANCH  14  25
ATOM     24  C   UNL     1      -0.034  -2.377  -3.425  0.00  0.00    +0.000 C 
ATOM     25  O   UNL     1      -1.018  -1.921  -2.574  0.00  0.00    +0.000 OA
ENDBRANCH  14  25
ENDBRANCH  10  15
ENDBRANCH   1  12
BRANCH   5  26
ATOM     26  C   UNL     1       4.151  -1.176  -0.328  0.00  0.00    +0.000 C 
ATOM     27  O   UNL     1       4.092  -2.395  -0.286  0.00  0.00    +0.000 OA
BRANCH  26  28
ATOM     28  OXT UNL     1       5.339  -0.600  -0.606  0.00  0.00    +0.000 OA
ATOM     29  HXT UNL     1       6.142  -1.124  -0.731  0.00  0.00    +0.000 HD
ENDBRANCH  26  28
ENDBRANCH   5  26
BRANCH   6  30
ATOM     30  C   UNL     1       4.010   1.893  -0.315  0.00  0.00    +0.000 C 
BRANCH  30  31
ATOM     31  S   UNL     1       5.152   1.658   1.117  0.00  0.00    +0.000 S 
BRANCH  31  32
ATOM     32  C   UNL     1       3.990   1.872   2.474  0.00  0.00    +0.000 A 
ATOM     33  N   UNL     1       3.664   3.074   2.979  0.00  0.00    +0.000 NA
ATOM     34  N   UNL     1       2.841   2.819   3.989  0.00  0.00    +0.000 NA
ATOM     35  N   UNL     1       2.665   1.513   4.109  0.00  0.00    +0.000 NA
ATOM     36  N   UNL     1       3.374   0.903   3.180  0.00  0.00    +0.000 N 
ATOM     37  C   UNL     1       3.424  -0.548   3.037  0.00  0.00    +0.000 C 
ENDBRANCH  31  32
ENDBRANCH  30  31
ENDBRANCH   6  30
TORSDOF 9
