REMARK  Name = 
REMARK  13 active torsions:
REMARK  status: ('A' for Active; 'I' for Inactive)
REMARK    1  A    between atoms: C_1  and  N_2
REMARK    2  A    between atoms: N_2  and  C_3
REMARK    3  A    between atoms: N_2  and  C_4
REMARK    4  A    between atoms: C_4  and  C_5
REMARK    5  A    between atoms: C_5  and  N_6
REMARK    6  A    between atoms: C_10  and  S_11
REMARK    7  A    between atoms: S_11  and  C_12
REMARK    8  A    between atoms: C_12  and  C_13
REMARK    9  A    between atoms: CA_14  and  C_15
REMARK   10  A    between atoms: C_15  and  OXT_17
REMARK   11  A    between atoms: CA_21  and  N_22
REMARK   12  A    between atoms: C_23  and  C_25
REMARK   13  A    between atoms: C_25  and  C_26
REMARK                            x       y       z     vdW  Elec       q    Type
REMARK                         _______ _______ _______ _____ _____    ______ ____
ROOT
ATOM      1  C   UNL     1       3.130  -2.954  -0.829  0.00  0.00    +0.000 C 
ATOM      2  CA  UNL     1       2.668  -4.217  -0.570  0.00  0.00    +0.000 C 
ATOM      3  N   UNL     1       1.886  -4.373   0.602  0.00  0.00    +0.000 N 
ATOM      4  C   UNL     1       1.472  -5.315   1.447  0.00  0.00    +0.000 C 
ATOM      5  O   UNL     1       1.777  -6.500   1.471  0.00  0.00    +0.000 OA
ATOM      6  CA  UNL     1       0.454  -4.520   2.170  0.00  0.00    +0.000 C 
ATOM      7  C   UNL     1       1.035  -3.407   1.219  0.00  0.00    +0.000 C 
ATOM      8  S   UNL     1       2.180  -2.152   1.848  0.00  0.00    +0.000 S 
ATOM      9  C   UNL     1       3.041  -1.849   0.229  0.00  0.00    +0.000 C 
ENDROOT
BRANCH   6  10
ATOM     10  N   UNL     1       0.614  -4.249   3.583  0.00  0.00    +0.000 N 
ATOM     11  C   UNL     1      -0.408  -4.348   4.487  0.00  0.00    +0.000 C 
ATOM     12  O   UNL     1      -0.192  -4.023   5.646  0.00  0.00    +0.000 OA
ATOM     13  H   UNL     1       1.524  -3.896   3.918  0.00  0.00    +0.000 HD
BRANCH  11  14
ATOM     14  C   UNL     1      -1.810  -4.858   4.158  0.00  0.00    +0.000 C 
BRANCH  14  15
ATOM     15  C   UNL     1      -2.580  -4.030   3.161  0.00  0.00    +0.000 A 
ATOM     16  C   UNL     1      -3.307  -4.598   2.112  0.00  0.00    +0.000 A 
ATOM     17  S   UNL     1      -4.056  -3.364   1.251  0.00  0.00    +0.000 S 
ATOM     18  C   UNL     1      -3.425  -2.168   2.247  0.00  0.00    +0.000 A 
ATOM     19  N   UNL     1      -3.620  -0.783   2.045  0.00  0.00    +0.000 N 
ATOM     20  N   UNL     1      -2.655  -2.673   3.236  0.00  0.00    +0.000 NA
ATOM     21  H   UNL     1      -4.126  -0.450   1.211  0.00  0.00    +0.000 HD
ATOM     22  H   UNL     1      -3.104  -0.101   2.621  0.00  0.00    +0.000 HD
ENDBRANCH  14  15
ENDBRANCH  11  14
ENDBRANCH   6  10
BRANCH   2  23
ATOM     23  C   UNL     1       2.765  -5.362  -1.526  0.00  0.00    +0.000 C 
ATOM     24  O   UNL     1       2.177  -6.403  -1.278  0.00  0.00    +0.000 OA
BRANCH  23  25
ATOM     25  OXT UNL     1       3.475  -5.271  -2.670  0.00  0.00    +0.000 OA
ATOM     26  HXT UNL     1       3.518  -6.002  -3.301  0.00  0.00    +0.000 HD
ENDBRANCH  23  25
ENDBRANCH   2  23
BRANCH   1  27
ATOM     27  C   UNL     1       3.612  -2.541  -2.234  0.00  0.00    +0.000 C 
BRANCH  27  28
ATOM     28  S   UNL     1       3.922  -0.730  -2.551  0.00  0.00    +0.000 S 
BRANCH  28  33
ATOM     29  N   UNL     1       1.100   0.219  -2.965  0.00  0.00    +0.000 N 
ATOM     30  N   UNL     1       0.573   1.428  -3.050  0.00  0.00    +0.000 NA
ATOM     31  N   UNL     1       1.516   2.329  -2.872  0.00  0.00    +0.000 NA
ATOM     32  N   UNL     1       2.679   1.723  -2.693  0.00  0.00    +0.000 NA
ATOM     33  C   UNL     1       2.446   0.395  -2.749  0.00  0.00    +0.000 A 
BRANCH  29  34
ATOM     34  C   UNL     1       0.232  -0.944  -3.066  0.00  0.00    +0.000 C 
BRANCH  34  35
ATOM     35  C   UNL     1       0.248  -1.702  -1.771  0.00  0.00    +0.000 C 
BRANCH  35  37
ATOM     36  C   UNL     1       0.319   0.381  -0.161  0.00  0.00    +0.000 C 
ATOM     37  N   UNL     1      -0.138  -0.982  -0.527  0.00  0.00    +0.000 NA
ATOM     38  C   UNL     1      -1.546  -1.124  -0.226  0.00  0.00    +0.000 C 
ENDBRANCH  35  37
ENDBRANCH  34  35
ENDBRANCH  29  34
ENDBRANCH  28  33
ENDBRANCH  27  28
ENDBRANCH   1  27
TORSDOF 11
