REMARK  Name = 
REMARK  10 active torsions:
REMARK  status: ('A' for Active; 'I' for Inactive)
REMARK    1  A    between atoms: C_1  and  O_2
REMARK    2  A    between atoms: O_2  and  N_3
REMARK    3  A    between atoms: C_4  and  C_5
REMARK    4  A    between atoms: C_4  and  C_25
REMARK    5  A    between atoms: N_7  and  CA_8
REMARK    6  A    between atoms: CA_12  and  C_13
REMARK    7  A    between atoms: C_13  and  OXT_15
REMARK    8  A    between atoms: C_16  and  C_17
REMARK    9  A    between atoms: C_17  and  O_18
REMARK   10  A    between atoms: O_18  and  C_19
REMARK                            x       y       z     vdW  Elec       q    Type
REMARK                         _______ _______ _______ _____ _____    ______ ____
ROOT
ATOM      1  CA  UNL     1      -0.246  -1.817   1.018  0.00  0.00    +0.000 C 
ATOM      2  C   UNL     1       1.186  -1.851   0.665  0.00  0.00    +0.000 C 
ATOM      3  O   UNL     1       2.128  -2.522   1.076  0.00  0.00    +0.000 OA
ATOM      4  N   UNL     1       1.164  -1.018  -0.363  0.00  0.00    +0.000 N 
ATOM      5  CA  UNL     1       2.044  -0.496  -1.330  0.00  0.00    +0.000 C 
ATOM      6  C   UNL     1       1.833   0.811  -1.695  0.00  0.00    +0.000 C 
ATOM      7  C   UNL     1       0.639   1.607  -1.118  0.00  0.00    +0.000 C 
ATOM      8  S   UNL     1       0.008   1.073   0.528  0.00  0.00    +0.000 S 
ATOM      9  C   UNL     1      -0.169  -0.641  -0.064  0.00  0.00    +0.000 C 
ENDROOT
BRANCH   1  12
ATOM     10  C   UNL     1      -2.252  -1.581   2.406  0.00  0.00    +0.000 C 
ATOM     11  O   UNL     1      -2.728  -1.145   3.438  0.00  0.00    +0.000 OA
ATOM     12  N   UNL     1      -0.905  -1.354   2.200  0.00  0.00    +0.000 N 
ATOM     13  H   UNL     1      -0.357  -0.828   2.902  0.00  0.00    +0.000 HD
BRANCH  10  15
ATOM     14  N   UNL     1      -3.044  -2.897   0.314  0.00  0.00    +0.000 NA
ATOM     15  C   UNL     1      -3.202  -2.447   1.527  0.00  0.00    +0.000 C 
BRANCH  15  16
ATOM     16  C   UNL     1      -4.554  -2.760   2.035  0.00  0.00    +0.000 A 
ATOM     17  C   UNL     1      -5.281  -3.893   1.716  0.00  0.00    +0.000 A 
ATOM     18  C   UNL     1      -6.531  -3.702   2.248  0.00  0.00    +0.000 A 
ATOM     19  C   UNL     1      -6.502  -2.460   2.850  0.00  0.00    +0.000 A 
ATOM     20  O   UNL     1      -5.305  -1.929   2.723  0.00  0.00    +0.000 OA
ENDBRANCH  15  16
BRANCH  14  22
ATOM     21  C   UNL     1      -1.589  -3.354  -1.506  0.00  0.00    +0.000 C 
ATOM     22  O   UNL     1      -2.123  -2.531  -0.541  0.00  0.00    +0.000 OA
ENDBRANCH  14  22
ENDBRANCH  10  15
ENDBRANCH   1  12
BRANCH   5  23
ATOM     23  C   UNL     1       3.095  -1.399  -1.906  0.00  0.00    +0.000 C 
ATOM     24  O   UNL     1       3.153  -2.555  -1.522  0.00  0.00    +0.000 OA
BRANCH  23  25
ATOM     25  OXT UNL     1       3.865  -1.021  -2.946  0.00  0.00    +0.000 OA
ATOM     26  HXT UNL     1       4.474  -1.636  -3.378  0.00  0.00    +0.000 HD
ENDBRANCH  23  25
ENDBRANCH   5  23
BRANCH   6  27
ATOM     27  C   UNL     1       2.747   1.548  -2.647  0.00  0.00    +0.000 C 
BRANCH  27  28
ATOM     28  O   UNL     1       4.064   1.455  -2.222  0.00  0.00    +0.000 OA
BRANCH  28  29
ATOM     29  C   UNL     1       4.587   1.811  -1.015  0.00  0.00    +0.000 C 
ATOM     30  N   UNL     1       3.876   2.501  -0.090  0.00  0.00    +0.000 N 
ATOM     31  O   UNL     1       5.731   1.475  -0.755  0.00  0.00    +0.000 OA
ATOM     32  H   UNL     1       4.295   2.728   0.823  0.00  0.00    +0.000 HD
ATOM     33  H   UNL     1       2.919   2.820  -0.268  0.00  0.00    +0.000 HD
ENDBRANCH  28  29
ENDBRANCH  27  28
ENDBRANCH   6  27
TORSDOF 9
