REMARK  Name = 
REMARK  17 active torsions:
REMARK  status: ('A' for Active; 'I' for Inactive)
REMARK    1  A    between atoms: C_1  and  C_2
REMARK    2  A    between atoms: C_2  and  N_3
REMARK    3  A    between atoms: N_3  and  C_4
REMARK    4  A    between atoms: C_4  and  C_5
REMARK    5  A    between atoms: N_8  and  C_9
REMARK    6  A    between atoms: C_12  and  O_13
REMARK    7  A    between atoms: O_13  and  C_14
REMARK    8  A    between atoms: C_14  and  C_15
REMARK    9  A    between atoms: C_15  and  O_16
REMARK   10  A    between atoms: C_15  and  C_17
REMARK   11  A    between atoms: C_17  and  N_18
REMARK   12  A    between atoms: N_18  and  C_19
REMARK   13  A    between atoms: C_19  and  C_20
REMARK   14  A    between atoms: C_19  and  C_21
REMARK   15  A    between atoms: C_19  and  C_22
REMARK   16  A    between atoms: C_23  and  C_24
REMARK   17  A    between atoms: C_24  and  C_25
REMARK                            x       y       z     vdW  Elec       q    Type
REMARK                         _______ _______ _______ _____ _____    ______ ____
ROOT
ATOM      1  C   UNL     1       2.103  -3.685  -3.775  0.00  0.00    +0.000 A 
ATOM      2  C   UNL     1       1.953  -5.028  -3.464  0.00  0.00    +0.000 A 
ATOM      3  C   UNL     1       1.039  -5.799  -4.179  0.00  0.00    +0.000 A 
ATOM      4  C   UNL     1       0.248  -5.254  -5.219  0.00  0.00    +0.000 A 
ATOM      5  C   UNL     1       0.503  -3.884  -5.637  0.00  0.00    +0.000 A 
ATOM      6  C   UNL     1       1.458  -3.165  -4.886  0.00  0.00    +0.000 A 
ENDROOT
BRANCH   1  10
ATOM      7  N   UNL     1       1.097  -1.195  -2.221  0.00  0.00    +0.000 N 
ATOM      8  C   UNL     1       2.418  -1.677  -2.288  0.00  0.00    +0.000 C 
ATOM      9  O   UNL     1       3.283  -1.027  -1.713  0.00  0.00    +0.000 OA
ATOM     10  N   UNL     1       2.853  -2.829  -2.924  0.00  0.00    +0.000 N 
ATOM     11  H   UNL     1       3.826  -3.127  -2.738  0.00  0.00    +0.000 HD
BRANCH   7  13
ATOM     12  C   UNL     1       1.083  -0.056   0.001  0.00  0.00    +0.000 C 
ATOM     13  C   UNL     1       0.816   0.058  -1.504  0.00  0.00    +0.000 C 
ENDBRANCH   7  13
BRANCH   7  14
ATOM     14  C   UNL     1      -0.108  -1.855  -2.741  0.00  0.00    +0.000 C 
ATOM     15  C   UNL     1      -0.708  -1.065  -3.920  0.00  0.00    +0.000 C 
ENDBRANCH   7  14
ENDBRANCH   1  10
BRANCH   5  16
ATOM     16  C   UNL     1      -0.110  -3.040  -6.756  0.00  0.00    +0.000 C 
ATOM     17  C   UNL     1      -1.316  -3.302  -7.587  0.00  0.00    +0.000 C 
ATOM     18  O   UNL     1       0.415  -1.966  -7.019  0.00  0.00    +0.000 OA
ENDBRANCH   5  16
BRANCH   4  19
ATOM     19  O   UNL     1      -0.668  -6.123  -5.748  0.00  0.00    +0.000 OA
BRANCH  19  20
ATOM     20  C   UNL     1      -2.063  -6.096  -5.882  0.00  0.00    +0.000 C 
BRANCH  20  21
ATOM     21  C   UNL     1      -2.892  -5.152  -4.935  0.00  0.00    +0.000 C 
BRANCH  21  22
ATOM     22  O   UNL     1      -2.093  -4.154  -4.363  0.00  0.00    +0.000 OA
ATOM     23  H   UNL     1      -1.749  -4.506  -3.500  0.00  0.00    +0.000 HD
ENDBRANCH  21  22
BRANCH  21  24
ATOM     24  C   UNL     1      -4.094  -4.423  -5.599  0.00  0.00    +0.000 C 
BRANCH  24  25
ATOM     25  N   UNL     1      -5.032  -5.307  -6.313  0.00  0.00    +0.000 NA
ATOM     26  H   UNL     1      -4.505  -5.860  -7.027  0.00  0.00    +0.000 HD
BRANCH  25  27
ATOM     27  C   UNL     1      -6.151  -4.614  -7.018  0.00  0.00    +0.000 C 
ATOM     28  C   UNL     1      -5.649  -3.755  -8.208  0.00  0.00    +0.000 C 
ATOM     29  C   UNL     1      -7.091  -5.701  -7.575  0.00  0.00    +0.000 C 
ATOM     30  C   UNL     1      -6.971  -3.718  -6.062  0.00  0.00    +0.000 C 
ENDBRANCH  25  27
ENDBRANCH  24  25
ENDBRANCH  21  24
ENDBRANCH  20  21
ENDBRANCH  19  20
ENDBRANCH   4  19
TORSDOF 11
