REMARK  Name = 
REMARK  19 active torsions:
REMARK  status: ('A' for Active; 'I' for Inactive)
REMARK    1  A    between atoms: C_1  and  C_2
REMARK    2  A    between atoms: C_2  and  N_3
REMARK    3  A    between atoms: N_3  and  C_4
REMARK    4  A    between atoms: N_3  and  C_6
REMARK    5  A    between atoms: N_3  and  C_8
REMARK    6  A    between atoms: C_4  and  C_5
REMARK    7  A    between atoms: C_6  and  C_7
REMARK    8  A    between atoms: C_8  and  C_9
REMARK    9  A    between atoms: C_9  and  O_10
REMARK   10  A    between atoms: O_10  and  C_11
REMARK   11  A    between atoms: C_14  and  C_15
REMARK   12  A    between atoms: N_17  and  C_18
REMARK   13  A    between atoms: C_18  and  C_19
REMARK   14  A    between atoms: C_19  and  C_20
REMARK   15  A    between atoms: C_20  and  C_21
REMARK   16  A    between atoms: C_21  and  C_22
REMARK   17  A    between atoms: C_22  and  C_23
REMARK   18  A    between atoms: N_25  and  N_26
REMARK   19  A    between atoms: N_26  and  C_27
REMARK                            x       y       z     vdW  Elec       q    Type
REMARK                         _______ _______ _______ _____ _____    ______ ____
ROOT
ATOM      1  C   UNL     1      -5.433  -0.458  -0.830  0.00  0.00    +0.000 C 
ENDROOT
BRANCH   1   2
ATOM      2  C   UNL     1      -3.919  -0.164  -0.677  0.00  0.00    +0.000 C 
BRANCH   2   3
ATOM      3  C   UNL     1      -3.684   1.098  -0.128  0.00  0.00    +0.000 C 
BRANCH   3   6
ATOM      4  C   UNL     1      -3.212   1.008   2.417  0.00  0.00    +0.000 C 
ATOM      5  O   UNL     1      -3.755   1.041   3.486  0.00  0.00    +0.000 OA
ATOM      6  N   UNL     1      -4.021   1.010   1.278  0.00  0.00    +0.000 N 
ATOM      7  H   UNL     1      -5.027   0.883   1.408  0.00  0.00    +0.000 HD
BRANCH   4  11
ATOM      8  C   UNL     1       0.938   2.065   2.114  0.00  0.00    +0.000 A 
ATOM      9  C   UNL     1       0.509   1.826   3.367  0.00  0.00    +0.000 A 
ATOM     10  C   UNL     1      -0.876   1.426   3.574  0.00  0.00    +0.000 A 
ATOM     11  C   UNL     1      -1.746   1.184   2.497  0.00  0.00    +0.000 A 
ATOM     12  C   UNL     1      -1.273   1.371   1.410  0.00  0.00    +0.000 A 
ATOM     13  C   UNL     1      -0.204   2.083   1.271  0.00  0.00    +0.000 A 
BRANCH   8  14
ATOM     14  O   UNL     1       2.322   2.288   1.708  0.00  0.00    +0.000 OA
BRANCH  14  15
ATOM     15  C   UNL     1       3.057   2.586   0.446  0.00  0.00    +0.000 C 
BRANCH  15  16
ATOM     16  C   UNL     1       2.623   2.185  -1.073  0.00  0.00    +0.000 C 
BRANCH  16  17
ATOM     17  N   UNL     1       1.168   2.119  -1.260  0.00  0.00    +0.000 N 
BRANCH  17  19
ATOM     18  C   UNL     1       1.237  -0.583  -0.220  0.00  0.00    +0.000 C 
ATOM     19  C   UNL     1       0.906   0.806  -0.510  0.00  0.00    +0.000 C 
ENDBRANCH  17  19
BRANCH  17  20
ATOM     20  C   UNL     1       0.564   1.665  -2.534  0.00  0.00    +0.000 C 
ATOM     21  C   UNL     1      -1.016   1.656  -2.496  0.00  0.00    +0.000 C 
ENDBRANCH  17  20
BRANCH  17  22
ATOM     22  C   UNL     1       0.618   3.627  -1.014  0.00  0.00    +0.000 C 
ATOM     23  C   UNL     1       0.886   4.431   0.340  0.00  0.00    +0.000 C 
ENDBRANCH  17  22
ENDBRANCH  16  17
ENDBRANCH  15  16
ENDBRANCH  14  15
ENDBRANCH   8  14
ENDBRANCH   4  11
ENDBRANCH   3   6
ENDBRANCH   2   3
ENDBRANCH   1   2
BRANCH   1  24
ATOM     24  C   UNL     1      -5.980   0.507  -1.828  0.00  0.00    +0.000 C 
BRANCH  24  25
ATOM     25  C   UNL     1      -5.314   0.419  -3.219  0.00  0.00    +0.000 C 
BRANCH  25  26
ATOM     26  C   UNL     1      -5.599  -0.879  -3.860  0.00  0.00    +0.000 C 
ATOM     27  O   UNL     1      -6.312  -0.878  -4.863  0.00  0.00    +0.000 OA
ATOM     28  N   UNL     1      -5.165  -2.071  -3.362  0.00  0.00    +0.000 N 
ATOM     29  H   UNL     1      -5.620  -2.704  -3.934  0.00  0.00    +0.000 HD
BRANCH  28  30
ATOM     30  N   UNL     1      -4.273  -2.269  -2.284  0.00  0.00    +0.000 N 
ATOM     31  H   UNL     1      -3.792  -1.568  -2.258  0.00  0.00    +0.000 HD
BRANCH  30  32
ATOM     32  C   UNL     1      -4.044  -3.229  -1.181  0.00  0.00    +0.000 A 
ATOM     33  C   UNL     1      -4.080  -4.742  -2.118  0.00  0.00    +0.000 A 
ATOM     34  C   UNL     1      -3.467  -6.108  -1.429  0.00  0.00    +0.000 A 
ATOM     35  N   UNL     1      -2.635  -6.020  -0.064  0.00  0.00    +0.000 NA
ATOM     36  C   UNL     1      -2.167  -4.661   0.324  0.00  0.00    +0.000 A 
ATOM     37  C   UNL     1      -2.313  -4.373  -0.376  0.00  0.00    +0.000 A 
ATOM     38  C   UNL     1      -1.608  -2.631  -0.362  0.00  0.00    +0.000 A 
ATOM     39  C   UNL     1      -1.505  -2.211   1.084  0.00  0.00    +0.000 A 
ATOM     40  C   UNL     1      -2.017  -3.178   1.858  0.00  0.00    +0.000 A 
ATOM     41  C   UNL     1      -2.976  -3.868   0.895  0.00  0.00    +0.000 A 
ATOM     42  C   UNL     1      -3.962  -7.327  -1.997  0.00  0.00    +0.000 C 
ATOM     43  C   UNL     1      -5.489  -7.389  -2.050  0.00  0.00    +0.000 C 
ATOM     44  C   UNL     1      -6.062  -6.137  -2.661  0.00  0.00    +0.000 C 
ATOM     45  C   UNL     1      -4.983  -5.249  -3.329  0.00  0.00    +0.000 C 
ENDBRANCH  30  32
ENDBRANCH  28  30
ENDBRANCH  25  26
ENDBRANCH  24  25
ENDBRANCH   1  24
TORSDOF 16
