REMARK  Name = 
REMARK  6 active torsions:
REMARK  status: ('A' for Active; 'I' for Inactive)
REMARK    1  A    between atoms: C_1  and  C_2
REMARK    2  A    between atoms: C_5  and  N_6
REMARK    3  A    between atoms: N_9  and  C_10
REMARK    4  A    between atoms: C_10  and  C_11
REMARK    5  A    between atoms: C_13  and  C_14
REMARK    6  A    between atoms: C_22  and  C_23
REMARK                            x       y       z     vdW  Elec       q    Type
REMARK                         _______ _______ _______ _____ _____    ______ ____
ROOT
ATOM      1  N   UNL     1      -1.997  -2.217  -0.646  0.00  0.00    +0.000 N 
ATOM      2  C   UNL     1      -3.045  -2.018  -1.670  0.00  0.00    +0.000 C 
ATOM      3  C   UNL     1      -3.962  -3.225  -1.853  0.00  0.00    +0.000 C 
ATOM      4  N   UNL     1      -4.296  -3.859  -0.571  0.00  0.00    +0.000 NA
ATOM      5  C   UNL     1      -3.092  -4.422   0.022  0.00  0.00    +0.000 C 
ATOM      6  C   UNL     1      -2.104  -3.323   0.348  0.00  0.00    +0.000 C 
ENDROOT
BRANCH   1  11
ATOM      7  C   UNL     1       2.603   1.223   0.035  0.00  0.00    +0.000 C 
ATOM      8  C   UNL     1       1.389   0.369  -0.124  0.00  0.00    +0.000 A 
ATOM      9  C   UNL     1       1.476  -1.011  -0.008  0.00  0.00    +0.000 A 
ATOM     10  C   UNL     1       0.347  -1.795  -0.159  0.00  0.00    +0.000 A 
ATOM     11  C   UNL     1      -0.923  -1.261  -0.451  0.00  0.00    +0.000 A 
ATOM     12  C   UNL     1      -1.012   0.181  -0.565  0.00  0.00    +0.000 A 
ATOM     13  C   UNL     1      -2.246   1.037  -0.824  0.00  0.00    +0.000 C 
ATOM     14  C   UNL     1       0.151   0.949  -0.401  0.00  0.00    +0.000 A 
ENDBRANCH   1  11
BRANCH   4  15
ATOM     15  C   UNL     1      -5.406  -3.348   0.301  0.00  0.00    +0.000 C 
BRANCH  15  16
ATOM     16  C   UNL     1      -5.130  -2.365   1.518  0.00  0.00    +0.000 C 
ATOM     17  C   UNL     1      -5.712  -0.957   1.193  0.00  0.00    +0.000 C 
ATOM     18  C   UNL     1      -4.244  -1.115   1.434  0.00  0.00    +0.000 C 
BRANCH  18  19
ATOM     19  C   UNL     1      -3.241  -0.966   2.574  0.00  0.00    +0.000 A 
ATOM     20  C   UNL     1      -2.467   0.205   2.528  0.00  0.00    +0.000 A 
ATOM     21  C   UNL     1      -1.270   0.304   3.234  0.00  0.00    +0.000 A 
ATOM     22  C   UNL     1      -0.832  -0.766   4.023  0.00  0.00    +0.000 A 
ATOM     23  C   UNL     1      -1.615  -1.923   4.133  0.00  0.00    +0.000 A 
ATOM     24  C   UNL     1      -2.826  -2.023   3.429  0.00  0.00    +0.000 A 
ENDBRANCH  18  19
ENDBRANCH  15  16
ENDBRANCH   4  15
TORSDOF 4
