REMARK  Name = 
REMARK  9 active torsions:
REMARK  status: ('A' for Active; 'I' for Inactive)
REMARK    1  A    between atoms: C_1  and  O_2
REMARK    2  A    between atoms: O_2  and  C_3
REMARK    3  A    between atoms: C_3  and  C_4
REMARK    4  A    between atoms: C_4  and  C_5
REMARK    5  A    between atoms: C_5  and  N_6
REMARK    6  A    between atoms: N_6  and  C_7
REMARK    7  A    between atoms: N_6  and  C_18
REMARK    8  A    between atoms: C_7  and  C_8
REMARK    9  A    between atoms: C_13  and  C_14
REMARK                            x       y       z     vdW  Elec       q    Type
REMARK                         _______ _______ _______ _____ _____    ______ ____
ROOT
ATOM      1  N   UNL     1       2.387  -0.716   1.978  0.00  0.00    +0.000 NA
ENDROOT
BRANCH   1   2
ATOM      2  C   UNL     1       3.228   0.458   1.498  0.00  0.00    +0.000 C 
ATOM      3  C   UNL     1       4.215   0.925   2.591  0.00  0.00    +0.000 C 
ATOM      4  C   UNL     1       3.587   1.965   3.537  0.00  0.00    +0.000 C 
ATOM      5  N   UNL     1       3.185   3.145   2.766  0.00  0.00    +0.000 NA
ATOM      6  C   UNL     1       2.117   2.791   1.835  0.00  0.00    +0.000 C 
ATOM      7  C   UNL     1       2.605   1.715   0.837  0.00  0.00    +0.000 C 
ATOM      8  H   UNL     1       2.829   3.876   3.422  0.00  0.00    +0.000 HD
ENDBRANCH   1   2
BRANCH   1   9
ATOM      9  C   UNL     1       0.929  -0.956   2.263  0.00  0.00    +0.000 C 
BRANCH   9  10
ATOM     10  C   UNL     1      -0.046   0.157   2.661  0.00  0.00    +0.000 C 
BRANCH  10  11
ATOM     11  C   UNL     1      -0.690   0.959   1.510  0.00  0.00    +0.000 C 
BRANCH  11  13
ATOM     12  C   UNL     1      -0.813  -0.175  -0.553  0.00  0.00    +0.000 C 
ATOM     13  O   UNL     1      -1.475   0.142   0.660  0.00  0.00    +0.000 OA
ENDBRANCH  11  13
ENDBRANCH  10  11
ENDBRANCH   9  10
ENDBRANCH   1   9
BRANCH   1  14
ATOM     14  C   UNL     1       3.035  -2.037   1.694  0.00  0.00    +0.000 C 
BRANCH  14  15
ATOM     15  C   UNL     1       2.608  -2.657   0.349  0.00  0.00    +0.000 A 
ATOM     16  C   UNL     1       2.098  -1.807  -0.657  0.00  0.00    +0.000 A 
ATOM     17  C   UNL     1       1.628  -2.294  -1.870  0.00  0.00    +0.000 A 
ATOM     18  C   UNL     1       1.648  -3.656  -2.124  0.00  0.00    +0.000 A 
ATOM     19  C   UNL     1       2.166  -4.529  -1.171  0.00  0.00    +0.000 A 
ATOM     20  C   UNL     1       2.665  -4.063   0.061  0.00  0.00    +0.000 A 
BRANCH  20  21
ATOM     21  C   UNL     1       3.209  -5.146   0.983  0.00  0.00    +0.000 C 
ATOM     22  F   UNL     1       2.186  -6.027   1.298  0.00  0.00    +0.000 F 
ATOM     23  F   UNL     1       4.198  -5.846   0.314  0.00  0.00    +0.000 F 
ATOM     24  F   UNL     1       3.756  -4.676   2.155  0.00  0.00    +0.000 F 
ENDBRANCH  20  21
ENDBRANCH  14  15
ENDBRANCH   1  14
TORSDOF 8
