REMARK  Name = 
REMARK  5 active torsions:
REMARK  status: ('A' for Active; 'I' for Inactive)
REMARK    1  A    between atoms: N_8  and  C_9
REMARK    2  A    between atoms: C_9  and  C_10
REMARK    3  A    between atoms: C_10  and  C_11
REMARK    4  A    between atoms: C_11  and  C_12
REMARK    5  A    between atoms: C_12  and  N_13
REMARK                            x       y       z     vdW  Elec       q    Type
REMARK                         _______ _______ _______ _____ _____    ______ ____
ROOT
ATOM      1  C   UNL     1       2.249   4.354   1.700  0.00  0.00    +0.000 C 
ENDROOT
BRANCH   1   2
ATOM      2  C   UNL     1       1.380   5.550   1.206  0.00  0.00    +0.000 C 
BRANCH   2  10
ATOM      3  C   UNL     1      -0.469  -1.558   0.086  0.00  0.00    +0.000 A 
ATOM      4  C   UNL     1       0.660  -0.814  -0.200  0.00  0.00    +0.000 A 
ATOM      5  N   UNL     1       0.543   0.515  -0.375  0.00  0.00    +0.000 NA
ATOM      6  C   UNL     1      -0.645   1.178  -0.236  0.00  0.00    +0.000 A 
ATOM      7  N   UNL     1      -0.651   2.622  -0.343  0.00  0.00    +0.000 N 
ATOM      8  C   UNL     1       0.580   3.117  -0.902  0.00  0.00    +0.000 C 
ATOM      9  C   UNL     1       0.652   4.638  -1.054  0.00  0.00    +0.000 C 
ATOM     10  N   UNL     1       0.300   5.294   0.203  0.00  0.00    +0.000 NA
ATOM     11  C   UNL     1      -1.045   4.871   0.666  0.00  0.00    +0.000 C 
ATOM     12  C   UNL     1      -1.165   3.341   0.827  0.00  0.00    +0.000 C 
ATOM     13  N   UNL     1      -1.764   0.468   0.068  0.00  0.00    +0.000 NA
ATOM     14  C   UNL     1      -1.691  -0.889   0.204  0.00  0.00    +0.000 A 
ENDBRANCH   2  10
ENDBRANCH   1   2
BRANCH   1  15
ATOM     15  C   UNL     1       3.351   3.812   0.732  0.00  0.00    +0.000 C 
BRANCH  15  16
ATOM     16  C   UNL     1       4.512   4.749   0.447  0.00  0.00    +0.000 C 
BRANCH  16  17
ATOM     17  N   UNL     1       5.481   4.578   1.499  0.00  0.00    +0.000 N 
ATOM     18  C   UNL     1       6.625   3.751   1.314  0.00  0.00    +0.000 C 
ATOM     19  N   UNL     1       7.062   3.093   2.326  0.00  0.00    +0.000 NA
ATOM     20  C   UNL     1       8.152   2.197   2.234  0.00  0.00    +0.000 A 
ATOM     21  C   UNL     1       8.530   1.425   3.334  0.00  0.00    +0.000 A 
ATOM     22  C   UNL     1       9.626   0.561   3.228  0.00  0.00    +0.000 A 
ATOM     23  C   UNL     1      10.339   0.478   2.027  0.00  0.00    +0.000 A 
ATOM     24  C   UNL     1       9.941   1.236   0.921  0.00  0.00    +0.000 A 
ATOM     25  C   UNL     1       8.836   2.087   1.023  0.00  0.00    +0.000 A 
ATOM     26  O   UNL     1       8.419   2.786  -0.046  0.00  0.00    +0.000 OA
ATOM     27  C   UNL     1       7.286   3.588  -0.068  0.00  0.00    +0.000 C 
ATOM     28  H   UNL     1       5.178   4.791   2.462  0.00  0.00    +0.000 HD
ENDBRANCH  16  17
ENDBRANCH  15  16
ENDBRANCH   1  15
TORSDOF 5
