REMARK  Name = 
REMARK  10 active torsions:
REMARK  status: ('A' for Active; 'I' for Inactive)
REMARK    1  A    between atoms: C_1  and  C_2
REMARK    2  A    between atoms: C_2  and  C_3
REMARK    3  A    between atoms: C_2  and  C_4
REMARK    4  A    between atoms: C_2  and  C_5
REMARK    5  A    between atoms: C_7  and  C_8
REMARK    6  A    between atoms: C_17  and  C_18
REMARK    7  A    between atoms: C_18  and  C_19
REMARK    8  A    between atoms: C_18  and  C_20
REMARK    9  A    between atoms: C_18  and  C_21
REMARK   10  A    between atoms: C_22  and  O_23
REMARK                            x       y       z     vdW  Elec       q    Type
REMARK                         _______ _______ _______ _____ _____    ______ ____
ROOT
ATOM      1  C   UNL     1       0.973  -1.803  -1.498  0.00  0.00    +0.000 A 
ATOM      2  C   UNL     1       0.796  -3.153  -1.866  0.00  0.00    +0.000 A 
ATOM      3  C   UNL     1       1.289  -3.660  -3.059  0.00  0.00    +0.000 A 
ATOM      4  C   UNL     1       1.905  -2.801  -3.963  0.00  0.00    +0.000 A 
ATOM      5  C   UNL     1       2.057  -1.411  -3.721  0.00  0.00    +0.000 A 
ATOM      6  C   UNL     1       1.602  -0.921  -2.438  0.00  0.00    +0.000 A 
ENDROOT
BRANCH   3   7
ATOM      7  C   UNL     1       1.142  -5.117  -3.333  0.00  0.00    +0.000 C 
ATOM      8  C   UNL     1       2.140  -5.904  -3.790  0.00  0.00    +0.000 C 
ATOM      9  S   UNL     1       3.847  -5.365  -4.052  0.00  0.00    +0.000 S 
ATOM     10  C   UNL     1       4.268  -7.107  -4.194  0.00  0.00    +0.000 C 
ATOM     11  N   UNL     1       5.480  -7.520  -4.254  0.00  0.00    +0.000 NA
ATOM     12  N   UNL     1       3.168  -7.991  -4.198  0.00  0.00    +0.000 N 
ATOM     13  C   UNL     1       2.004  -7.357  -3.990  0.00  0.00    +0.000 C 
ATOM     14  O   UNL     1       0.942  -7.957  -3.929  0.00  0.00    +0.000 OA
ATOM     15  H   UNL     1       5.701  -8.525  -4.317  0.00  0.00    +0.000 HD
ATOM     16  H   UNL     1       3.247  -9.013  -4.328  0.00  0.00    +0.000 HD
ENDBRANCH   3   7
BRANCH   1  18
ATOM     17  C   UNL     1       0.828   0.060   0.380  0.00  0.00    +0.000 C 
ATOM     18  C   UNL     1       0.463  -1.379  -0.077  0.00  0.00    +0.000 C 
ATOM     19  C   UNL     1       1.070  -2.316   1.000  0.00  0.00    +0.000 C 
ATOM     20  C   UNL     1      -1.074  -1.483  -0.057  0.00  0.00    +0.000 C 
ENDBRANCH   1  18
BRANCH   5  21
ATOM     21  C   UNL     1       2.684  -0.592  -4.906  0.00  0.00    +0.000 C 
ATOM     22  C   UNL     1       4.086  -1.155  -5.246  0.00  0.00    +0.000 C 
ATOM     23  C   UNL     1       1.758  -0.720  -6.144  0.00  0.00    +0.000 C 
ATOM     24  C   UNL     1       2.874   0.920  -4.685  0.00  0.00    +0.000 C 
ENDBRANCH   5  21
BRANCH   6  25
ATOM     25  O   UNL     1       1.708   0.364  -2.051  0.00  0.00    +0.000 OA
ATOM     26  H   UNL     1       2.087   1.141  -2.448  0.00  0.00    +0.000 HD
ENDBRANCH   6  25
TORSDOF 4
