REMARK  Name = 
REMARK  7 active torsions:
REMARK  status: ('A' for Active; 'I' for Inactive)
REMARK    1  A    between atoms: C_1  and  O_2
REMARK    2  A    between atoms: O_2  and  C_3
REMARK    3  A    between atoms: C_3  and  C_5
REMARK    4  A    between atoms: C_6  and  C_7
REMARK    5  A    between atoms: C_10  and  O_11
REMARK    6  A    between atoms: O_11  and  C_12
REMARK    7  A    between atoms: N_21  and  C_22
REMARK                            x       y       z     vdW  Elec       q    Type
REMARK                         _______ _______ _______ _____ _____    ______ ____
ROOT
ATOM      1  C   UNL     1       0.598  -2.899   1.444  0.00  0.00    +0.000 C 
ATOM      2  C   UNL     1       1.810  -3.265   2.454  0.00  0.00    +0.000 C 
ATOM      3  C   UNL     1       2.657  -4.518   2.026  0.00  0.00    +0.000 C 
ATOM      4  C   UNL     1       1.924  -5.578   1.154  0.00  0.00    +0.000 C 
ATOM      5  C   UNL     1       0.708  -6.343   1.728  0.00  0.00    +0.000 C 
ATOM      6  C   UNL     1      -0.514  -5.583   1.085  0.00  0.00    +0.000 C 
ATOM      7  C   UNL     1       0.069  -4.200   0.694  0.00  0.00    +0.000 C 
ATOM      8  N   UNL     1       1.315  -4.765   0.142  0.00  0.00    +0.000 NA
ATOM      9  C   UNL     1       1.908  -4.610  -1.189  0.00  0.00    +0.000 C 
ENDROOT
BRANCH   2  10
ATOM     10  C   UNL     1       1.428  -3.209   3.942  0.00  0.00    +0.000 A 
ATOM     11  C   UNL     1       0.425  -3.997   4.546  0.00  0.00    +0.000 A 
ATOM     12  C   UNL     1      -0.039  -3.683   5.838  0.00  0.00    +0.000 A 
ATOM     13  C   UNL     1       0.486  -2.599   6.551  0.00  0.00    +0.000 A 
ATOM     14  C   UNL     1       1.556  -1.869   5.983  0.00  0.00    +0.000 A 
ATOM     15  F   UNL     1       2.123  -0.809   6.612  0.00  0.00    +0.000 F 
ATOM     16  C   UNL     1       2.017  -2.181   4.709  0.00  0.00    +0.000 A 
BRANCH  13  17
ATOM     17  O   UNL     1      -0.117  -2.227   7.710  0.00  0.00    +0.000 OA
ATOM     18  C   UNL     1      -0.019  -0.975   8.296  0.00  0.00    +0.000 C 
ENDBRANCH  13  17
ENDBRANCH   2  10
BRANCH   1  19
ATOM     19  C   UNL     1      -0.525  -1.983   2.041  0.00  0.00    +0.000 C 
ATOM     20  O   UNL     1      -1.453  -1.639   1.326  0.00  0.00    +0.000 OA
BRANCH  19  22
ATOM     21  C   UNL     1      -1.544  -1.062   4.086  0.00  0.00    +0.000 C 
ATOM     22  O   UNL     1      -0.510  -1.612   3.352  0.00  0.00    +0.000 OA
ENDBRANCH  19  22
ENDBRANCH   1  19
TORSDOF 4
