REMARK  Name = 
REMARK  7 active torsions:
REMARK  status: ('A' for Active; 'I' for Inactive)
REMARK    1  A    between atoms: C_2  and  C_3
REMARK    2  A    between atoms: C_3  and  N_4
REMARK    3  A    between atoms: N_4  and  C_5
REMARK    4  A    between atoms: N_4  and  C_6
REMARK    5  A    between atoms: N_4  and  C_7
REMARK    6  A    between atoms: C_12  and  O_13
REMARK    7  A    between atoms: O_13  and  C_14
REMARK                            x       y       z     vdW  Elec       q    Type
REMARK                         _______ _______ _______ _____ _____    ______ ____
ROOT
ATOM      1  C   UNL     1      -1.240   1.286  -2.713  0.00  0.00    +0.000 A 
ATOM      2  C   UNL     1      -2.062   2.429  -3.075  0.00  0.00    +0.000 A 
ATOM      3  C   UNL     1      -1.577   3.616  -3.601  0.00  0.00    +0.000 A 
ATOM      4  C   UNL     1      -0.234   3.778  -3.810  0.00  0.00    +0.000 A 
ATOM      5  C   UNL     1       0.625   2.743  -3.523  0.00  0.00    +0.000 A 
ATOM      6  C   UNL     1       0.194   1.503  -3.004  0.00  0.00    +0.000 A 
ENDROOT
BRANCH   1   7
ATOM      7  N   UNL     1      -1.930   0.042  -2.227  0.00  0.00    +0.000 NA
ATOM      8  C   UNL     1      -3.413   0.195  -2.247  0.00  0.00    +0.000 C 
ATOM      9  C   UNL     1      -1.604  -1.100  -3.119  0.00  0.00    +0.000 C 
BRANCH   7  10
ATOM     10  C   UNL     1      -1.704  -0.279  -0.774  0.00  0.00    +0.000 C 
BRANCH  10  12
ATOM     11  C   UNL     1       0.250  -0.501   0.763  0.00  0.00    +0.000 C 
ATOM     12  C   UNL     1      -0.448  -0.958  -0.282  0.00  0.00    +0.000 C 
ENDBRANCH  10  12
ENDBRANCH   7  10
ENDBRANCH   1   7
BRANCH   6  13
ATOM     13  O   UNL     1       1.265   0.674  -2.930  0.00  0.00    +0.000 OA
ATOM     14  C   UNL     1       1.615  -0.460  -2.267  0.00  0.00    +0.000 C 
ENDBRANCH   6  13
TORSDOF 4
