REMARK  Name = 
REMARK  40 active torsions:
REMARK  status: ('A' for Active; 'I' for Inactive)
REMARK    1  A    between atoms: C_1  and  C_2
REMARK    2  A    between atoms: C_2  and  C_3
REMARK    3  A    between atoms: C_2  and  C_4
REMARK    4  A    between atoms: C_4  and  C_5
REMARK    5  A    between atoms: C_5  and  N_6
REMARK    6  A    between atoms: C_5  and  C_67
REMARK    7  A    between atoms: C_7  and  C_9
REMARK    8  A    between atoms: C_9  and  C_10
REMARK    9  A    between atoms: C_9  and  N_16
REMARK   10  A    between atoms: C_10  and  O_11
REMARK   11  A    between atoms: O_11  and  C_12
REMARK   12  A    between atoms: C_12  and  C_13
REMARK   13  A    between atoms: C_12  and  C_14
REMARK   14  A    between atoms: C_12  and  C_15
REMARK   15  A    between atoms: C_17  and  C_19
REMARK   16  A    between atoms: C_19  and  C_20
REMARK   17  A    between atoms: C_19  and  N_28
REMARK   18  A    between atoms: C_20  and  C_21
REMARK   19  A    between atoms: C_24  and  O_25
REMARK   20  A    between atoms: C_29  and  CA_31
REMARK   21  A    between atoms: CA_31  and  C_32
REMARK   22  A    between atoms: CA_31  and  N_34
REMARK   23  A    between atoms: C_32  and  O_33
REMARK   24  A    between atoms: C_35  and  CA_37
REMARK   25  A    between atoms: CA_37  and  CB_38
REMARK   26  A    between atoms: CA_37  and  N_48
REMARK   27  A    between atoms: CB_38  and  CG_39
REMARK   28  A    between atoms: C_49  and  CA_51
REMARK   29  A    between atoms: CA_51  and  CB_52
REMARK   30  A    between atoms: CA_51  and  N_58
REMARK   31  A    between atoms: CB_52  and  CG_53
REMARK   32  A    between atoms: C_59  and  CA_61
REMARK   33  A    between atoms: N_69  and  C_70
REMARK   34  A    between atoms: C_70  and  C_71
REMARK   35  A    between atoms: C_70  and  C_78
REMARK   36  A    between atoms: C_71  and  C_72
REMARK   37  A    between atoms: C_72  and  C_73
REMARK   38  A    between atoms: C_73  and  N_74
REMARK   39  A    between atoms: C_84  and  C_85
REMARK   40  A    between atoms: N_87  and  N_88
REMARK                            x       y       z     vdW  Elec       q    Type
REMARK                         _______ _______ _______ _____ _____    ______ ____
ROOT
ATOM      1  C   UNL     1       0.942  -7.105 -15.855  0.00  0.00    +0.000 C 
ENDROOT
BRANCH   1   3
ATOM      2  N   UNL     1       1.337  -4.899 -14.750  0.00  0.00    +0.000 N 
ATOM      3  C   UNL     1       0.483  -5.880 -15.104  0.00  0.00    +0.000 C 
ATOM      4  O   UNL     1      -0.685  -5.873 -14.699  0.00  0.00    +0.000 OA
ATOM      5  H   UNL     1       0.924  -4.141 -14.157  0.00  0.00    +0.000 HD
BRANCH   2   6
ATOM      6  C   UNL     1       2.670  -4.643 -15.305  0.00  0.00    +0.000 C 
BRANCH   6   8
ATOM      7  N   UNL     1       2.188  -1.938 -16.044  0.00  0.00    +0.000 N 
ATOM      8  C   UNL     1       2.497  -3.334 -16.276  0.00  0.00    +0.000 C 
ATOM      9  O   UNL     1       2.602  -3.643 -17.458  0.00  0.00    +0.000 OA
ATOM     10  H   UNL     1       2.059  -1.453 -16.944  0.00  0.00    +0.000 HD
BRANCH   7  11
ATOM     11  C   UNL     1       1.898  -0.966 -14.885  0.00  0.00    +0.000 C 
BRANCH  11  12
ATOM     12  C   UNL     1       0.832   0.062 -15.252  0.00  0.00    +0.000 C 
ATOM     13  O   UNL     1      -0.297  -0.087 -14.799  0.00  0.00    +0.000 OA
ATOM     14  N   UNL     1       1.087   1.166 -16.007  0.00  0.00    +0.000 N 
ATOM     15  H   UNL     1       0.303   1.801 -16.207  0.00  0.00    +0.000 HD
BRANCH  14  16
ATOM     16  C   UNL     1       2.385   1.440 -16.591  0.00  0.00    +0.000 C 
BRANCH  16  17
ATOM     17  C   UNL     1       3.178   2.670 -16.087  0.00  0.00    +0.000 C 
ATOM     18  O   UNL     1       4.297   2.705 -16.559  0.00  0.00    +0.000 OA
ATOM     19  N   UNL     1       2.817   3.677 -15.188  0.00  0.00    +0.000 N 
ATOM     20  C   UNL     1       1.530   3.898 -14.556  0.00  0.00    +0.000 C 
ATOM     21  C   UNL     1       1.176   5.288 -15.016  0.00  0.00    +0.000 C 
ATOM     22  C   UNL     1       2.514   6.006 -14.863  0.00  0.00    +0.000 C 
ATOM     23  C   UNL     1       3.618   4.899 -15.009  0.00  0.00    +0.000 C 
BRANCH  23  24
ATOM     24  C   UNL     1       4.588   4.910 -13.779  0.00  0.00    +0.000 C 
ATOM     25  O   UNL     1       4.237   5.538 -12.778  0.00  0.00    +0.000 OA
ATOM     26  N   UNL     1       5.793   4.301 -13.708  0.00  0.00    +0.000 N 
ATOM     27  H   UNL     1       6.305   4.393 -12.801  0.00  0.00    +0.000 HD
BRANCH  26  28
ATOM     28  N   UNL     1       6.403   3.584 -14.699  0.00  0.00    +0.000 N 
ATOM     29  C   UNL     1       7.548   2.866 -14.482  0.00  0.00    +0.000 C 
ATOM     30  N   UNL     1       8.090   2.119 -15.477  0.00  0.00    +0.000 N 
ATOM     31  O   UNL     1       8.077   2.862 -13.384  0.00  0.00    +0.000 OA
ATOM     32  H   UNL     1       6.050   3.647 -15.652  0.00  0.00    +0.000 HD
ATOM     33  H   UNL     1       8.929   1.546 -15.293  0.00  0.00    +0.000 HD
ATOM     34  H   UNL     1       7.651   2.066 -16.406  0.00  0.00    +0.000 HD
ENDBRANCH  26  28
ENDBRANCH  23  24
ENDBRANCH  16  17
BRANCH  16  35
ATOM     35  C   UNL     1       2.293   1.365 -18.107  0.00  0.00    +0.000 C 
BRANCH  35  36
ATOM     36  C   UNL     1       1.533   2.506 -18.772  0.00  0.00    +0.000 C 
BRANCH  36  37
ATOM     37  C   UNL     1       2.087   3.918 -18.527  0.00  0.00    +0.000 C 
BRANCH  37  38
ATOM     38  N   UNL     1       3.518   4.063 -18.747  0.00  0.00    +0.000 N 
ATOM     39  C   UNL     1       4.182   5.307 -18.517  0.00  0.00    +0.000 C 
ATOM     40  N   UNL     1       5.468   5.359 -18.490  0.00  0.00    +0.000 NA
ATOM     41  N   UNL     1       3.443   6.497 -18.283  0.00  0.00    +0.000 N 
ATOM     42  H   UNL     1       4.095   3.245 -18.989  0.00  0.00    +0.000 HD
ATOM     43  H   UNL     1       6.053   4.521 -18.619  0.00  0.00    +0.000 HD
ATOM     44  H   UNL     1       2.415   6.495 -18.240  0.00  0.00    +0.000 HD
ATOM     45  H   UNL     1       3.931   7.394 -18.154  0.00  0.00    +0.000 HD
ENDBRANCH  37  38
ENDBRANCH  36  37
ENDBRANCH  35  36
ENDBRANCH  16  35
ENDBRANCH  14  16
ENDBRANCH  11  12
BRANCH  11  46
ATOM     46  C   UNL     1       3.215  -0.218 -14.245  0.00  0.00    +0.000 C 
BRANCH  46  48
ATOM     47  C   UNL     1       2.212   1.237 -12.453  0.00  0.00    +0.000 C 
ATOM     48  C   UNL     1       3.413   1.035 -13.370  0.00  0.00    +0.000 C 
ATOM     49  C   UNL     1       4.774   1.028 -12.598  0.00  0.00    +0.000 C 
ENDBRANCH  46  48
ENDBRANCH  11  46
ENDBRANCH   7  11
ENDBRANCH   6   8
BRANCH   6  50
ATOM     50  C   UNL     1       4.016  -5.168 -14.440  0.00  0.00    +0.000 C 
BRANCH  50  51
ATOM     51  O   UNL     1       4.264  -4.759 -13.075  0.00  0.00    +0.000 OA
BRANCH  51  52
ATOM     52  C   UNL     1       4.562  -3.379 -12.899  0.00  0.00    +0.000 C 
ATOM     53  C   UNL     1       6.038  -2.967 -13.110  0.00  0.00    +0.000 C 
ATOM     54  C   UNL     1       3.977  -2.691 -13.965  0.00  0.00    +0.000 C 
ATOM     55  C   UNL     1       3.792  -2.856 -11.613  0.00  0.00    +0.000 C 
ENDBRANCH  51  52
ENDBRANCH  50  51
ENDBRANCH   6  50
ENDBRANCH   2   6
ENDBRANCH   1   3
BRANCH   1  56
ATOM     56  N   UNL     1       1.423  -6.837 -17.233  0.00  0.00    +0.000 N 
ATOM     57  C   UNL     1       0.984  -7.313 -18.425  0.00  0.00    +0.000 C 
ATOM     58  O   UNL     1       1.537  -6.889 -19.440  0.00  0.00    +0.000 OA
ATOM     59  H   UNL     1       2.184  -6.209 -17.447  0.00  0.00    +0.000 HD
BRANCH  57  60
ATOM     60  CA  UNL     1      -0.110  -8.305 -18.690  0.00  0.00    +0.000 C 
BRANCH  60  61
ATOM     61  N   UNL     1      -0.703  -9.034 -17.574  0.00  0.00    +0.000 N 
ATOM     62  C   UNL     1      -0.563 -10.380 -17.292  0.00  0.00    +0.000 C 
ATOM     63  O   UNL     1      -1.162 -10.814 -16.318  0.00  0.00    +0.000 OA
ATOM     64  H   UNL     1      -1.361  -8.501 -16.984  0.00  0.00    +0.000 HD
BRANCH  62  65
ATOM     65  CA  UNL     1       0.300 -11.388 -18.098  0.00  0.00    +0.000 C 
BRANCH  65  66
ATOM     66  N   UNL     1       0.166 -12.773 -17.618  0.00  0.00    +0.000 N 
ATOM     67  C   UNL     1       1.096 -13.800 -17.589  0.00  0.00    +0.000 C 
ATOM     68  O   UNL     1       0.663 -14.923 -17.362  0.00  0.00    +0.000 OA
ATOM     69  H   UNL     1      -0.802 -13.094 -17.486  0.00  0.00    +0.000 HD
BRANCH  67  70
ATOM     70  CA  UNL     1       2.634 -13.727 -17.756  0.00  0.00    +0.000 C 
BRANCH  70  71
ATOM     71  N   UNL     1       3.108 -12.366 -17.999  0.00  0.00    +0.000 N 
ATOM     72  C   UNL     1       3.398 -11.642 -19.125  0.00  0.00    +0.000 C 
ATOM     73  O   UNL     1       3.112 -10.452 -19.147  0.00  0.00    +0.000 OA
ATOM     74  H   UNL     1       4.072 -12.632 -17.843  0.00  0.00    +0.000 HD
BRANCH  72  75
ATOM     75  CA  UNL     1       4.277 -12.107 -20.240  0.00  0.00    +0.000 C 
ATOM     76  C   UNL     1       3.537 -11.978 -21.560  0.00  0.00    +0.000 C 
ATOM     77  C   UNL     1       4.095 -13.096 -22.420  0.00  0.00    +0.000 C 
ATOM     78  C   UNL     1       4.500 -14.071 -21.367  0.00  0.00    +0.000 C 
ATOM     79  O   UNL     1       4.844 -15.221 -21.586  0.00  0.00    +0.000 OA
ATOM     80  N   UNL     1       4.620 -13.493 -20.160  0.00  0.00    +0.000 N 
ATOM     81  H   UNL     1       5.058 -13.969 -19.352  0.00  0.00    +0.000 HD
ENDBRANCH  72  75
ENDBRANCH  70  71
BRANCH  70  82
ATOM     82  CB  UNL     1       3.224 -14.326 -16.373  0.00  0.00    +0.000 C 
BRANCH  82  83
ATOM     83  CG  UNL     1       4.630 -13.930 -15.884  0.00  0.00    +0.000 A 
ATOM     84  CD2 UNL     1       5.869 -14.227 -16.424  0.00  0.00    +0.000 A 
ATOM     85  NE2 UNL     1       6.827 -13.584 -15.714  0.00  0.00    +0.000 NA
ATOM     86  CE1 UNL     1       6.164 -12.923 -14.745  0.00  0.00    +0.000 A 
ATOM     87  ND1 UNL     1       4.844 -13.150 -14.799  0.00  0.00    +0.000 N 
ATOM     88  HD1 UNL     1       4.138 -12.735 -14.148  0.00  0.00    +0.000 HD
ENDBRANCH  82  83
ENDBRANCH  70  82
ENDBRANCH  67  70
ENDBRANCH  65  66
BRANCH  65  89
ATOM     89  CB  UNL     1      -0.026 -11.452 -19.614  0.00  0.00    +0.000 C 
BRANCH  89  90
ATOM     90  CG  UNL     1      -1.487 -11.572 -19.930  0.00  0.00    +0.000 A 
ATOM     91  CD1 UNL     1      -2.574 -11.825 -19.087  0.00  0.00    +0.000 A 
ATOM     92  NE1 UNL     1      -3.717 -11.847 -19.799  0.00  0.00    +0.000 N 
ATOM     93  CE2 UNL     1      -3.372 -11.583 -21.069  0.00  0.00    +0.000 A 
ATOM     94  CZ2 UNL     1      -4.219 -11.480 -22.164  0.00  0.00    +0.000 A 
ATOM     95  CH2 UNL     1      -3.646 -11.142 -23.403  0.00  0.00    +0.000 A 
ATOM     96  CZ3 UNL     1      -2.257 -10.909 -23.512  0.00  0.00    +0.000 A 
ATOM     97  CE3 UNL     1      -1.425 -11.039 -22.390  0.00  0.00    +0.000 A 
ATOM     98  CD2 UNL     1      -2.024 -11.393 -21.181  0.00  0.00    +0.000 A 
ATOM     99  HE1 UNL     1      -4.674 -12.018 -19.418  0.00  0.00    +0.000 HD
ENDBRANCH  89  90
ENDBRANCH  65  89
ENDBRANCH  62  65
ENDBRANCH  60  61
BRANCH  60 100
ATOM    100  C   UNL     1      -1.193  -7.559 -19.492  0.00  0.00    +0.000 C 
BRANCH 100 101
ATOM    101  O   UNL     1      -2.383  -8.282 -19.573  0.00  0.00    +0.000 OA
ATOM    102  H   UNL     1      -2.217  -9.007 -20.215  0.00  0.00    +0.000 HD
ENDBRANCH 100 101
ENDBRANCH  60 100
ENDBRANCH  57  60
ENDBRANCH   1  56
BRANCH   1 103
ATOM    103  C   UNL     1       1.922  -7.738 -14.877  0.00  0.00    +0.000 C 
BRANCH 103 104
ATOM    104  C   UNL     1       2.925  -8.587 -15.515  0.00  0.00    +0.000 A 
ATOM    105  C   UNL     1       4.075  -8.102 -16.186  0.00  0.00    +0.000 A 
ATOM    106  C   UNL     1       4.999  -8.994 -16.708  0.00  0.00    +0.000 A 
ATOM    107  C   UNL     1       4.771 -10.352 -16.573  0.00  0.00    +0.000 A 
ATOM    108  C   UNL     1       3.597 -10.786 -15.924  0.00  0.00    +0.000 A 
ATOM    109  C   UNL     1       2.694  -9.927 -15.407  0.00  0.00    +0.000 A 
BRANCH 107 110
ATOM    110  O   UNL     1       5.652 -11.230 -17.086  0.00  0.00    +0.000 OA
ATOM    111  H   UNL     1       6.419 -10.962 -17.609  0.00  0.00    +0.000 HD
ENDBRANCH 107 110
ENDBRANCH 103 104
ENDBRANCH   1 103
TORSDOF 35
