REMARK  Name = 
REMARK  8 active torsions:
REMARK  status: ('A' for Active; 'I' for Inactive)
REMARK    1  A    between atoms: C_1  and  N_2
REMARK    2  A    between atoms: N_2  and  C_3
REMARK    3  A    between atoms: N_2  and  C_4
REMARK    4  A    between atoms: C_4  and  C_5
REMARK    5  A    between atoms: C_5  and  C_6
REMARK    6  A    between atoms: C_6  and  C_7
REMARK    7  A    between atoms: C_7  and  N_8
REMARK    8  A    between atoms: C_9  and  C_11
REMARK                            x       y       z     vdW  Elec       q    Type
REMARK                         _______ _______ _______ _____ _____    ______ ____
ROOT
ATOM      1  C   UNL     1       4.492   2.693  -3.753  0.00  0.00    +0.000 A 
ATOM      2  C   UNL     1       4.879   2.709  -2.397  0.00  0.00    +0.000 A 
ATOM      3  C   UNL     1       5.296   3.886  -1.781  0.00  0.00    +0.000 A 
ATOM      4  C   UNL     1       5.346   5.075  -2.504  0.00  0.00    +0.000 A 
ATOM      5  C   UNL     1       4.995   5.085  -3.861  0.00  0.00    +0.000 A 
ATOM      6  C   UNL     1       5.056   6.267  -4.608  0.00  0.00    +0.000 A 
ATOM      7  C   UNL     1       4.709   6.253  -5.964  0.00  0.00    +0.000 A 
ATOM      8  C   UNL     1       4.783   7.417  -6.744  0.00  0.00    +0.000 A 
ATOM      9  C   UNL     1       4.441   7.370  -8.099  0.00  0.00    +0.000 A 
ATOM     10  C   UNL     1       4.015   6.171  -8.679  0.00  0.00    +0.000 A 
ATOM     11  C   UNL     1       3.931   5.011  -7.909  0.00  0.00    +0.000 A 
ATOM     12  C   UNL     1       4.283   5.043  -6.553  0.00  0.00    +0.000 A 
ATOM     13  N   UNL     1       4.223   3.911  -5.808  0.00  0.00    +0.000 NA
ATOM     14  C   UNL     1       4.574   3.889  -4.493  0.00  0.00    +0.000 A 
ENDROOT
BRANCH   1  16
ATOM     15  N   UNL     1       3.207   0.533  -3.761  0.00  0.00    +0.000 N 
ATOM     16  C   UNL     1       4.030   1.422  -4.391  0.00  0.00    +0.000 C 
ATOM     17  O   UNL     1       4.396   1.171  -5.530  0.00  0.00    +0.000 OA
ATOM     18  H   UNL     1       3.012  -0.366  -4.228  0.00  0.00    +0.000 HD
BRANCH  15  19
ATOM     19  C   UNL     1       2.495   0.824  -2.525  0.00  0.00    +0.000 C 
BRANCH  19  20
ATOM     20  C   UNL     1       0.980   0.673  -2.705  0.00  0.00    +0.000 C 
BRANCH  20  21
ATOM     21  C   UNL     1       0.509  -0.780  -2.849  0.00  0.00    +0.000 C 
BRANCH  21  22
ATOM     22  C   UNL     1       0.929  -1.747  -1.706  0.00  0.00    +0.000 C 
BRANCH  22  24
ATOM     23  C   UNL     1       1.011  -0.379   0.410  0.00  0.00    +0.000 C 
ATOM     24  N   UNL     1       0.389  -1.478  -0.348  0.00  0.00    +0.000 NA
ATOM     25  C   UNL     1      -1.075  -1.433  -0.290  0.00  0.00    +0.000 C 
ENDBRANCH  22  24
ENDBRANCH  21  22
ENDBRANCH  20  21
ENDBRANCH  19  20
ENDBRANCH  15  19
ENDBRANCH   1  16
TORSDOF 6
