REMARK  Name = 
REMARK  1 active torsions:
REMARK  status: ('A' for Active; 'I' for Inactive)
REMARK    1  A    between atoms: C_4  and  N_5
REMARK                            x       y       z     vdW  Elec       q    Type
REMARK                         _______ _______ _______ _____ _____    ______ ____
ROOT
ATOM      1  N   UNL     1      -2.768   0.551  -0.070  0.00  0.00    +0.000 N 
ATOM      2  C   UNL     1      -3.337   1.849  -0.225  0.00  0.00    +0.000 C 
ATOM      3  N   UNL     1      -4.391   2.207   0.397  0.00  0.00    +0.000 NA
ATOM      4  C   UNL     1      -4.693   3.591   0.114  0.00  0.00    +0.000 C 
ATOM      5  C   UNL     1      -3.547   4.064  -0.802  0.00  0.00    +0.000 C 
ATOM      6  N   UNL     1      -2.801   2.864  -1.032  0.00  0.00    +0.000 N 
ATOM      7  H   UNL     1      -3.393  -0.213   0.229  0.00  0.00    +0.000 HD
ATOM      8  H   UNL     1      -1.994   2.784  -1.668  0.00  0.00    +0.000 HD
ENDROOT
BRANCH   1  12
ATOM      9  C   UNL     1       1.393  -0.298  -0.025  0.00  0.00    +0.000 A 
ATOM     10  C   UNL     1       0.962   1.027  -0.019  0.00  0.00    +0.000 A 
ATOM     11  C   UNL     1      -0.401   1.322  -0.046  0.00  0.00    +0.000 A 
ATOM     12  C   UNL     1      -1.362   0.286  -0.095  0.00  0.00    +0.000 A 
ATOM     13  C   UNL     1      -0.911  -1.046  -0.087  0.00  0.00    +0.000 A 
ATOM     14  C   UNL     1       0.458  -1.335  -0.059  0.00  0.00    +0.000 A 
ENDBRANCH   1  12
TORSDOF 1
