REMARK  Name = 
REMARK  7 active torsions:
REMARK  status: ('A' for Active; 'I' for Inactive)
REMARK    1  A    between atoms: C_2  and  C_3
REMARK    2  A    between atoms: C_3  and  N_4
REMARK    3  A    between atoms: C_5  and  C_7
REMARK    4  A    between atoms: C_7  and  N_8
REMARK    5  A    between atoms: C_7  and  C_9
REMARK    6  A    between atoms: C_9  and  C_10
REMARK    7  A    between atoms: C_18  and  C_19
REMARK                            x       y       z     vdW  Elec       q    Type
REMARK                         _______ _______ _______ _____ _____    ______ ____
ROOT
ATOM      1  N   UNL     1      -0.972  -0.025   0.120  0.00  0.00    +0.000 N 
ATOM      2  C   UNL     1      -1.959  -0.771   0.755  0.00  0.00    +0.000 C 
ATOM      3  O   UNL     1      -3.099  -0.748   0.311  0.00  0.00    +0.000 OA
ATOM      4  H   UNL     1      -1.240   0.491  -0.735  0.00  0.00    +0.000 HD
ENDROOT
BRANCH   1   5
ATOM      5  C   UNL     1       0.413   0.052   0.593  0.00  0.00    +0.000 C 
ATOM      6  C   UNL     1       1.422  -0.753  -0.292  0.00  0.00    +0.000 C 
ATOM      7  C   UNL     1       1.500   0.756  -0.233  0.00  0.00    +0.000 C 
BRANCH   7   8
ATOM      8  C   UNL     1       1.299   1.690  -1.377  0.00  0.00    +0.000 A 
ATOM      9  C   UNL     1       1.899   1.418  -2.613  0.00  0.00    +0.000 A 
ATOM     10  C   UNL     1       2.000   2.428  -3.576  0.00  0.00    +0.000 A 
ATOM     11  C   UNL     1       1.453   3.690  -3.335  0.00  0.00    +0.000 A 
ATOM     12  C   UNL     1       0.840   3.961  -2.110  0.00  0.00    +0.000 A 
ATOM     13  C   UNL     1       0.782   2.970  -1.125  0.00  0.00    +0.000 A 
ENDBRANCH   7   8
BRANCH   5  15
ATOM     14  N   UNL     1       0.848   1.128   2.958  0.00  0.00    +0.000 NA
ATOM     15  C   UNL     1       0.603   0.667   1.920  0.00  0.00    +0.000 C 
ENDBRANCH   5  15
ENDBRANCH   1   5
BRANCH   2  16
ATOM     16  C   UNL     1      -1.712  -1.656   1.996  0.00  0.00    +0.000 C 
BRANCH  16  17
ATOM     17  N   UNL     1      -0.679  -2.647   1.684  0.00  0.00    +0.000 NA
ATOM     18  H   UNL     1      -0.398  -3.169   2.546  0.00  0.00    +0.000 HD
ATOM     19  H   UNL     1      -1.026  -3.314   0.960  0.00  0.00    +0.000 HD
ENDBRANCH  16  17
BRANCH  16  20
ATOM     20  C   UNL     1      -1.302  -0.839   3.221  0.00  0.00    +0.000 C 
BRANCH  20  21
ATOM     21  C   UNL     1      -2.238   0.372   3.421  0.00  0.00    +0.000 A 
ATOM     22  C   UNL     1      -2.047   1.723   2.969  0.00  0.00    +0.000 A 
ATOM     23  C   UNL     1      -3.034   2.685   3.137  0.00  0.00    +0.000 A 
ATOM     24  C   UNL     1      -4.236   2.340   3.732  0.00  0.00    +0.000 A 
ATOM     25  C   UNL     1      -4.437   1.038   4.193  0.00  0.00    +0.000 A 
ATOM     26  C   UNL     1      -3.449   0.070   4.045  0.00  0.00    +0.000 A 
ATOM     27  F   UNL     1      -3.678  -1.187   4.501  0.00  0.00    +0.000 F 
ENDBRANCH  20  21
ENDBRANCH  16  20
ENDBRANCH   2  16
TORSDOF 7
