REMARK  Name = 
REMARK  2 active torsions:
REMARK  status: ('A' for Active; 'I' for Inactive)
REMARK    1  A    between atoms: C_1  and  N_2
REMARK    2  A    between atoms: C_5  and  C_6
REMARK                            x       y       z     vdW  Elec       q    Type
REMARK                         _______ _______ _______ _____ _____    ______ ____
ROOT
ATOM      1  C   UNL     1       3.312   0.002   0.185  0.00  0.00    +0.000 C 
ATOM      2  C   UNL     1       3.823   1.025   0.921  0.00  0.00    +0.000 C 
ATOM      3  C   UNL     1       5.176   1.159   1.500  0.00  0.00    +0.000 A 
ATOM      4  C   UNL     1       5.671   2.462   1.708  0.00  0.00    +0.000 A 
ATOM      5  C   UNL     1       6.927   2.668   2.280  0.00  0.00    +0.000 A 
ATOM      6  C   UNL     1       7.692   1.579   2.689  0.00  0.00    +0.000 A 
ATOM      7  C   UNL     1       7.205   0.286   2.510  0.00  0.00    +0.000 A 
ATOM      8  C   UNL     1       5.964   0.070   1.901  0.00  0.00    +0.000 A 
ATOM      9  O   UNL     1       5.588  -1.209   1.747  0.00  0.00    +0.000 OA
ATOM     10  C   UNL     1       5.191  -1.727   0.574  0.00  0.00    +0.000 A 
ATOM     11  C   UNL     1       5.891  -2.861   0.150  0.00  0.00    +0.000 A 
ATOM     12  C   UNL     1       5.616  -3.461  -1.071  0.00  0.00    +0.000 A 
ATOM     13  C   UNL     1       4.620  -2.935  -1.882  0.00  0.00    +0.000 A 
ATOM     14  C   UNL     1       3.883  -1.827  -1.460  0.00  0.00    +0.000 A 
ATOM     15  C   UNL     1       4.147  -1.190  -0.222  0.00  0.00    +0.000 A 
ENDROOT
BRANCH   1  20
ATOM     16  C   UNL     1      -2.489  -0.037  -0.133  0.00  0.00    +0.000 C 
ATOM     17  N   UNL     1      -1.067   0.005   0.237  0.00  0.00    +0.000 NA
ATOM     18  C   UNL     1      -0.431   1.217  -0.311  0.00  0.00    +0.000 C 
ATOM     19  C   UNL     1       1.026   1.303   0.155  0.00  0.00    +0.000 C 
ATOM     20  C   UNL     1       1.836   0.060  -0.302  0.00  0.00    +0.000 C 
ATOM     21  C   UNL     1       1.089  -1.195   0.215  0.00  0.00    +0.000 C 
ATOM     22  C   UNL     1      -0.373  -1.202  -0.249  0.00  0.00    +0.000 C 
ENDBRANCH   1  20
TORSDOF 1
