REMARK  Name = 
REMARK  6 active torsions:
REMARK  status: ('A' for Active; 'I' for Inactive)
REMARK    1  A    between atoms: C_1  and  C_2
REMARK    2  A    between atoms: C_2  and  C_3
REMARK    3  A    between atoms: C_2  and  C_4
REMARK    4  A    between atoms: C_2  and  C_5
REMARK    5  A    between atoms: C_8  and  C_9
REMARK    6  A    between atoms: C_9  and  N_10
REMARK                            x       y       z     vdW  Elec       q    Type
REMARK                         _______ _______ _______ _____ _____    ______ ____
ROOT
ATOM      1  N   UNL     1       3.239  -2.320  -5.681  0.00  0.00    +0.000 NA
ATOM      2  C   UNL     1       3.975  -1.330  -4.801  0.00  0.00    +0.000 C 
ATOM      3  C   UNL     1       4.877  -2.022  -3.693  0.00  0.00    +0.000 C 
ATOM      4  C   UNL     1       5.672  -3.310  -4.337  0.00  0.00    +0.000 C 
ATOM      5  C   UNL     1       6.987  -4.270  -4.777  0.00  0.00    +0.000 C 
ATOM      6  C   UNL     1       7.481  -4.328  -6.357  0.00  0.00    +0.000 C 
ATOM      7  C   UNL     1       7.342  -2.941  -7.028  0.00  0.00    +0.000 A 
ATOM      8  C   UNL     1       8.270  -1.832  -7.187  0.00  0.00    +0.000 A 
ATOM      9  C   UNL     1       7.757  -0.524  -7.397  0.00  0.00    +0.000 A 
ATOM     10  C   UNL     1       6.383  -0.360  -7.621  0.00  0.00    +0.000 A 
ATOM     11  C   UNL     1       5.567  -1.447  -7.457  0.00  0.00    +0.000 A 
ATOM     12  C   UNL     1       6.075  -2.561  -6.821  0.00  0.00    +0.000 A 
ATOM     13  C   UNL     1       6.188  -2.339  -5.338  0.00  0.00    +0.000 C 
ATOM     14  O   UNL     1       7.018  -1.518  -4.902  0.00  0.00    +0.000 OA
ATOM     15  C   UNL     1       4.413  -4.208  -4.499  0.00  0.00    +0.000 C 
ATOM     16  C   UNL     1       3.561  -3.787  -5.678  0.00  0.00    +0.000 C 
ENDROOT
BRANCH   1  17
ATOM     17  C   UNL     1       1.869  -1.964  -5.996  0.00  0.00    +0.000 C 
BRANCH  17  21
ATOM     18  C   UNL     1       0.725  -1.490  -1.950  0.00  0.00    +0.000 A 
ATOM     19  C   UNL     1       0.663  -2.749  -2.555  0.00  0.00    +0.000 A 
ATOM     20  C   UNL     1       0.961  -2.908  -3.893  0.00  0.00    +0.000 A 
ATOM     21  C   UNL     1       1.251  -1.801  -4.680  0.00  0.00    +0.000 A 
ATOM     22  C   UNL     1       1.196  -0.521  -4.115  0.00  0.00    +0.000 A 
ATOM     23  C   UNL     1       1.003  -0.359  -2.755  0.00  0.00    +0.000 A 
BRANCH  18  25
ATOM     24  C   UNL     1       0.843  -0.011   0.146  0.00  0.00    +0.000 C 
ATOM     25  C   UNL     1       0.351  -1.341  -0.472  0.00  0.00    +0.000 C 
ATOM     26  C   UNL     1       0.957  -2.486   0.382  0.00  0.00    +0.000 C 
ATOM     27  C   UNL     1      -1.174  -1.392  -0.444  0.00  0.00    +0.000 C 
ENDBRANCH  18  25
ENDBRANCH  17  21
ENDBRANCH   1  17
TORSDOF 3
