REMARK  Name = 
REMARK  39 active torsions:
REMARK  status: ('A' for Active; 'I' for Inactive)
REMARK    1  A    between atoms: C_1  and  C_2
REMARK    2  A    between atoms: C_2  and  N_3
REMARK    3  A    between atoms: C_4  and  C_6
REMARK    4  A    between atoms: C_11  and  C_13
REMARK    5  A    between atoms: C_13  and  C_14
REMARK    6  A    between atoms: C_13  and  N_21
REMARK    7  A    between atoms: C_14  and  C_15
REMARK    8  A    between atoms: C_15  and  C_16
REMARK    9  A    between atoms: C_16  and  N_17
REMARK   10  A    between atoms: C_22  and  C_24
REMARK   11  A    between atoms: C_24  and  C_25
REMARK   12  A    between atoms: C_24  and  N_29
REMARK   13  A    between atoms: C_25  and  C_26
REMARK   14  A    between atoms: C_26  and  C_27
REMARK   15  A    between atoms: C_26  and  C_28
REMARK   16  A    between atoms: C_30  and  C_32
REMARK   17  A    between atoms: C_32  and  C_33
REMARK   18  A    between atoms: C_32  and  N_46
REMARK   19  A    between atoms: C_33  and  C_34
REMARK   20  A    between atoms: N_36  and  C_37
REMARK   21  A    between atoms: C_37  and  C_38
REMARK   22  A    between atoms: C_47  and  C_49
REMARK   23  A    between atoms: C_49  and  C_50
REMARK   24  A    between atoms: C_49  and  N_58
REMARK   25  A    between atoms: C_50  and  C_51
REMARK   26  A    between atoms: C_54  and  O_55
REMARK   27  A    between atoms: C_59  and  CA_61
REMARK   28  A    between atoms: CA_61  and  C_62
REMARK   29  A    between atoms: CA_61  and  N_64
REMARK   30  A    between atoms: C_62  and  O_63
REMARK   31  A    between atoms: C_65  and  CA_67
REMARK   32  A    between atoms: CA_67  and  CB_68
REMARK   33  A    between atoms: CA_67  and  N_78
REMARK   34  A    between atoms: CB_68  and  CG_69
REMARK   35  A    between atoms: C_79  and  CA_81
REMARK   36  A    between atoms: CA_81  and  CB_82
REMARK   37  A    between atoms: CA_81  and  N_88
REMARK   38  A    between atoms: CB_82  and  CG_83
REMARK   39  A    between atoms: C_89  and  CA_91
REMARK                            x       y       z     vdW  Elec       q    Type
REMARK                         _______ _______ _______ _____ _____    ______ ____
ROOT
ATOM      1  C   UNL     1      13.617 -10.471   3.684  0.00  0.00    +0.000 C 
ENDROOT
BRANCH   1   3
ATOM      2  N   UNL     1      13.096  -8.278   2.932  0.00  0.00    +0.000 N 
ATOM      3  C   UNL     1      13.901  -9.139   3.035  0.00  0.00    +0.000 C 
ATOM      4  O   UNL     1      14.933  -8.720   2.588  0.00  0.00    +0.000 OA
ATOM      5  H   UNL     1      13.492  -7.620   2.324  0.00  0.00    +0.000 HD
BRANCH   2   6
ATOM      6  C   UNL     1      12.010  -8.232   3.582  0.00  0.00    +0.000 C 
BRANCH   6   8
ATOM      7  N   UNL     1      12.549  -5.972   4.273  0.00  0.00    +0.000 N 
ATOM      8  C   UNL     1      12.334  -7.221   4.621  0.00  0.00    +0.000 C 
ATOM      9  O   UNL     1      11.951  -7.236   5.703  0.00  0.00    +0.000 OA
ATOM     10  H   UNL     1      12.353  -4.811   4.904  0.00  0.00    +0.000 HD
BRANCH   7  11
ATOM     11  C   UNL     1      12.776  -5.695   2.928  0.00  0.00    +0.000 C 
BRANCH  11  13
ATOM     12  N   UNL     1      14.354  -4.171   3.638  0.00  0.00    +0.000 N 
ATOM     13  C   UNL     1      13.975  -4.847   2.559  0.00  0.00    +0.000 C 
ATOM     14  O   UNL     1      13.945  -4.277   1.368  0.00  0.00    +0.000 OA
ATOM     15  H   UNL     1      15.001  -3.560   3.432  0.00  0.00    +0.000 HD
BRANCH  12  16
ATOM     16  C   UNL     1      14.266  -4.296   5.042  0.00  0.00    +0.000 C 
BRANCH  16  22
ATOM     17  C   UNL     1      11.870  -2.047   4.374  0.00  0.00    +0.000 C 
ATOM     18  C   UNL     1      11.546  -0.758   3.976  0.00  0.00    +0.000 C 
ATOM     19  C   UNL     1      11.504  -0.019   5.376  0.00  0.00    +0.000 C 
ATOM     20  C   UNL     1      12.321  -1.006   6.286  0.00  0.00    +0.000 C 
ATOM     21  N   UNL     1      12.642  -2.214   5.538  0.00  0.00    +0.000 N 
ATOM     22  C   UNL     1      13.618  -3.203   5.872  0.00  0.00    +0.000 C 
ATOM     23  O   UNL     1      14.283  -3.088   6.864  0.00  0.00    +0.000 OA
BRANCH  17  25
ATOM     24  N   UNL     1      11.836  -3.847   3.235  0.00  0.00    +0.000 N 
ATOM     25  C   UNL     1      12.243  -2.810   3.363  0.00  0.00    +0.000 C 
ATOM     26  O   UNL     1      12.920  -2.452   2.458  0.00  0.00    +0.000 OA
ATOM     27  H   UNL     1      12.108  -4.211   2.079  0.00  0.00    +0.000 HD
BRANCH  24  29
ATOM     28  C   UNL     1       8.885  -4.850   3.711  0.00  0.00    +0.000 C 
ATOM     29  C   UNL     1      10.764  -4.637   3.878  0.00  0.00    +0.000 C 
ENDBRANCH  24  29
ENDBRANCH  17  25
ENDBRANCH  16  22
BRANCH  16  30
ATOM     30  C   UNL     1      14.814  -5.551   5.591  0.00  0.00    +0.000 C 
BRANCH  30  31
ATOM     31  C   UNL     1      16.100  -5.838   4.957  0.00  0.00    +0.000 C 
BRANCH  31  32
ATOM     32  C   UNL     1      17.133  -4.832   5.356  0.00  0.00    +0.000 C 
BRANCH  32  33
ATOM     33  N   UNL     1      17.318  -4.815   6.798  0.00  0.00    +0.000 N 
ATOM     34  C   UNL     1      18.580  -5.137   7.406  0.00  0.00    +0.000 C 
ATOM     35  N   UNL     1      18.704  -5.115   8.694  0.00  0.00    +0.000 NA
ATOM     36  N   UNL     1      19.715  -5.482   6.597  0.00  0.00    +0.000 N 
ATOM     37  H   UNL     1      16.509  -4.559   7.393  0.00  0.00    +0.000 HD
ATOM     38  H   UNL     1      17.910  -4.872   9.311  0.00  0.00    +0.000 HD
ATOM     39  H   UNL     1      19.692  -5.520   5.575  0.00  0.00    +0.000 HD
ATOM     40  H   UNL     1      20.628  -5.713   7.005  0.00  0.00    +0.000 HD
ENDBRANCH  32  33
ENDBRANCH  31  32
ENDBRANCH  30  31
ENDBRANCH  16  30
ENDBRANCH  12  16
ENDBRANCH  11  13
BRANCH  11  41
ATOM     41  C   UNL     1      10.269  -3.904   1.820  0.00  0.00    +0.000 C 
BRANCH  41  42
ATOM     42  C   UNL     1       9.125  -5.091   0.993  0.00  0.00    +0.000 C 
ATOM     43  C   UNL     1       8.151  -6.415   1.647  0.00  0.00    +0.000 C 
ATOM     44  C   UNL     1       8.389  -4.183   0.775  0.00  0.00    +0.000 C 
ENDBRANCH  41  42
ENDBRANCH  11  41
ENDBRANCH   7  11
ENDBRANCH   6   8
BRANCH   6  45
ATOM     45  C   UNL     1      11.074  -8.332   2.480  0.00  0.00    +0.000 C 
BRANCH  45  46
ATOM     46  C   UNL     1      10.777  -7.218   1.913  0.00  0.00    +0.000 A 
ATOM     47  C   UNL     1      10.708  -6.373   2.448  0.00  0.00    +0.000 A 
ATOM     48  N   UNL     1      10.032  -6.497   4.297  0.00  0.00    +0.000 N 
ATOM     49  C   UNL     1       9.760  -7.224   4.212  0.00  0.00    +0.000 A 
ATOM     50  N   UNL     1      10.140  -7.374   1.965  0.00  0.00    +0.000 NA
BRANCH  48  51
ATOM     51  C   UNL     1       9.965  -3.738   5.642  0.00  0.00    +0.000 C 
BRANCH  51  52
ATOM     52  C   UNL     1       9.015  -3.761   5.916  0.00  0.00    +0.000 A 
ATOM     53  C   UNL     1       8.920  -4.606   6.895  0.00  0.00    +0.000 A 
ATOM     54  C   UNL     1       7.675  -4.600   7.366  0.00  0.00    +0.000 A 
ATOM     55  C   UNL     1       6.718  -3.737   6.839  0.00  0.00    +0.000 A 
ATOM     56  C   UNL     1       6.939  -3.141   5.620  0.00  0.00    +0.000 A 
ATOM     57  C   UNL     1       8.064  -3.160   5.123  0.00  0.00    +0.000 A 
ENDBRANCH  51  52
ENDBRANCH  48  51
ENDBRANCH  45  46
ENDBRANCH   6  45
ENDBRANCH   2   6
ENDBRANCH   1   3
BRANCH   1  58
ATOM     58  N   UNL     1      12.253 -10.709   4.045  0.00  0.00    +0.000 N 
ATOM     59  C   UNL     1      11.766 -10.573   5.295  0.00  0.00    +0.000 C 
ATOM     60  O   UNL     1      10.587 -10.452   5.315  0.00  0.00    +0.000 OA
ATOM     61  H   UNL     1      11.585 -10.642   3.232  0.00  0.00    +0.000 HD
BRANCH  59  62
ATOM     62  CA  UNL     1      12.620 -10.212   6.492  0.00  0.00    +0.000 C 
BRANCH  62  63
ATOM     63  N   UNL     1      14.007 -10.114   6.317  0.00  0.00    +0.000 N 
ATOM     64  C   UNL     1      14.905 -11.154   6.534  0.00  0.00    +0.000 C 
ATOM     65  O   UNL     1      16.078 -11.077   6.141  0.00  0.00    +0.000 OA
ATOM     66  H   UNL     1      14.225  -9.266   5.769  0.00  0.00    +0.000 HD
BRANCH  64  67
ATOM     67  CA  UNL     1      14.519 -12.275   7.475  0.00  0.00    +0.000 C 
BRANCH  67  68
ATOM     68  N   UNL     1      13.122 -12.677   7.639  0.00  0.00    +0.000 N 
ATOM     69  C   UNL     1      12.223 -12.360   8.671  0.00  0.00    +0.000 C 
ATOM     70  O   UNL     1      11.069 -12.884   8.675  0.00  0.00    +0.000 OA
ATOM     71  H   UNL     1      12.758 -13.005   6.737  0.00  0.00    +0.000 HD
BRANCH  69  72
ATOM     72  CA  UNL     1      12.462 -11.126   9.539  0.00  0.00    +0.000 C 
BRANCH  72  73
ATOM     73  N   UNL     1      13.547 -10.150   9.267  0.00  0.00    +0.000 N 
ATOM     74  C   UNL     1      14.606 -10.084   9.828  0.00  0.00    +0.000 C 
ATOM     75  O   UNL     1      15.723  -9.481   9.329  0.00  0.00    +0.000 OA
ATOM     76  H   UNL     1      13.843  -9.815   8.524  0.00  0.00    +0.000 HD
BRANCH  74  77
ATOM     77  CA  UNL     1      14.403 -11.350  10.895  0.00  0.00    +0.000 C 
ATOM     78  C   UNL     1      16.431 -13.618  10.749  0.00  0.00    +0.000 C 
ATOM     79  C   UNL     1      15.517 -14.322  11.851  0.00  0.00    +0.000 C 
ATOM     80  C   UNL     1      14.167 -13.246  12.311  0.00  0.00    +0.000 C 
ATOM     81  O   UNL     1      13.348 -13.826  12.948  0.00  0.00    +0.000 OA
ATOM     82  N   UNL     1      13.777 -11.948  11.841  0.00  0.00    +0.000 N 
ATOM     83  H   UNL     1      13.116 -11.262  11.870  0.00  0.00    +0.000 HD
ENDBRANCH  74  77
ENDBRANCH  72  73
BRANCH  72  84
ATOM     84  CB  UNL     1      11.448 -10.369  10.278  0.00  0.00    +0.000 C 
BRANCH  84  85
ATOM     85  CG  UNL     1      10.308 -10.375   9.298  0.00  0.00    +0.000 A 
ATOM     86  CD2 UNL     1       9.214  -9.575   9.252  0.00  0.00    +0.000 A 
ATOM     87  NE2 UNL     1       8.552  -9.758   8.045  0.00  0.00    +0.000 NA
ATOM     88  CE1 UNL     1       9.196 -10.689   7.379  0.00  0.00    +0.000 A 
ATOM     89  ND1 UNL     1      10.283 -10.902   8.027  0.00  0.00    +0.000 N 
ATOM     90  HD1 UNL     1      10.925 -11.261   7.431  0.00  0.00    +0.000 HD
ENDBRANCH  84  85
ENDBRANCH  72  84
ENDBRANCH  69  72
ENDBRANCH  67  68
BRANCH  67  91
ATOM     91  CB  UNL     1      15.482 -13.852   7.599  0.00  0.00    +0.000 C 
BRANCH  91  92
ATOM     92  CG  UNL     1      14.829 -14.215   9.719  0.00  0.00    +0.000 A 
ATOM     93  CD1 UNL     1      14.324 -13.732   9.686  0.00  0.00    +0.000 A 
ATOM     94  NE1 UNL     1      16.176 -11.721  10.247  0.00  0.00    +0.000 N 
ATOM     95  CE2 UNL     1      16.205 -11.491  12.039  0.00  0.00    +0.000 A 
ATOM     96  CZ2 UNL     1      15.465 -10.036  12.504  0.00  0.00    +0.000 A 
ATOM     97  CH2 UNL     1      15.901  -9.514  13.354  0.00  0.00    +0.000 A 
ATOM     98  CZ3 UNL     1      16.460 -10.372  14.234  0.00  0.00    +0.000 A 
ATOM     99  CE3 UNL     1      16.879 -11.853  13.850  0.00  0.00    +0.000 A 
ATOM    100  CD2 UNL     1      16.459 -12.371  12.382  0.00  0.00    +0.000 A 
ATOM    101  HE1 UNL     1      16.308 -11.291   9.349  0.00  0.00    +0.000 HD
ENDBRANCH  91  92
ENDBRANCH  67  91
ENDBRANCH  64  67
ENDBRANCH  62  63
BRANCH  62 102
ATOM    102  C   UNL     1      12.199  -9.121   7.379  0.00  0.00    +0.000 C 
BRANCH 102 103
ATOM    103  O   UNL     1      11.147  -8.763   7.923  0.00  0.00    +0.000 OA
ATOM    104  H   UNL     1      10.441  -8.942   7.321  0.00  0.00    +0.000 HD
ENDBRANCH 102 103
ENDBRANCH  62 102
ENDBRANCH  59  62
ENDBRANCH   1  58
BRANCH   1 105
ATOM    105  C   UNL     1      14.150 -11.688   3.073  0.00  0.00    +0.000 C 
BRANCH 105 106
ATOM    106  C   UNL     1      14.631 -11.467   1.691  0.00  0.00    +0.000 A 
ATOM    107  C   UNL     1      15.583 -10.529   1.426  0.00  0.00    +0.000 A 
ATOM    108  C   UNL     1      15.730  -9.974   0.167  0.00  0.00    +0.000 A 
ATOM    109  C   UNL     1      15.472 -10.785  -0.887  0.00  0.00    +0.000 A 
ATOM    110  C   UNL     1      14.711 -11.915  -0.641  0.00  0.00    +0.000 A 
ATOM    111  C   UNL     1      14.260 -12.226   0.639  0.00  0.00    +0.000 A 
BRANCH 109 112
ATOM    112  O   UNL     1      16.012 -10.524  -2.104  0.00  0.00    +0.000 OA
ATOM    113  H   UNL     1      15.906 -11.138  -2.854  0.00  0.00    +0.000 HD
ENDBRANCH 109 112
ENDBRANCH 105 106
ENDBRANCH   1 105
TORSDOF 36
