REMARK  Name = 
REMARK  15 active torsions:
REMARK  status: ('A' for Active; 'I' for Inactive)
REMARK    1  A    between atoms: C_1  and  C_2
REMARK    2  A    between atoms: C_2  and  C_3
REMARK    3  A    between atoms: C_3  and  C_4
REMARK    4  A    between atoms: C_4  and  N_5
REMARK    5  A    between atoms: N_5  and  C_6
REMARK    6  A    between atoms: N_5  and  C_10
REMARK    7  A    between atoms: C_6  and  C_7
REMARK    8  A    between atoms: C_7  and  C_8
REMARK    9  A    between atoms: C_8  and  C_9
REMARK   10  A    between atoms: C_10  and  C_11
REMARK   11  A    between atoms: C_11  and  C_12
REMARK   12  A    between atoms: C_12  and  O_13
REMARK   13  A    between atoms: O_13  and  C_14
REMARK   14  A    between atoms: C_17  and  C_18
REMARK   15  A    between atoms: C_22  and  C_23
REMARK                            x       y       z     vdW  Elec       q    Type
REMARK                         _______ _______ _______ _____ _____    ______ ____
ROOT
ATOM      1  C   UNL     1       1.710  -1.072   2.180  0.00  0.00    +0.000 A 
ATOM      2  C   UNL     1       2.730  -1.650   2.992  0.00  0.00    +0.000 A 
ATOM      3  C   UNL     1       2.403  -2.371   4.211  0.00  0.00    +0.000 A 
ATOM      4  C   UNL     1       1.057  -2.599   4.584  0.00  0.00    +0.000 A 
ATOM      5  C   UNL     1       0.098  -2.183   3.801  0.00  0.00    +0.000 A 
ATOM      6  C   UNL     1       0.375  -1.476   2.745  0.00  0.00    +0.000 A 
ENDROOT
BRANCH   4   7
ATOM      7  C   UNL     1       0.428  -2.994   5.829  0.00  0.00    +0.000 A 
ATOM      8  C   UNL     1       0.631  -2.281   6.967  0.00  0.00    +0.000 A 
ATOM      9  N   UNL     1      -0.326  -2.635   7.818  0.00  0.00    +0.000 N 
ATOM     10  C   UNL     1      -0.523  -2.245   9.074  0.00  0.00    +0.000 A 
ATOM     11  C   UNL     1      -1.537  -2.841   9.802  0.00  0.00    +0.000 A 
ATOM     12  C   UNL     1      -1.559  -2.599  11.257  0.00  0.00    +0.000 C 
ATOM     13  C   UNL     1      -2.456  -3.707   9.146  0.00  0.00    +0.000 A 
ATOM     14  C   UNL     1      -2.284  -4.009   7.786  0.00  0.00    +0.000 A 
ATOM     15  C   UNL     1      -1.170  -3.483   7.173  0.00  0.00    +0.000 A 
ATOM     16  N   UNL     1      -0.740  -3.706   5.922  0.00  0.00    +0.000 NA
ENDBRANCH   4   7
BRANCH   1  17
ATOM     17  O   UNL     1       2.047  -0.070   1.089  0.00  0.00    +0.000 OA
BRANCH  17  18
ATOM     18  C   UNL     1       1.725   1.100   0.101  0.00  0.00    +0.000 C 
BRANCH  18  19
ATOM     19  C   UNL     1       0.207   1.769  -0.620  0.00  0.00    +0.000 C 
BRANCH  19  20
ATOM     20  C   UNL     1      -1.349   2.012   0.071  0.00  0.00    +0.000 C 
BRANCH  20  21
ATOM     21  N   UNL     1      -1.363   2.883   1.195  0.00  0.00    +0.000 NA
BRANCH  21  22
ATOM     22  C   UNL     1      -0.157   2.520   1.885  0.00  0.00    +0.000 C 
BRANCH  22  23
ATOM     23  C   UNL     1      -0.139   0.888   1.901  0.00  0.00    +0.000 C 
BRANCH  23  25
ATOM     24  C   UNL     1       0.463  -1.081  -0.814  0.00  0.00    +0.000 C 
ATOM     25  C   UNL     1      -0.405  -0.465   0.450  0.00  0.00    +0.000 C 
ENDBRANCH  23  25
ENDBRANCH  22  23
ENDBRANCH  21  22
BRANCH  21  26
ATOM     26  C   UNL     1      -1.731   4.270   0.897  0.00  0.00    +0.000 C 
BRANCH  26  27
ATOM     27  C   UNL     1      -1.485   4.730  -0.577  0.00  0.00    +0.000 C 
BRANCH  27  28
ATOM     28  C   UNL     1      -2.154   3.931  -1.766  0.00  0.00    +0.000 C 
ATOM     29  C   UNL     1      -3.648   3.564  -1.559  0.00  0.00    +0.000 C 
ENDBRANCH  27  28
ENDBRANCH  26  27
ENDBRANCH  21  26
ENDBRANCH  20  21
ENDBRANCH  19  20
ENDBRANCH  18  19
ENDBRANCH  17  18
ENDBRANCH   1  17
TORSDOF 12
