REMARK  Name = 
REMARK  10 active torsions:
REMARK  status: ('A' for Active; 'I' for Inactive)
REMARK    1  A    between atoms: C_1  and  O_2
REMARK    2  A    between atoms: O_2  and  C_3
REMARK    3  A    between atoms: C_5  and  N_6
REMARK    4  A    between atoms: N_6  and  S_7
REMARK    5  A    between atoms: S_7  and  C_8
REMARK    6  A    between atoms: C_13  and  N_14
REMARK    7  A    between atoms: C_24  and  C_25
REMARK    8  A    between atoms: C_25  and  N_26
REMARK    9  A    between atoms: N_26  and  C_27
REMARK   10  A    between atoms: N_26  and  C_28
REMARK                            x       y       z     vdW  Elec       q    Type
REMARK                         _______ _______ _______ _____ _____    ______ ____
ROOT
ATOM      1  N   UNL     1       3.837  -0.957  -1.488  0.00  0.00    +0.000 NA
ATOM      2  C   UNL     1       5.017  -0.360  -1.076  0.00  0.00    +0.000 A 
ATOM      3  C   UNL     1       4.756   0.187   0.267  0.00  0.00    +0.000 A 
ATOM      4  C   UNL     1       4.232   0.036   1.656  0.00  0.00    +0.000 A 
ATOM      5  C   UNL     1       4.826   0.975   2.575  0.00  0.00    +0.000 A 
ATOM      6  C   UNL     1       5.683   1.942   2.039  0.00  0.00    +0.000 A 
ATOM      7  C   UNL     1       5.571   2.210   0.675  0.00  0.00    +0.000 A 
ATOM      8  C   UNL     1       4.583   1.508  -0.027  0.00  0.00    +0.000 A 
ATOM      9  N   UNL     1       4.158   1.819  -1.334  0.00  0.00    +0.000 N 
ATOM     10  C   UNL     1       5.008   1.750  -2.272  0.00  0.00    +0.000 A 
ATOM     11  C   UNL     1       4.997   2.846  -3.117  0.00  0.00    +0.000 A 
ATOM     12  C   UNL     1       6.099   3.331  -3.761  0.00  0.00    +0.000 A 
ATOM     13  C   UNL     1       7.322   2.792  -3.374  0.00  0.00    +0.000 A 
ATOM     14  C   UNL     1       7.300   1.567  -2.449  0.00  0.00    +0.000 A 
ATOM     15  C   UNL     1       5.960   0.773  -2.057  0.00  0.00    +0.000 A 
ATOM     16  H   UNL     1       3.370   1.209  -1.709  0.00  0.00    +0.000 HD
ENDROOT
BRANCH   1  22
ATOM     17  C   UNL     1       1.126  -1.647  -1.497  0.00  0.00    +0.000 A 
ATOM     18  C   UNL     1       0.051  -2.291  -2.201  0.00  0.00    +0.000 A 
ATOM     19  C   UNL     1       0.250  -3.005  -3.371  0.00  0.00    +0.000 A 
ATOM     20  C   UNL     1       1.541  -2.971  -3.894  0.00  0.00    +0.000 A 
ATOM     21  C   UNL     1       2.632  -2.312  -3.242  0.00  0.00    +0.000 A 
ATOM     22  C   UNL     1       2.530  -1.622  -1.984  0.00  0.00    +0.000 A 
BRANCH  17  24
ATOM     23  C   UNL     1       0.943   0.177   0.014  0.00  0.00    +0.000 C 
ATOM     24  O   UNL     1       0.658  -1.090  -0.364  0.00  0.00    +0.000 OA
ENDBRANCH  17  24
BRANCH  19  25
ATOM     25  N   UNL     1      -0.789  -3.801  -4.017  0.00  0.00    +0.000 N 
ATOM     26  H   UNL     1      -0.529  -4.371  -4.843  0.00  0.00    +0.000 HD
BRANCH  25  27
ATOM     27  S   UNL     1      -2.469  -4.094  -3.490  0.00  0.00    +0.000 S 
ATOM     28  C   UNL     1      -3.684  -3.610  -4.706  0.00  0.00    +0.000 C 
ATOM     29  O   UNL     1      -2.553  -5.582  -3.107  0.00  0.00    +0.000 OA
ATOM     30  O   UNL     1      -2.734  -3.408  -2.149  0.00  0.00    +0.000 OA
ENDBRANCH  25  27
ENDBRANCH  19  25
ENDBRANCH   1  22
BRANCH  11  31
ATOM     31  C   UNL     1       3.646   3.478  -3.218  0.00  0.00    +0.000 C 
BRANCH  31  32
ATOM     32  N   UNL     1       3.612   4.851  -2.723  0.00  0.00    +0.000 NA
ATOM     33  C   UNL     1       2.194   5.229  -2.736  0.00  0.00    +0.000 C 
ATOM     34  C   UNL     1       4.126   4.965  -1.336  0.00  0.00    +0.000 C 
ENDBRANCH  31  32
ENDBRANCH  11  31
TORSDOF 6
