REMARK  Name = 
REMARK  7 active torsions:
REMARK  status: ('A' for Active; 'I' for Inactive)
REMARK    1  A    between atoms: C_1  and  C_2
REMARK    2  A    between atoms: C_7  and  N_8
REMARK    3  A    between atoms: N_11  and  C_12
REMARK    4  A    between atoms: C_12  and  C_13
REMARK    5  A    between atoms: C_13  and  C_14
REMARK    6  A    between atoms: C_14  and  C_15
REMARK    7  A    between atoms: C_15  and  N_16
REMARK                            x       y       z     vdW  Elec       q    Type
REMARK                         _______ _______ _______ _____ _____    ______ ____
ROOT
ATOM      1  C   UNL     1       2.548   5.402  -0.808  0.00  0.00    +0.000 C 
ENDROOT
BRANCH   1   5
ATOM      2  N   UNL     1       1.631   1.616   0.151  0.00  0.00    +0.000 N 
ATOM      3  C   UNL     1       1.371   2.609   1.186  0.00  0.00    +0.000 C 
ATOM      4  C   UNL     1       2.430   3.749   1.219  0.00  0.00    +0.000 C 
ATOM      5  N   UNL     1       2.925   4.145  -0.115  0.00  0.00    +0.000 NA
ATOM      6  C   UNL     1       3.344   3.009  -0.935  0.00  0.00    +0.000 C 
ATOM      7  C   UNL     1       2.181   2.044  -1.131  0.00  0.00    +0.000 C 
BRANCH   2  14
ATOM      8  C   UNL     1       2.648  -1.092   0.094  0.00  0.00    +0.000 C 
ATOM      9  C   UNL     1       1.177  -0.786   0.023  0.00  0.00    +0.000 A 
ATOM     10  C   UNL     1       0.260  -1.845  -0.061  0.00  0.00    +0.000 A 
ATOM     11  C   UNL     1      -1.115  -1.597  -0.108  0.00  0.00    +0.000 A 
ATOM     12  C   UNL     1      -1.591  -0.288  -0.080  0.00  0.00    +0.000 A 
ATOM     13  C   UNL     1      -0.693   0.776   0.006  0.00  0.00    +0.000 A 
ATOM     14  C   UNL     1       0.698   0.536   0.067  0.00  0.00    +0.000 A 
ENDBRANCH   2  14
ENDBRANCH   1   5
BRANCH   1  15
ATOM     15  C   UNL     1       1.116   5.450  -1.419  0.00  0.00    +0.000 C 
BRANCH  15  16
ATOM     16  C   UNL     1      -0.011   5.441  -0.387  0.00  0.00    +0.000 C 
BRANCH  16  17
ATOM     17  C   UNL     1      -0.032   6.640   0.522  0.00  0.00    +0.000 C 
BRANCH  17  18
ATOM     18  N   UNL     1      -0.632   7.763  -0.143  0.00  0.00    +0.000 N 
ATOM     19  C   UNL     1      -1.958   7.958  -0.262  0.00  0.00    +0.000 C 
ATOM     20  O   UNL     1      -2.803   7.133   0.051  0.00  0.00    +0.000 OA
ATOM     21  C   UNL     1      -2.231   9.344  -0.716  0.00  0.00    +0.000 C 
ATOM     22  C   UNL     1      -2.922  10.209   0.343  0.00  0.00    +0.000 C 
ATOM     23  C   UNL     1      -1.737  10.749   1.145  0.00  0.00    +0.000 C 
ATOM     24  C   UNL     1      -0.748  11.077   0.016  0.00  0.00    +0.000 C 
ATOM     25  N   UNL     1      -0.881   9.884  -0.780  0.00  0.00    +0.000 N 
ATOM     26  C   UNL     1      -0.010   8.892  -0.488  0.00  0.00    +0.000 C 
ATOM     27  O   UNL     1       1.195   9.075  -0.334  0.00  0.00    +0.000 OA
ENDBRANCH  17  18
ENDBRANCH  16  17
ENDBRANCH  15  16
ENDBRANCH   1  15
TORSDOF 6
