REMARK  Name = 
REMARK  14 active torsions:
REMARK  status: ('A' for Active; 'I' for Inactive)
REMARK    1  A    between atoms: C_2  and  C_30
REMARK    2  A    between atoms: N_3  and  C_4
REMARK    3  A    between atoms: C_4  and  C_5
REMARK    4  A    between atoms: C_5  and  C_6
REMARK    5  A    between atoms: C_6  and  C_7
REMARK    6  A    between atoms: C_7  and  C_8
REMARK    7  A    between atoms: C_8  and  C_9
REMARK    8  A    between atoms: C_9  and  C_10
REMARK    9  A    between atoms: C_10  and  C_11
REMARK   10  A    between atoms: C_11  and  C_12
REMARK   11  A    between atoms: C_12  and  C_13
REMARK   12  A    between atoms: C_13  and  N_14
REMARK   13  A    between atoms: N_14  and  C_15
REMARK   14  A    between atoms: C_35  and  C_36
REMARK                            x       y       z     vdW  Elec       q    Type
REMARK                         _______ _______ _______ _____ _____    ______ ____
ROOT
ATOM      1  C   UNL     1       4.421   0.776   0.913  0.00  0.00    +0.000 C 
ENDROOT
BRANCH   1   4
ATOM      2  O   UNL     1       1.079   0.179  -0.185  0.00  0.00    +0.000 OA
ATOM      3  C   UNL     1       2.285   0.026  -0.093  0.00  0.00    +0.000 C 
ATOM      4  N   UNL     1       2.970   0.647   0.910  0.00  0.00    +0.000 N 
ATOM      5  H   UNL     1       2.425   1.140   1.630  0.00  0.00    +0.000 HD
BRANCH   3   6
ATOM      6  C   UNL     1       2.986  -0.845  -1.052  0.00  0.00    +0.000 A 
ATOM      7  C   UNL     1       2.835  -0.708  -2.434  0.00  0.00    +0.000 A 
ATOM      8  C   UNL     1       3.564  -1.538  -3.294  0.00  0.00    +0.000 A 
ATOM      9  C   UNL     1       4.393  -2.545  -2.773  0.00  0.00    +0.000 A 
ATOM     10  N   UNL     1       5.107  -3.363  -3.597  0.00  0.00    +0.000 NA
ATOM     11  C   UNL     1       5.832  -4.419  -3.123  0.00  0.00    +0.000 A 
ATOM     12  C   UNL     1       5.887  -4.664  -1.723  0.00  0.00    +0.000 A 
ATOM     13  C   UNL     1       5.268  -3.746  -0.855  0.00  0.00    +0.000 A 
ATOM     14  C   UNL     1       4.497  -2.711  -1.377  0.00  0.00    +0.000 A 
ATOM     15  C   UNL     1       3.813  -1.842  -0.532  0.00  0.00    +0.000 A 
ATOM     16  O   UNL     1       5.425  -3.863   0.493  0.00  0.00    +0.000 OA
ATOM     17  C   UNL     1       6.405  -4.655   1.060  0.00  0.00    +0.000 C 
ATOM     18  C   UNL     1       6.342  -6.008   0.391  0.00  0.00    +0.000 C 
ATOM     19  C   UNL     1       6.651  -5.835  -1.104  0.00  0.00    +0.000 C 
BRANCH  11  20
ATOM     20  C   UNL     1       6.613  -5.245  -4.066  0.00  0.00    +0.000 A 
ATOM     21  C   UNL     1       6.476  -6.642  -4.099  0.00  0.00    +0.000 A 
ATOM     22  C   UNL     1       7.306  -7.417  -4.905  0.00  0.00    +0.000 A 
ATOM     23  C   UNL     1       8.283  -6.807  -5.696  0.00  0.00    +0.000 A 
ATOM     24 CL   UNL     1       9.359  -7.794  -6.666  0.00  0.00    +0.000 Cl
ATOM     25  C   UNL     1       8.404  -5.413  -5.702  0.00  0.00    +0.000 A 
ATOM     26  C   UNL     1       7.565  -4.630  -4.899  0.00  0.00    +0.000 A 
ENDBRANCH  11  20
ENDBRANCH   3   6
ENDBRANCH   1   4
BRANCH   1  27
ATOM     27  C   UNL     1       4.796   2.257   0.820  0.00  0.00    +0.000 C 
BRANCH  27  28
ATOM     28  C   UNL     1       4.356   3.054   2.059  0.00  0.00    +0.000 C 
BRANCH  28  29
ATOM     29  C   UNL     1       4.986   2.503   3.354  0.00  0.00    +0.000 C 
BRANCH  29  30
ATOM     30  C   UNL     1       6.529   2.542   3.323  0.00  0.00    +0.000 C 
BRANCH  30  31
ATOM     31  C   UNL     1       7.070   3.974   3.150  0.00  0.00    +0.000 C 
BRANCH  31  32
ATOM     32  C   UNL     1       6.574   4.916   4.265  0.00  0.00    +0.000 C 
BRANCH  32  33
ATOM     33  C   UNL     1       6.990   4.434   5.669  0.00  0.00    +0.000 C 
BRANCH  33  34
ATOM     34  C   UNL     1       8.518   4.344   5.836  0.00  0.00    +0.000 C 
BRANCH  34  35
ATOM     35  C   UNL     1       9.219   5.674   5.542  0.00  0.00    +0.000 C 
BRANCH  35  36
ATOM     36  N   UNL     1       8.766   6.690   6.473  0.00  0.00    +0.000 N 
ATOM     37  H   UNL     1       7.759   6.847   6.604  0.00  0.00    +0.000 HD
BRANCH  36  38
ATOM     38  C   UNL     1       9.671   7.314   7.359  0.00  0.00    +0.000 A 
ATOM     39  C   UNL     1      10.795   8.001   6.850  0.00  0.00    +0.000 A 
ATOM     40  C   UNL     1      11.696   8.591   7.764  0.00  0.00    +0.000 A 
ATOM     41  N   UNL     1      11.456   8.520   9.097  0.00  0.00    +0.000 NA
ATOM     42  C   UNL     1      10.370   7.881   9.611  0.00  0.00    +0.000 A 
ATOM     43  C   UNL     1      10.194   7.822  11.000  0.00  0.00    +0.000 A 
ATOM     44  C   UNL     1       9.096   7.149  11.541  0.00  0.00    +0.000 A 
ATOM     45 CL   UNL     1       8.886   7.068  13.280  0.00  0.00    +0.000 Cl
ATOM     46  C   UNL     1       8.168   6.532  10.698  0.00  0.00    +0.000 A 
ATOM     47  C   UNL     1       8.337   6.583   9.314  0.00  0.00    +0.000 A 
ATOM     48  C   UNL     1       9.443   7.258   8.750  0.00  0.00    +0.000 A 
ATOM     49  C   UNL     1      12.933   9.318   7.291  0.00  0.00    +0.000 C 
ATOM     50  C   UNL     1      13.245   9.085   5.804  0.00  0.00    +0.000 C 
ATOM     51  C   UNL     1      11.982   9.272   4.983  0.00  0.00    +0.000 C 
ATOM     52  C   UNL     1      10.993   8.164   5.345  0.00  0.00    +0.000 C 
ENDBRANCH  36  38
ENDBRANCH  35  36
ENDBRANCH  34  35
ENDBRANCH  33  34
ENDBRANCH  32  33
ENDBRANCH  31  32
ENDBRANCH  30  31
ENDBRANCH  29  30
ENDBRANCH  28  29
ENDBRANCH  27  28
ENDBRANCH   1  27
TORSDOF 14
