REMARK  Name = 
REMARK  4 active torsions:
REMARK  status: ('A' for Active; 'I' for Inactive)
REMARK    1  A    between atoms: N_8  and  C_9
REMARK    2  A    between atoms: C_9  and  C_10
REMARK    3  A    between atoms: C_10  and  C_11
REMARK    4  A    between atoms: C_11  and  N_12
REMARK                            x       y       z     vdW  Elec       q    Type
REMARK                         _______ _______ _______ _____ _____    ______ ____
ROOT
ATOM      1  C   UNL     1      -3.747  -4.176   1.400  0.00  0.00    +0.000 C 
ENDROOT
BRANCH   1   2
ATOM      2  C   UNL     1      -3.004  -5.384   0.823  0.00  0.00    +0.000 C 
BRANCH   2  10
ATOM      3  C   UNL     1       0.895   1.423   0.041  0.00  0.00    +0.000 A 
ATOM      4  C   UNL     1       1.863   0.418   0.143  0.00  0.00    +0.000 A 
ATOM      5  C   UNL     1       1.486  -0.927   0.103  0.00  0.00    +0.000 A 
ATOM      6  C   UNL     1       0.140  -1.251  -0.071  0.00  0.00    +0.000 A 
ATOM      7  N   UNL     1      -0.279  -2.615  -0.156  0.00  0.00    +0.000 N 
ATOM      8  C   UNL     1      -1.513  -2.786  -0.877  0.00  0.00    +0.000 C 
ATOM      9  C   UNL     1      -1.833  -4.272  -1.143  0.00  0.00    +0.000 C 
ATOM     10  N   UNL     1      -1.756  -5.081   0.080  0.00  0.00    +0.000 NA
ATOM     11  C   UNL     1      -0.503  -4.871   0.836  0.00  0.00    +0.000 C 
ATOM     12  C   UNL     1      -0.195  -3.383   1.085  0.00  0.00    +0.000 C 
ATOM     13  N   UNL     1      -0.782  -0.245  -0.183  0.00  0.00    +0.000 NA
ATOM     14  C   UNL     1      -0.443   1.066  -0.114  0.00  0.00    +0.000 A 
ENDBRANCH   2  10
ENDBRANCH   1   2
BRANCH   1  15
ATOM     15  C   UNL     1      -4.525  -3.287   0.417  0.00  0.00    +0.000 C 
BRANCH  15  16
ATOM     16  N   UNL     1      -5.700  -3.891  -0.125  0.00  0.00    +0.000 N 
ATOM     17  C   UNL     1      -6.697  -3.020  -0.631  0.00  0.00    +0.000 C 
ATOM     18  N   UNL     1      -7.909  -3.419  -0.562  0.00  0.00    +0.000 NA
ATOM     19  C   UNL     1      -8.984  -2.557  -0.796  0.00  0.00    +0.000 A 
ATOM     20  C   UNL     1     -10.274  -3.009  -0.564  0.00  0.00    +0.000 A 
ATOM     21  C   UNL     1     -11.345  -2.129  -0.684  0.00  0.00    +0.000 A 
ATOM     22  C   UNL     1     -11.115  -0.793  -1.042  0.00  0.00    +0.000 A 
ATOM     23  C   UNL     1      -9.811  -0.338  -1.280  0.00  0.00    +0.000 A 
ATOM     24  C   UNL     1      -8.741  -1.227  -1.159  0.00  0.00    +0.000 A 
ATOM     25  O   UNL     1      -7.473  -0.805  -1.346  0.00  0.00    +0.000 OA
ATOM     26  C   UNL     1      -6.355  -1.576  -1.077  0.00  0.00    +0.000 C 
ATOM     27  H   UNL     1      -5.918  -4.882   0.066  0.00  0.00    +0.000 HD
ENDBRANCH  15  16
ENDBRANCH   1  15
TORSDOF 4
