REMARK  Name = 
REMARK  13 active torsions:
REMARK  status: ('A' for Active; 'I' for Inactive)
REMARK    1  A    between atoms: C_2  and  O_3
REMARK    2  A    between atoms: C_2  and  C_4
REMARK    3  A    between atoms: N_8  and  C_9
REMARK    4  A    between atoms: C_9  and  C_10
REMARK    5  A    between atoms: C_10  and  C_11
REMARK    6  A    between atoms: C_12  and  C_13
REMARK    7  A    between atoms: C_12  and  C_26
REMARK    8  A    between atoms: C_17  and  C_18
REMARK    9  A    between atoms: C_18  and  O_19
REMARK   10  A    between atoms: O_19  and  C_20
REMARK   11  A    between atoms: C_30  and  C_31
REMARK   12  A    between atoms: C_31  and  O_32
REMARK   13  A    between atoms: O_32  and  C_33
REMARK                            x       y       z     vdW  Elec       q    Type
REMARK                         _______ _______ _______ _____ _____    ______ ____
ROOT
ATOM      1  C   UNL     1       3.169   1.211   4.897  0.00  0.00    +0.000 C 
ATOM      2  C   UNL     1       3.928   2.091   5.586  0.00  0.00    +0.000 C 
ENDROOT
BRANCH   2   3
ATOM      3  C   UNL     1       5.384   2.188   5.224  0.00  0.00    +0.000 A 
ATOM      4  S   UNL     1       6.668   2.303   6.307  0.00  0.00    +0.000 S 
ATOM      5  C   UNL     1       7.904   2.352   5.162  0.00  0.00    +0.000 A 
ATOM      6  C   UNL     1       7.334   2.324   3.900  0.00  0.00    +0.000 A 
ATOM      7  C   UNL     1       5.935   2.256   3.924  0.00  0.00    +0.000 A 
BRANCH   7   8
ATOM      8  C   UNL     1       5.134   2.370   2.658  0.00  0.00    +0.000 C 
BRANCH   8   9
ATOM      9  O   UNL     1       5.364   3.554   1.969  0.00  0.00    +0.000 OA
BRANCH   9  10
ATOM     10  C   UNL     1       5.152   4.825   2.421  0.00  0.00    +0.000 A 
ATOM     11  C   UNL     1       4.587   5.758   1.538  0.00  0.00    +0.000 A 
ATOM     12  C   UNL     1       4.340   7.071   1.952  0.00  0.00    +0.000 A 
ATOM     13  C   UNL     1       4.668   7.474   3.249  0.00  0.00    +0.000 A 
ATOM     14  C   UNL     1       5.241   6.562   4.133  0.00  0.00    +0.000 A 
ATOM     15  C   UNL     1       5.480   5.252   3.728  0.00  0.00    +0.000 A 
ENDBRANCH   9  10
ENDBRANCH   8   9
ENDBRANCH   7   8
ENDBRANCH   2   3
BRANCH   2  16
ATOM     16  C   UNL     1       3.369   2.943   6.661  0.00  0.00    +0.000 A 
ATOM     17  S   UNL     1       3.763   4.565   6.882  0.00  0.00    +0.000 S 
ATOM     18  C   UNL     1       2.799   4.813   8.237  0.00  0.00    +0.000 A 
ATOM     19  C   UNL     1       2.185   3.616   8.568  0.00  0.00    +0.000 A 
ATOM     20  C   UNL     1       2.511   2.558   7.705  0.00  0.00    +0.000 A 
BRANCH  20  21
ATOM     21  C   UNL     1       2.042   1.148   7.978  0.00  0.00    +0.000 C 
BRANCH  21  22
ATOM     22  O   UNL     1       2.528   0.639   9.170  0.00  0.00    +0.000 OA
BRANCH  22  23
ATOM     23  C   UNL     1       3.841   0.364   9.400  0.00  0.00    +0.000 A 
ATOM     24  C   UNL     1       4.187  -0.923   9.833  0.00  0.00    +0.000 A 
ATOM     25  C   UNL     1       5.528  -1.259  10.052  0.00  0.00    +0.000 A 
ATOM     26  C   UNL     1       6.532  -0.310   9.849  0.00  0.00    +0.000 A 
ATOM     27  C   UNL     1       6.198   0.977   9.432  0.00  0.00    +0.000 A 
ATOM     28  C   UNL     1       4.864   1.315   9.207  0.00  0.00    +0.000 A 
ENDBRANCH  22  23
ENDBRANCH  21  22
ENDBRANCH  20  21
ENDBRANCH   2  16
BRANCH   1  29
ATOM     29  C   UNL     1       1.648   1.061   4.895  0.00  0.00    +0.000 C 
BRANCH  29  30
ATOM     30  C   UNL     1       0.958   1.258   3.510  0.00  0.00    +0.000 C 
BRANCH  30  35
ATOM     31  C   UNL     1       2.821  -0.545   0.661  0.00  0.00    +0.000 C 
ATOM     32  C   UNL     1       2.564  -1.986   1.142  0.00  0.00    +0.000 C 
ATOM     33  C   UNL     1       1.162  -2.130   1.745  0.00  0.00    +0.000 C 
ATOM     34  C   UNL     1       0.993  -1.139   2.906  0.00  0.00    +0.000 C 
ATOM     35  N   UNL     1       1.230   0.246   2.445  0.00  0.00    +0.000 NA
ATOM     36  C   UNL     1       2.544   0.429   1.800  0.00  0.00    +0.000 C 
BRANCH  31  38
ATOM     37  O   UNL     1       0.860  -0.145  -0.625  0.00  0.00    +0.000 OA
ATOM     38  C   UNL     1       2.079  -0.139  -0.586  0.00  0.00    +0.000 C 
BRANCH  38  39
ATOM     39  O   UNL     1       2.772   0.300  -1.660  0.00  0.00    +0.000 OA
ATOM     40  H   UNL     1       3.737   0.396  -1.644  0.00  0.00    +0.000 HD
ENDBRANCH  38  39
ENDBRANCH  31  38
ENDBRANCH  30  35
ENDBRANCH  29  30
ENDBRANCH   1  29
TORSDOF 13
