REMARK  Name = 
REMARK  29 active torsions:
REMARK  status: ('A' for Active; 'I' for Inactive)
REMARK    1  A    between atoms: C_1  and  O_2
REMARK    2  A    between atoms: O_2  and  C_3
REMARK    3  A    between atoms: C_8  and  C_9
REMARK    4  A    between atoms: C_9  and  N_10
REMARK    5  A    between atoms: N_10  and  C_11
REMARK    6  A    between atoms: C_11  and  C_12
REMARK    7  A    between atoms: C_12  and  C_13
REMARK    8  A    between atoms: C_13  and  C_14
REMARK    9  A    between atoms: C_14  and  C_15
REMARK   10  A    between atoms: C_15  and  C_16
REMARK   11  A    between atoms: C_16  and  N_17
REMARK   12  A    between atoms: N_17  and  C_18
REMARK   13  A    between atoms: C_18  and  C_19
REMARK   14  A    between atoms: C_19  and  C_20
REMARK   15  A    between atoms: C_20  and  C_21
REMARK   16  A    between atoms: C_21  and  C_22
REMARK   17  A    between atoms: C_22  and  C_23
REMARK   18  A    between atoms: C_23  and  N_24
REMARK   19  A    between atoms: N_24  and  C_25
REMARK   20  A    between atoms: C_25  and  C_26
REMARK   21  A    between atoms: C_26  and  C_27
REMARK   22  A    between atoms: C_27  and  C_28
REMARK   23  A    between atoms: C_28  and  C_29
REMARK   24  A    between atoms: C_29  and  C_30
REMARK   25  A    between atoms: C_30  and  N_31
REMARK   26  A    between atoms: N_31  and  C_32
REMARK   27  A    between atoms: C_32  and  C_33
REMARK   28  A    between atoms: C_38  and  O_39
REMARK   29  A    between atoms: O_39  and  C_40
REMARK                            x       y       z     vdW  Elec       q    Type
REMARK                         _______ _______ _______ _____ _____    ______ ____
ROOT
ATOM      1  C   UNL     1       1.943   5.213  -1.400  0.00  0.00    +0.000 C 
ENDROOT
BRANCH   1   2
ATOM      2  C   UNL     1       2.932   5.427  -2.569  0.00  0.00    +0.000 C 
BRANCH   2   3
ATOM      3  C   UNL     1       4.223   6.206  -2.211  0.00  0.00    +0.000 C 
BRANCH   3   4
ATOM      4  N   UNL     1       5.015   5.589  -1.138  0.00  0.00    +0.000 NA
ATOM      5  H   UNL     1       4.414   5.488  -0.295  0.00  0.00    +0.000 HD
BRANCH   4   6
ATOM      6  C   UNL     1       5.666   4.329  -1.543  0.00  0.00    +0.000 C 
BRANCH   6   7
ATOM      7  C   UNL     1       6.323   3.612  -0.347  0.00  0.00    +0.000 C 
BRANCH   7   8
ATOM      8  C   UNL     1       5.323   3.144   0.726  0.00  0.00    +0.000 C 
BRANCH   8   9
ATOM      9  C   UNL     1       4.242   2.202   0.188  0.00  0.00    +0.000 C 
BRANCH   9  10
ATOM     10  C   UNL     1       4.785   0.852  -0.378  0.00  0.00    +0.000 C 
BRANCH  10  11
ATOM     11  C   UNL     1       5.448  -0.068   0.681  0.00  0.00    +0.000 C 
BRANCH  11  12
ATOM     12  N   UNL     1       4.570  -0.437   1.814  0.00  0.00    +0.000 NA
ATOM     13  H   UNL     1       4.078   0.382   2.230  0.00  0.00    +0.000 HD
BRANCH  12  14
ATOM     14  C   UNL     1       3.699  -1.604   1.571  0.00  0.00    +0.000 C 
BRANCH  14  20
ATOM     15  C   UNL     1       1.323  -0.982   2.487  0.00  0.00    +0.000 A 
ATOM     16  C   UNL     1       0.335  -1.123   3.478  0.00  0.00    +0.000 A 
ATOM     17  C   UNL     1       0.563  -1.923   4.588  0.00  0.00    +0.000 A 
ATOM     18  C   UNL     1       1.779  -2.588   4.720  0.00  0.00    +0.000 A 
ATOM     19  C   UNL     1       2.760  -2.471   3.730  0.00  0.00    +0.000 A 
ATOM     20  C   UNL     1       2.558  -1.675   2.592  0.00  0.00    +0.000 A 
BRANCH  15  22
ATOM     21  C   UNL     1       1.606   0.101   0.313  0.00  0.00    +0.000 C 
ATOM     22  O   UNL     1       0.981  -0.141   1.491  0.00  0.00    +0.000 OA
ENDBRANCH  15  22
ENDBRANCH  14  20
ENDBRANCH  12  14
ENDBRANCH  11  12
ENDBRANCH  10  11
ENDBRANCH   9  10
ENDBRANCH   8   9
ENDBRANCH   7   8
ENDBRANCH   6   7
ENDBRANCH   4   6
ENDBRANCH   3   4
ENDBRANCH   2   3
ENDBRANCH   1   2
BRANCH   1  23
ATOM     23  C   UNL     1       1.397   6.505  -0.751  0.00  0.00    +0.000 C 
BRANCH  23  24
ATOM     24  C   UNL     1       0.680   7.469  -1.725  0.00  0.00    +0.000 C 
BRANCH  24  25
ATOM     25  C   UNL     1      -0.518   6.858  -2.477  0.00  0.00    +0.000 C 
BRANCH  25  26
ATOM     26  N   UNL     1      -1.659   6.571  -1.587  0.00  0.00    +0.000 NA
ATOM     27  H   UNL     1      -1.377   6.118  -0.692  0.00  0.00    +0.000 HD
BRANCH  26  28
ATOM     28  C   UNL     1      -2.755   5.821  -2.242  0.00  0.00    +0.000 C 
BRANCH  28  29
ATOM     29  C   UNL     1      -2.362   4.401  -2.706  0.00  0.00    +0.000 C 
BRANCH  29  30
ATOM     30  C   UNL     1      -1.879   3.502  -1.577  0.00  0.00    +0.000 C 
BRANCH  30  31
ATOM     31  C   UNL     1      -2.993   2.970  -0.630  0.00  0.00    +0.000 C 
BRANCH  31  32
ATOM     32  C   UNL     1      -4.013   1.879  -1.177  0.00  0.00    +0.000 C 
BRANCH  32  33
ATOM     33  C   UNL     1      -3.650   0.461  -1.815  0.00  0.00    +0.000 C 
BRANCH  33  34
ATOM     34  N   UNL     1      -3.211  -0.601  -0.867  0.00  0.00    +0.000 NA
ATOM     35  H   UNL     1      -4.019  -0.984  -0.320  0.00  0.00    +0.000 HD
BRANCH  34  36
ATOM     36  C   UNL     1      -2.338  -1.711  -1.351  0.00  0.00    +0.000 C 
BRANCH  36  37
ATOM     37  C   UNL     1      -1.054  -1.247  -2.019  0.00  0.00    +0.000 A 
ATOM     38  C   UNL     1      -0.363  -2.119  -2.890  0.00  0.00    +0.000 A 
ATOM     39  C   UNL     1       0.720  -1.659  -3.652  0.00  0.00    +0.000 A 
ATOM     40  C   UNL     1       1.106  -0.322  -3.574  0.00  0.00    +0.000 A 
ATOM     41  C   UNL     1       0.468   0.533  -2.672  0.00  0.00    +0.000 A 
ATOM     42  C   UNL     1      -0.575   0.063  -1.847  0.00  0.00    +0.000 A 
BRANCH  42  43
ATOM     43  O   UNL     1      -1.093   0.889  -0.899  0.00  0.00    +0.000 OA
ATOM     44  C   UNL     1      -1.202   0.625   0.463  0.00  0.00    +0.000 C 
ENDBRANCH  42  43
ENDBRANCH  36  37
ENDBRANCH  34  36
ENDBRANCH  33  34
ENDBRANCH  32  33
ENDBRANCH  31  32
ENDBRANCH  30  31
ENDBRANCH  29  30
ENDBRANCH  28  29
ENDBRANCH  26  28
ENDBRANCH  25  26
ENDBRANCH  24  25
ENDBRANCH  23  24
ENDBRANCH   1  23
TORSDOF 27
