REMARK  Name = 
REMARK  23 active torsions:
REMARK  status: ('A' for Active; 'I' for Inactive)
REMARK    1  A    between atoms: C_1  and  C_2
REMARK    2  A    between atoms: C_2  and  C_3
REMARK    3  A    between atoms: C_3  and  N_4
REMARK    4  A    between atoms: N_4  and  C_5
REMARK    5  A    between atoms: C_5  and  C_6
REMARK    6  A    between atoms: C_6  and  C_7
REMARK    7  A    between atoms: C_7  and  N_8
REMARK    8  A    between atoms: N_8  and  C_9
REMARK    9  A    between atoms: C_9  and  C_10
REMARK   10  A    between atoms: C_10  and  C_11
REMARK   11  A    between atoms: C_11  and  C_12
REMARK   12  A    between atoms: C_12  and  C_13
REMARK   13  A    between atoms: C_13  and  C_14
REMARK   14  A    between atoms: C_14  and  C_15
REMARK   15  A    between atoms: C_15  and  C_16
REMARK   16  A    between atoms: C_16  and  N_17
REMARK   17  A    between atoms: N_17  and  C_18
REMARK   18  A    between atoms: C_18  and  C_19
REMARK   19  A    between atoms: C_19  and  C_20
REMARK   20  A    between atoms: C_20  and  N_21
REMARK   21  A    between atoms: N_21  and  C_22
REMARK   22  A    between atoms: C_22  and  C_23
REMARK   23  A    between atoms: C_23  and  C_24
REMARK                            x       y       z     vdW  Elec       q    Type
REMARK                         _______ _______ _______ _____ _____    ______ ____
ROOT
ATOM      1  C   UNL     1       0.430   3.939  -3.904  0.00  0.00    +0.000 C 
ENDROOT
BRANCH   1   2
ATOM      2  C   UNL     1       0.956   2.926  -2.882  0.00  0.00    +0.000 C 
BRANCH   2   3
ATOM      3  C   UNL     1       2.497   2.848  -2.788  0.00  0.00    +0.000 C 
BRANCH   3   4
ATOM      4  C   UNL     1       3.187   4.164  -2.343  0.00  0.00    +0.000 C 
BRANCH   4   5
ATOM      5  N   UNL     1       2.726   4.663  -1.033  0.00  0.00    +0.000 NA
ATOM      6  H   UNL     1       1.696   4.814  -1.056  0.00  0.00    +0.000 HD
BRANCH   5   7
ATOM      7  C   UNL     1       3.154   3.805   0.085  0.00  0.00    +0.000 C 
BRANCH   7   8
ATOM      8  C   UNL     1       2.498   4.197   1.423  0.00  0.00    +0.000 C 
BRANCH   8   9
ATOM      9  C   UNL     1       0.957   4.034   1.475  0.00  0.00    +0.000 C 
BRANCH   9  10
ATOM     10  N   UNL     1       0.467   2.704   1.068  0.00  0.00    +0.000 NA
ATOM     11  H   UNL     1       0.737   2.537   0.083  0.00  0.00    +0.000 HD
BRANCH  10  12
ATOM     12  C   UNL     1       0.943   1.600   1.909  0.00  0.00    +0.000 C 
BRANCH  12  14
ATOM     13  C   UNL     1       0.859  -0.167   0.043  0.00  0.00    +0.000 C 
ATOM     14  C   UNL     1       0.374   0.248   1.438  0.00  0.00    +0.000 C 
ENDBRANCH  12  14
ENDBRANCH  10  12
ENDBRANCH   9  10
ENDBRANCH   8   9
ENDBRANCH   7   8
ENDBRANCH   5   7
ENDBRANCH   4   5
ENDBRANCH   3   4
ENDBRANCH   2   3
ENDBRANCH   1   2
BRANCH   1  15
ATOM     15  C   UNL     1       0.864   3.633  -5.341  0.00  0.00    +0.000 C 
BRANCH  15  16
ATOM     16  C   UNL     1       0.382   2.267  -5.883  0.00  0.00    +0.000 C 
BRANCH  16  17
ATOM     17  C   UNL     1      -1.157   2.114  -5.964  0.00  0.00    +0.000 C 
BRANCH  17  18
ATOM     18  C   UNL     1      -1.857   3.158  -6.860  0.00  0.00    +0.000 C 
BRANCH  18  19
ATOM     19  N   UNL     1      -1.448   3.021  -8.268  0.00  0.00    +0.000 NA
ATOM     20  H   UNL     1      -0.422   2.920  -8.377  0.00  0.00    +0.000 HD
BRANCH  19  21
ATOM     21  C   UNL     1      -1.904   4.116  -9.140  0.00  0.00    +0.000 C 
BRANCH  21  22
ATOM     22  C   UNL     1      -1.223   5.481  -8.862  0.00  0.00    +0.000 C 
BRANCH  22  23
ATOM     23  C   UNL     1       0.319   5.469  -8.838  0.00  0.00    +0.000 C 
BRANCH  23  24
ATOM     24  N   UNL     1       0.913   5.032 -10.107  0.00  0.00    +0.000 NA
ATOM     25  H   UNL     1       0.567   4.090 -10.388  0.00  0.00    +0.000 HD
BRANCH  24  26
ATOM     26  C   UNL     1       2.391   5.019 -10.057  0.00  0.00    +0.000 C 
BRANCH  26  27
ATOM     27  C   UNL     1       3.001   3.961  -9.102  0.00  0.00    +0.000 C 
ATOM     28  C   UNL     1       2.637   2.523  -9.473  0.00  0.00    +0.000 C 
ENDBRANCH  26  27
ENDBRANCH  24  26
ENDBRANCH  23  24
ENDBRANCH  22  23
ENDBRANCH  21  22
ENDBRANCH  19  21
ENDBRANCH  18  19
ENDBRANCH  17  18
ENDBRANCH  16  17
ENDBRANCH  15  16
ENDBRANCH   1  15
TORSDOF 21
