REMARK  Name = 
REMARK  11 active torsions:
REMARK  status: ('A' for Active; 'I' for Inactive)
REMARK    1  A    between atoms: C_1  and  C_2
REMARK    2  A    between atoms: C_4  and  C_5
REMARK    3  A    between atoms: C_6  and  C_7
REMARK    4  A    between atoms: C_7  and  O_8
REMARK    5  A    between atoms: C_7  and  C_9
REMARK    6  A    between atoms: C_9  and  C_10
REMARK    7  A    between atoms: C_9  and  C_14
REMARK    8  A    between atoms: C_10  and  N_11
REMARK    9  A    between atoms: N_11  and  C_12
REMARK   10  A    between atoms: N_11  and  C_13
REMARK   11  A    between atoms: C_20  and  C_21
REMARK                            x       y       z     vdW  Elec       q    Type
REMARK                         _______ _______ _______ _____ _____    ______ ____
ROOT
ATOM      1  C   UNL     1      -2.114  -1.795   0.101  0.00  0.00    +0.000 C 
ENDROOT
BRANCH   1   7
ATOM      2  C   UNL     1      -5.354  -0.989   4.944  0.00  0.00    +0.000 C 
ATOM      3  C   UNL     1      -4.543  -1.163   3.694  0.00  0.00    +0.000 A 
ATOM      4  C   UNL     1      -4.256  -2.446   3.247  0.00  0.00    +0.000 A 
ATOM      5  C   UNL     1      -3.483  -2.666   2.105  0.00  0.00    +0.000 A 
ATOM      6  C   UNL     1      -3.257  -4.129   1.779  0.00  0.00    +0.000 C 
ATOM      7  C   UNL     1      -2.976  -1.549   1.355  0.00  0.00    +0.000 A 
ATOM      8  C   UNL     1      -3.288  -0.227   1.822  0.00  0.00    +0.000 A 
ATOM      9  C   UNL     1      -2.812   1.036   1.141  0.00  0.00    +0.000 C 
ATOM     10  C   UNL     1      -4.065  -0.064   2.983  0.00  0.00    +0.000 A 
ENDBRANCH   1   7
BRANCH   1  11
ATOM     11  O   UNL     1      -1.107  -0.819  -0.034  0.00  0.00    +0.000 OA
ATOM     12  H   UNL     1      -0.434  -0.982   0.679  0.00  0.00    +0.000 HD
ENDBRANCH   1  11
BRANCH   1  13
ATOM     13  C   UNL     1      -2.943  -1.846  -1.223  0.00  0.00    +0.000 C 
BRANCH  13  14
ATOM     14  C   UNL     1      -4.143  -2.802  -1.177  0.00  0.00    +0.000 A 
ATOM     15  C   UNL     1      -5.440  -2.270  -1.013  0.00  0.00    +0.000 A 
ATOM     16  C   UNL     1      -6.558  -3.116  -0.938  0.00  0.00    +0.000 A 
ATOM     17  C   UNL     1      -6.398  -4.494  -1.042  0.00  0.00    +0.000 A 
ATOM     18  C   UNL     1      -5.126  -5.037  -1.224  0.00  0.00    +0.000 A 
ATOM     19  C   UNL     1      -4.010  -4.204  -1.289  0.00  0.00    +0.000 A 
ENDBRANCH  13  14
BRANCH  13  20
ATOM     20  C   UNL     1      -2.077  -2.020  -2.513  0.00  0.00    +0.000 C 
BRANCH  20  21
ATOM     21  N   UNL     1      -1.447  -3.355  -2.749  0.00  0.00    +0.000 NA
ATOM     22  C   UNL     1      -0.844  -3.377  -4.092  0.00  0.00    +0.000 C 
ATOM     23  C   UNL     1      -0.409  -3.728  -1.764  0.00  0.00    +0.000 C 
ENDBRANCH  20  21
ENDBRANCH  13  20
ENDBRANCH   1  13
TORSDOF 6
