REMARK  Name = 
REMARK  10 active torsions:
REMARK  status: ('A' for Active; 'I' for Inactive)
REMARK    1  A    between atoms: C_1  and  C_2
REMARK    2  A    between atoms: C_2  and  C_3
REMARK    3  A    between atoms: C_2  and  C_4
REMARK    4  A    between atoms: N_6  and  C_7
REMARK    5  A    between atoms: C_11  and  N_12
REMARK    6  A    between atoms: N_15  and  C_16
REMARK    7  A    between atoms: C_16  and  C_17
REMARK    8  A    between atoms: C_17  and  C_18
REMARK    9  A    between atoms: C_18  and  C_19
REMARK   10  A    between atoms: C_19  and  N_20
REMARK                            x       y       z     vdW  Elec       q    Type
REMARK                         _______ _______ _______ _____ _____    ______ ____
ROOT
ATOM      1  N   UNL     1       1.185  -3.015   0.942  0.00  0.00    +0.000 N 
ATOM      2  C   UNL     1       2.446  -3.059   0.205  0.00  0.00    +0.000 C 
ATOM      3  C   UNL     1       3.598  -2.189   0.800  0.00  0.00    +0.000 C 
ATOM      4  N   UNL     1       3.595  -2.136   2.264  0.00  0.00    +0.000 NA
ATOM      5  C   UNL     1       2.302  -1.609   2.737  0.00  0.00    +0.000 C 
ATOM      6  C   UNL     1       1.090  -2.462   2.299  0.00  0.00    +0.000 C 
ENDROOT
BRANCH   1  11
ATOM      7  C   UNL     1      -1.509  -1.795  -1.203  0.00  0.00    +0.000 A 
ATOM      8  C   UNL     1      -1.768  -2.899  -2.037  0.00  0.00    +0.000 A 
ATOM      9  C   UNL     1      -1.065  -4.099  -1.824  0.00  0.00    +0.000 A 
ATOM     10  C   UNL     1      -0.106  -4.159  -0.811  0.00  0.00    +0.000 A 
ATOM     11  C   UNL     1       0.080  -3.060   0.051  0.00  0.00    +0.000 A 
ATOM     12  C   UNL     1      -0.672  -1.922  -0.113  0.00  0.00    +0.000 A 
BRANCH   7  15
ATOM     13  C   UNL     1      -1.262   0.629  -1.531  0.00  0.00    +0.000 C 
ATOM     14  O   UNL     1      -1.856   1.680  -1.725  0.00  0.00    +0.000 OA
ATOM     15  N   UNL     1      -2.030  -0.516  -1.469  0.00  0.00    +0.000 N 
ATOM     16  H   UNL     1      -3.029  -0.448  -1.711  0.00  0.00    +0.000 HD
BRANCH  13  18
ATOM     17  C   UNL     1       1.147   0.489  -0.268  0.00  0.00    +0.000 C 
ATOM     18  C   UNL     1       0.307   0.744  -1.539  0.00  0.00    +0.000 C 
ATOM     19  C   UNL     1       0.914  -0.055  -2.703  0.00  0.00    +0.000 C 
ENDBRANCH  13  18
ENDBRANCH   7  15
ENDBRANCH   1  11
BRANCH   4  20
ATOM     20  C   UNL     1       4.238  -3.213   3.060  0.00  0.00    +0.000 C 
BRANCH  20  21
ATOM     21  C   UNL     1       3.707  -4.616   2.793  0.00  0.00    +0.000 C 
BRANCH  21  22
ATOM     22  C   UNL     1       4.192  -5.215   1.459  0.00  0.00    +0.000 C 
BRANCH  22  23
ATOM     23  C   UNL     1       5.455  -6.004   1.500  0.00  0.00    +0.000 C 
BRANCH  23  24
ATOM     24  N   UNL     1       5.218  -7.369   1.933  0.00  0.00    +0.000 N 
ATOM     25  C   UNL     1       4.138  -7.685   2.871  0.00  0.00    +0.000 C 
ATOM     26  C   UNL     1       3.915  -9.117   3.122  0.00  0.00    +0.000 C 
ATOM     27  O   UNL     1       3.019  -9.418   3.901  0.00  0.00    +0.000 OA
ATOM     28  N   UNL     1       4.750 -10.067   2.626  0.00  0.00    +0.000 N 
ATOM     29  C   UNL     1       4.814 -11.325   3.319  0.00  0.00    +0.000 C 
ATOM     30  C   UNL     1       5.826 -11.096   4.478  0.00  0.00    +0.000 C 
ATOM     31  C   UNL     1       6.848  -9.956   4.147  0.00  0.00    +0.000 C 
ATOM     32  C   UNL     1       7.224 -10.076   2.666  0.00  0.00    +0.000 C 
ATOM     33  C   UNL     1       5.947  -9.747   1.831  0.00  0.00    +0.000 C 
ATOM     34  C   UNL     1       6.048  -8.322   1.437  0.00  0.00    +0.000 C 
ATOM     35  O   UNL     1       6.950  -8.016   0.663  0.00  0.00    +0.000 OA
ENDBRANCH  23  24
ENDBRANCH  22  23
ENDBRANCH  21  22
ENDBRANCH  20  21
ENDBRANCH   4  20
TORSDOF 8
