REMARK  Name = 
REMARK  6 active torsions:
REMARK  status: ('A' for Active; 'I' for Inactive)
REMARK    1  A    between atoms: C_1  and  C_2
REMARK    2  A    between atoms: C_6  and  C_7
REMARK    3  A    between atoms: N_9  and  C_10
REMARK    4  A    between atoms: C_16  and  O_17
REMARK    5  A    between atoms: C_18  and  O_19
REMARK    6  A    between atoms: C_20  and  C_21
REMARK                            x       y       z     vdW  Elec       q    Type
REMARK                         _______ _______ _______ _____ _____    ______ ____
ROOT
ATOM      1  C   UNL     1      -1.864   2.528   0.022  0.00  0.00    +0.000 C 
ATOM      2  C   UNL     1      -1.493   3.309   1.268  0.00  0.00    +0.000 C 
ATOM      3  N   UNL     1      -2.212   4.592   1.285  0.00  0.00    +0.000 NA
ATOM      4  C   UNL     1      -1.856   5.340   2.485  0.00  0.00    +0.000 C 
ATOM      5  C   UNL     1      -1.608   5.223   0.153  0.00  0.00    +0.000 C 
ATOM      6  C   UNL     1      -0.102   1.674  -1.887  0.00  0.00    +0.000 C 
ATOM      7  C   UNL     1      -0.610   2.807  -2.160  0.00  0.00    +0.000 A 
ATOM      8  C   UNL     1      -1.478   3.273  -1.260  0.00  0.00    +0.000 A 
ATOM      9  C   UNL     1      -2.113   4.436  -1.928  0.00  0.00    +0.000 A 
ATOM     10  C   UNL     1      -1.704   5.311  -2.616  0.00  0.00    +0.000 A 
ATOM     11  C   UNL     1      -0.828   4.766  -3.518  0.00  0.00    +0.000 A 
ATOM     12  C   UNL     1      -0.268   3.506  -3.304  0.00  0.00    +0.000 A 
ENDROOT
BRANCH  12  13
ATOM     13  C   UNL     1       0.704   2.928  -4.292  0.00  0.00    +0.000 A 
ATOM     14  C   UNL     1       0.458   1.759  -4.918  0.00  0.00    +0.000 A 
ATOM     15  C   UNL     1       1.441   1.231  -5.784  0.00  0.00    +0.000 A 
ATOM     16  C   UNL     1       2.757   1.729  -5.765  0.00  0.00    +0.000 A 
ATOM     17  C   UNL     1       3.835   0.773  -6.558  0.00  0.00    +0.000 A 
ATOM     18  C   UNL     1       5.248   1.169  -6.583  0.00  0.00    +0.000 A 
ATOM     19  C   UNL     1       5.732   1.333  -6.578  0.00  0.00    +0.000 A 
ATOM     20  C   UNL     1       4.830   3.726  -5.155  0.00  0.00    +0.000 A 
ATOM     21  C   UNL     1       3.011   2.985  -5.092  0.00  0.00    +0.000 A 
ATOM     22  C   UNL     1       1.935   3.576  -4.526  0.00  0.00    +0.000 A 
ENDBRANCH  12  13
BRANCH   1  28
ATOM     23  C   UNL     1       2.489   0.003  -0.015  0.00  0.00    +0.000 C 
ATOM     24  C   UNL     1       1.001  -0.011   0.030  0.00  0.00    +0.000 A 
ATOM     25  C   UNL     1       0.262  -1.198   0.007  0.00  0.00    +0.000 A 
ATOM     26  C   UNL     1      -1.110  -1.200   0.002  0.00  0.00    +0.000 A 
ATOM     27  C   UNL     1      -1.811   0.006   0.000  0.00  0.00    +0.000 A 
ATOM     28  C   UNL     1      -1.214   1.236   0.222  0.00  0.00    +0.000 A 
ATOM     29  C   UNL     1       0.381   1.207   0.285  0.00  0.00    +0.000 A 
ENDBRANCH   1  28
BRANCH  10  30
ATOM     30  O   UNL     1      -2.268   6.584  -2.785  0.00  0.00    +0.000 OA
ATOM     31  H   UNL     1      -2.036   7.108  -3.601  0.00  0.00    +0.000 HD
ENDBRANCH  10  30
BRANCH  11  32
ATOM     32  O   UNL     1      -0.517   5.471  -4.683  0.00  0.00    +0.000 OA
ATOM     33  H   UNL     1       0.104   5.089  -5.359  0.00  0.00    +0.000 HD
ENDBRANCH  11  32
TORSDOF 4
