REMARK  Name = 
REMARK  4 active torsions:
REMARK  status: ('A' for Active; 'I' for Inactive)
REMARK    1  A    between atoms: O_1  and  C_2
REMARK    2  A    between atoms: C_8  and  C_9
REMARK    3  A    between atoms: C_9  and  C_10
REMARK    4  A    between atoms: C_10  and  C_11
REMARK                            x       y       z     vdW  Elec       q    Type
REMARK                         _______ _______ _______ _____ _____    ______ ____
ROOT
ATOM      1  C   UNL     1       2.222  -0.071   0.000  0.00  0.00    +0.000 A 
ATOM      2  C   UNL     1       2.024   1.330   0.008  0.00  0.00    +0.000 A 
ATOM      3  C   UNL     1       0.732   1.865   0.088  0.00  0.00    +0.000 A 
ATOM      4  C   UNL     1      -0.332   0.977   0.152  0.00  0.00    +0.000 A 
ATOM      5  N   UNL     1      -1.626   1.298   0.214  0.00  0.00    +0.000 N 
ATOM      6  C   UNL     1      -2.305   0.137   0.227  0.00  0.00    +0.000 A 
ATOM      7  C   UNL     1      -1.429  -0.963   0.180  0.00  0.00    +0.000 A 
ATOM      8  C   UNL     1      -0.159  -0.387   0.137  0.00  0.00    +0.000 A 
ATOM      9  C   UNL     1       1.122  -0.947   0.064  0.00  0.00    +0.000 A 
ATOM     10  H   UNL     1      -2.040   2.256   0.230  0.00  0.00    +0.000 HD
ENDROOT
BRANCH   1  11
ATOM     11  O   UNL     1       3.465  -0.584  -0.079  0.00  0.00    +0.000 OA
ATOM     12  H   UNL     1       4.248  -0.016  -0.129  0.00  0.00    +0.000 HD
ENDBRANCH   1  11
BRANCH   7  13
ATOM     13  C   UNL     1      -1.718  -2.472   0.107  0.00  0.00    +0.000 C 
BRANCH  13  14
ATOM     14  C   UNL     1      -2.648  -3.104   1.177  0.00  0.00    +0.000 C 
BRANCH  14  15
ATOM     15  C   UNL     1      -4.210  -3.196   1.003  0.00  0.00    +0.000 C 
ATOM     16  C   UNL     1      -4.736  -4.307   0.058  0.00  0.00    +0.000 C 
ATOM     17  C   UNL     1      -4.638  -3.936  -1.425  0.00  0.00    +0.000 C 
ATOM     18  N   UNL     1      -5.347  -2.674  -1.680  0.00  0.00    +0.000 NA
ATOM     19  C   UNL     1      -4.791  -1.585  -0.873  0.00  0.00    +0.000 C 
ATOM     20  C   UNL     1      -4.933  -1.897   0.641  0.00  0.00    +0.000 C 
ATOM     21  H   UNL     1      -5.225  -2.427  -2.691  0.00  0.00    +0.000 HD
ENDBRANCH  14  15
ENDBRANCH  13  14
ENDBRANCH   7  13
TORSDOF 4
