REMARK  Name = 
REMARK  7 active torsions:
REMARK  status: ('A' for Active; 'I' for Inactive)
REMARK    1  A    between atoms: C_1  and  O_2
REMARK    2  A    between atoms: O_2  and  C_3
REMARK    3  A    between atoms: C_6  and  C_7
REMARK    4  A    between atoms: C_9  and  C_10
REMARK    5  A    between atoms: C_16  and  C_17
REMARK    6  A    between atoms: C_20  and  C_21
REMARK    7  A    between atoms: N_24  and  C_25
REMARK                            x       y       z     vdW  Elec       q    Type
REMARK                         _______ _______ _______ _____ _____    ______ ____
ROOT
ATOM      1  C   UNL     1       3.962   0.368   9.428  0.00  0.00    +0.000 C 
ATOM      2  C   UNL     1       3.449   1.672  10.220  0.00  0.00    +0.000 C 
ATOM      3  C   UNL     1       4.008   2.087  11.643  0.00  0.00    +0.000 C 
ATOM      4  C   UNL     1       5.140   3.108  11.365  0.00  0.00    +0.000 C 
ATOM      5  C   UNL     1       5.381   2.820   9.928  0.00  0.00    +0.000 C 
ATOM      6  C   UNL     1       6.151   1.402   9.914  0.00  0.00    +0.000 C 
ATOM      7  C   UNL     1       5.474   0.537   8.855  0.00  0.00    +0.000 C 
ATOM      8  N   UNL     1       3.995   2.666   9.381  0.00  0.00    +0.000 NA
ATOM      9  C   UNL     1       3.031   3.651   8.879  0.00  0.00    +0.000 C 
ENDROOT
BRANCH   7  10
ATOM     10  C   UNL     1       5.913   1.298   7.569  0.00  0.00    +0.000 A 
ATOM     11  C   UNL     1       7.279   1.223   7.199  0.00  0.00    +0.000 A 
ATOM     12  C   UNL     1       7.806   2.046   6.197  0.00  0.00    +0.000 A 
ATOM     13  C   UNL     1       6.984   2.977   5.548  0.00  0.00    +0.000 A 
ATOM     14  C   UNL     1       7.550   3.940   4.555  0.00  0.00    +0.000 C 
ATOM     15  C   UNL     1       5.623   3.019   5.861  0.00  0.00    +0.000 A 
ATOM     16  C   UNL     1       5.097   2.182   6.836  0.00  0.00    +0.000 A 
ENDBRANCH   7  10
BRANCH   1  19
ATOM     17  C   UNL     1       1.863  -0.039   6.429  0.00  0.00    +0.000 A 
ATOM     18  C   UNL     1       3.132  -0.068   6.966  0.00  0.00    +0.000 A 
ATOM     19  C   UNL     1       2.939   0.074   8.328  0.00  0.00    +0.000 A 
ATOM     20  O   UNL     1       1.640   0.070   8.551  0.00  0.00    +0.000 OA
ATOM     21  N   UNL     1       0.969   0.017   7.440  0.00  0.00    +0.000 NA
BRANCH  17  25
ATOM     22  C   UNL     1       0.819   0.423   2.272  0.00  0.00    +0.000 A 
ATOM     23  C   UNL     1      -0.140   0.580   3.276  0.00  0.00    +0.000 A 
ATOM     24  C   UNL     1       0.195   0.392   4.620  0.00  0.00    +0.000 A 
ATOM     25  C   UNL     1       1.512   0.071   4.992  0.00  0.00    +0.000 A 
ATOM     26  C   UNL     1       2.486  -0.058   3.984  0.00  0.00    +0.000 A 
ATOM     27  C   UNL     1       2.143   0.104   2.636  0.00  0.00    +0.000 A 
BRANCH  22  29
ATOM     28  C   UNL     1       1.057   0.044  -0.119  0.00  0.00    +0.000 C 
ATOM     29  O   UNL     1       0.429   0.587   0.983  0.00  0.00    +0.000 OA
ENDBRANCH  22  29
ENDBRANCH  17  25
ENDBRANCH   1  19
TORSDOF 4
