REMARK  Name = 
REMARK  15 active torsions:
REMARK  status: ('A' for Active; 'I' for Inactive)
REMARK    1  A    between atoms: C_1  and  O_2
REMARK    2  A    between atoms: O_2  and  C_3
REMARK    3  A    between atoms: C_5  and  C_6
REMARK    4  A    between atoms: C_13  and  C_14
REMARK    5  A    between atoms: C_14  and  C_15
REMARK    6  A    between atoms: C_15  and  N_16
REMARK    7  A    between atoms: N_16  and  C_17
REMARK    8  A    between atoms: N_16  and  C_18
REMARK    9  A    between atoms: C_18  and  C_19
REMARK   10  A    between atoms: C_19  and  N_20
REMARK   11  A    between atoms: N_20  and  C_21
REMARK   12  A    between atoms: N_20  and  C_22
REMARK   13  A    between atoms: C_33  and  O_34
REMARK   14  A    between atoms: O_34  and  C_35
REMARK   15  A    between atoms: C_36  and  O_37
REMARK                            x       y       z     vdW  Elec       q    Type
REMARK                         _______ _______ _______ _____ _____    ______ ____
ROOT
ATOM      1  C   UNL     1       0.329  -5.560  -2.893  0.00  0.00    +0.000 C 
ATOM      2  C   UNL     1       1.202  -6.884  -2.983  0.00  0.00    +0.000 A 
ATOM      3  C   UNL     1       0.541  -8.120  -2.729  0.00  0.00    +0.000 A 
ATOM      4  C   UNL     1       0.168  -8.356  -1.445  0.00  0.00    +0.000 A 
ATOM      5  C   UNL     1       0.750  -7.656  -0.494  0.00  0.00    +0.000 A 
ATOM      6  C   UNL     1       1.910  -6.897  -0.793  0.00  0.00    +0.000 A 
ATOM      7  C   UNL     1       2.223  -6.500  -2.219  0.00  0.00    +0.000 A 
ATOM      8  C   UNL     1       2.989  -5.217  -3.015  0.00  0.00    +0.000 C 
ATOM      9  C   UNL     1       2.162  -4.900  -4.492  0.00  0.00    +0.000 C 
ATOM     10  C   UNL     1       1.704  -3.711  -5.458  0.00  0.00    +0.000 C 
ATOM     11  O   UNL     1       0.516  -3.155  -5.122  0.00  0.00    +0.000 OA
ATOM     12  C   UNL     1      -0.228  -4.144  -4.716  0.00  0.00    +0.000 C 
ATOM     13  O   UNL     1      -1.433  -4.112  -4.638  0.00  0.00    +0.000 OA
ATOM     14  C   UNL     1       0.611  -5.261  -4.315  0.00  0.00    +0.000 C 
ATOM     15  O   UNL     1       0.161  -7.922   0.673  0.00  0.00    +0.000 OA
ATOM     16  C   UNL     1      -0.718  -8.979   0.453  0.00  0.00    +0.000 C 
ATOM     17  O   UNL     1      -0.608  -9.296  -0.900  0.00  0.00    +0.000 OA
ENDROOT
BRANCH   1  20
ATOM     18  C   UNL     1       0.203  -1.897  -0.820  0.00  0.00    +0.000 A 
ATOM     19  C   UNL     1      -0.054  -2.920  -1.832  0.00  0.00    +0.000 A 
ATOM     20  C   UNL     1       0.552  -4.234  -1.784  0.00  0.00    +0.000 A 
ATOM     21  C   UNL     1       1.510  -4.214  -0.706  0.00  0.00    +0.000 A 
ATOM     22  C   UNL     1       1.665  -3.377   0.338  0.00  0.00    +0.000 A 
ATOM     23  C   UNL     1       0.963  -2.216   0.335  0.00  0.00    +0.000 A 
BRANCH  18  25
ATOM     24  C   UNL     1       0.434   0.484  -0.356  0.00  0.00    +0.000 C 
ATOM     25  O   UNL     1      -0.173  -0.598  -1.017  0.00  0.00    +0.000 OA
ENDBRANCH  18  25
BRANCH  22  26
ATOM     26  O   UNL     1       2.584  -3.748   1.282  0.00  0.00    +0.000 OA
ATOM     27  C   UNL     1       2.507  -3.649   2.652  0.00  0.00    +0.000 C 
ENDBRANCH  22  26
BRANCH  23  28
ATOM     28  O   UNL     1       1.126  -1.338   1.334  0.00  0.00    +0.000 OA
ATOM     29  H   UNL     1       1.937  -1.254   1.843  0.00  0.00    +0.000 HD
ENDBRANCH  23  28
ENDBRANCH   1  20
BRANCH   8  30
ATOM     30  C   UNL     1       4.516  -4.982  -2.443  0.00  0.00    +0.000 C 
BRANCH  30  31
ATOM     31  C   UNL     1       5.546  -3.734  -2.368  0.00  0.00    +0.000 C 
BRANCH  31  32
ATOM     32  N   UNL     1       5.045  -2.292  -2.218  0.00  0.00    +0.000 NA
ATOM     33  C   UNL     1       6.032  -1.234  -2.542  0.00  0.00    +0.000 C 
BRANCH  32  34
ATOM     34  C   UNL     1       3.797  -1.953  -2.895  0.00  0.00    +0.000 C 
BRANCH  34  35
ATOM     35  C   UNL     1       3.846  -1.720  -4.463  0.00  0.00    +0.000 C 
BRANCH  35  36
ATOM     36  N   UNL     1       4.296  -2.795  -5.475  0.00  0.00    +0.000 NA
ATOM     37  C   UNL     1       4.189  -2.484  -6.945  0.00  0.00    +0.000 C 
ATOM     38  C   UNL     1       5.543  -3.537  -5.306  0.00  0.00    +0.000 C 
ENDBRANCH  35  36
ENDBRANCH  34  35
ENDBRANCH  32  34
ENDBRANCH  31  32
ENDBRANCH  30  31
ENDBRANCH   8  30
TORSDOF 10
