REMARK  Name = 
REMARK  5 active torsions:
REMARK  status: ('A' for Active; 'I' for Inactive)
REMARK    1  A    between atoms: O_1  and  C_2
REMARK    2  A    between atoms: C_11  and  C_12
REMARK    3  A    between atoms: C_12  and  N_13
REMARK    4  A    between atoms: N_13  and  C_14
REMARK    5  A    between atoms: C_14  and  C_15
REMARK                            x       y       z     vdW  Elec       q    Type
REMARK                         _______ _______ _______ _____ _____    ______ ____
ROOT
ATOM      1  C   UNL     1       0.415   1.269   0.551  0.00  0.00    +0.000 A 
ATOM      2  C   UNL     1       0.756   2.623   0.369  0.00  0.00    +0.000 A 
ATOM      3  C   UNL     1      -0.046   3.635   0.917  0.00  0.00    +0.000 A 
ATOM      4  C   UNL     1      -1.189   3.281   1.673  0.00  0.00    +0.000 A 
ATOM      5  C   UNL     1      -1.536   1.936   1.831  0.00  0.00    +0.000 A 
ATOM      6  C   UNL     1      -0.737   0.933   1.278  0.00  0.00    +0.000 A 
ATOM      7 CL   UNL     1      -1.192  -0.752   1.509  0.00  0.00    +0.000 Cl
ATOM      8  C   UNL     1      -2.066   4.341   2.282  0.00  0.00    +0.000 C 
ATOM      9  C   UNL     1      -1.394   5.722   2.215  0.00  0.00    +0.000 C 
ATOM     10  C   UNL     1      -0.741   5.945   0.842  0.00  0.00    +0.000 C 
ATOM     11  O   UNL     1       0.238   4.957   0.692  0.00  0.00    +0.000 OA
ENDROOT
BRANCH   1  12
ATOM     12  O   UNL     1       1.175   0.290   0.020  0.00  0.00    +0.000 OA
ATOM     13  H   UNL     1       1.975   0.478  -0.491  0.00  0.00    +0.000 HD
ENDBRANCH   1  12
BRANCH  10  14
ATOM     14  C   UNL     1      -1.717   5.830  -0.357  0.00  0.00    +0.000 C 
BRANCH  14  15
ATOM     15  N   UNL     1      -3.010   6.519  -0.228  0.00  0.00    +0.000 NA
ATOM     16  H   UNL     1      -3.485   6.306   0.678  0.00  0.00    +0.000 HD
BRANCH  15  17
ATOM     17  C   UNL     1      -3.942   6.174  -1.332  0.00  0.00    +0.000 C 
BRANCH  17  18
ATOM     18  C   UNL     1      -4.598   4.781  -1.244  0.00  0.00    +0.000 A 
ATOM     19  C   UNL     1      -3.884   3.565  -1.391  0.00  0.00    +0.000 A 
ATOM     20  C   UNL     1      -4.525   2.329  -1.292  0.00  0.00    +0.000 A 
ATOM     21  C   UNL     1      -5.899   2.269  -1.094  0.00  0.00    +0.000 A 
ATOM     22  C   UNL     1      -6.638   3.448  -0.993  0.00  0.00    +0.000 A 
ATOM     23  C   UNL     1      -5.996   4.692  -1.061  0.00  0.00    +0.000 A 
ENDBRANCH  17  18
ENDBRANCH  15  17
ENDBRANCH  14  15
ENDBRANCH  10  14
TORSDOF 5
