REMARK  Name = 
REMARK  7 active torsions:
REMARK  status: ('A' for Active; 'I' for Inactive)
REMARK    1  A    between atoms: C_1  and  O_2
REMARK    2  A    between atoms: O_2  and  C_3
REMARK    3  A    between atoms: N_12  and  C_13
REMARK    4  A    between atoms: C_13  and  C_14
REMARK    5  A    between atoms: C_14  and  C_15
REMARK    6  A    between atoms: C_23  and  O_24
REMARK    7  A    between atoms: O_24  and  C_25
REMARK                            x       y       z     vdW  Elec       q    Type
REMARK                         _______ _______ _______ _____ _____    ______ ____
ROOT
ATOM      1  C   UNL     1       1.042  -1.201  -1.666  0.00  0.00    +0.000 A 
ATOM      2  C   UNL     1       2.380  -1.072  -2.096  0.00  0.00    +0.000 A 
ATOM      3  C   UNL     1       2.785  -1.568  -3.329  0.00  0.00    +0.000 A 
ATOM      4  C   UNL     1       1.876  -2.218  -4.143  0.00  0.00    +0.000 A 
ATOM      5  C   UNL     1       0.547  -2.373  -3.736  0.00  0.00    +0.000 A 
ATOM      6  C   UNL     1       0.083  -1.823  -2.500  0.00  0.00    +0.000 A 
ATOM      7  C   UNL     1      -1.430  -1.908  -2.081  0.00  0.00    +0.000 C 
ATOM      8  C   UNL     1      -1.552  -2.956  -0.939  0.00  0.00    +0.000 C 
ATOM      9  C   UNL     1      -1.459  -4.439  -1.383  0.00  0.00    +0.000 C 
ATOM     10  N   UNL     1      -1.177  -4.645  -2.822  0.00  0.00    +0.000 NA
ATOM     11  C   UNL     1      -1.616  -3.649  -3.867  0.00  0.00    +0.000 C 
ATOM     12  C   UNL     1      -0.333  -3.198  -4.627  0.00  0.00    +0.000 C 
ATOM     13  C   UNL     1      -2.310  -2.349  -3.303  0.00  0.00    +0.000 C 
ATOM     14  C   UNL     1      -2.299  -1.208  -4.415  0.00  0.00    +0.000 C 
ATOM     15  C   UNL     1      -2.831   0.124  -3.899  0.00  0.00    +0.000 C 
ATOM     16  C   UNL     1      -2.040   0.473  -2.682  0.00  0.00    +0.000 C 
ATOM     17  O   UNL     1      -1.412   1.517  -2.604  0.00  0.00    +0.000 OA
ATOM     18  C   UNL     1      -2.014  -0.534  -1.572  0.00  0.00    +0.000 C 
ENDROOT
BRANCH   1  20
ATOM     19  C   UNL     1       1.222   0.289   0.254  0.00  0.00    +0.000 C 
ATOM     20  O   UNL     1       0.654  -0.740  -0.459  0.00  0.00    +0.000 OA
ENDBRANCH   1  20
BRANCH  13  21
ATOM     21  O   UNL     1      -3.713  -2.425  -2.990  0.00  0.00    +0.000 OA
ATOM     22  C   UNL     1      -4.269  -3.585  -2.421  0.00  0.00    +0.000 C 
ENDBRANCH  13  21
BRANCH  10  23
ATOM     23  C   UNL     1      -0.442  -5.914  -3.175  0.00  0.00    +0.000 C 
BRANCH  23  24
ATOM     24  C   UNL     1      -1.332  -7.109  -3.612  0.00  0.00    +0.000 C 
BRANCH  24  25
ATOM     25  C   UNL     1      -2.108  -6.970  -4.912  0.00  0.00    +0.000 A 
ATOM     26  C   UNL     1      -3.191  -7.824  -5.167  0.00  0.00    +0.000 A 
ATOM     27  C   UNL     1      -4.012  -7.621  -6.290  0.00  0.00    +0.000 A 
ATOM     28  C   UNL     1      -3.754  -6.556  -7.160  0.00  0.00    +0.000 A 
ATOM     29  C   UNL     1      -2.643  -5.747  -6.957  0.00  0.00    +0.000 A 
ATOM     30  C   UNL     1      -1.819  -5.990  -5.866  0.00  0.00    +0.000 A 
ENDBRANCH  24  25
ENDBRANCH  23  24
ENDBRANCH  10  23
TORSDOF 5
