REMARK  Name = 
REMARK  9 active torsions:
REMARK  status: ('A' for Active; 'I' for Inactive)
REMARK    1  A    between atoms: C_1  and  O_2
REMARK    2  A    between atoms: O_2  and  C_3
REMARK    3  A    between atoms: C_8  and  N_9
REMARK    4  A    between atoms: N_12  and  C_13
REMARK    5  A    between atoms: C_13  and  C_14
REMARK    6  A    between atoms: C_14  and  C_15
REMARK    7  A    between atoms: C_15  and  C_16
REMARK    8  A    between atoms: C_16  and  N_17
REMARK    9  A    between atoms: C_18  and  C_20
REMARK                            x       y       z     vdW  Elec       q    Type
REMARK                         _______ _______ _______ _____ _____    ______ ____
ROOT
ATOM      1  C   UNL     1       6.772   1.827   0.413  0.00  0.00    +0.000 C 
ENDROOT
BRANCH   1   2
ATOM      2  C   UNL     1       6.739   0.389  -0.135  0.00  0.00    +0.000 C 
BRANCH   2   3
ATOM      3  C   UNL     1       5.864  -0.703   0.532  0.00  0.00    +0.000 C 
BRANCH   3   7
ATOM      4  N   UNL     1       2.426   1.263  -0.308  0.00  0.00    +0.000 N 
ATOM      5  C   UNL     1       3.200   1.527   0.896  0.00  0.00    +0.000 C 
ATOM      6  C   UNL     1       3.654   0.206   1.509  0.00  0.00    +0.000 C 
ATOM      7  N   UNL     1       4.386  -0.584   0.513  0.00  0.00    +0.000 NA
ATOM      8  C   UNL     1       3.611  -0.868  -0.701  0.00  0.00    +0.000 C 
ATOM      9  C   UNL     1       3.083   0.434  -1.322  0.00  0.00    +0.000 C 
BRANCH   4  15
ATOM     10  C   UNL     1       0.278   2.107  -1.208  0.00  0.00    +0.000 A 
ATOM     11  C   UNL     1      -0.477   3.179  -1.698  0.00  0.00    +0.000 A 
ATOM     12  C   UNL     1       0.064   4.464  -1.768  0.00  0.00    +0.000 A 
ATOM     13  C   UNL     1       1.377   4.689  -1.364  0.00  0.00    +0.000 A 
ATOM     14  C   UNL     1       2.152   3.635  -0.883  0.00  0.00    +0.000 A 
ATOM     15  C   UNL     1       1.620   2.331  -0.797  0.00  0.00    +0.000 A 
BRANCH  10  17
ATOM     16  C   UNL     1      -0.269   0.002  -0.085  0.00  0.00    +0.000 C 
ATOM     17  O   UNL     1      -0.350   0.904  -1.130  0.00  0.00    +0.000 OA
ENDBRANCH  10  17
ENDBRANCH   4  15
ENDBRANCH   3   7
ENDBRANCH   2   3
ENDBRANCH   1   2
BRANCH   1  18
ATOM     18  C   UNL     1       6.604   2.129   1.923  0.00  0.00    +0.000 C 
BRANCH  18  19
ATOM     19  N   UNL     1       7.787   2.139   2.765  0.00  0.00    +0.000 N 
ATOM     20  C   UNL     1       8.306   3.266   3.359  0.00  0.00    +0.000 C 
ATOM     21  O   UNL     1       9.085   3.074   4.293  0.00  0.00    +0.000 OA
ATOM     22  H   UNL     1       8.117   1.213   3.108  0.00  0.00    +0.000 HD
BRANCH  20  23
ATOM     23  C   UNL     1       8.148   4.714   2.814  0.00  0.00    +0.000 A 
ATOM     24  C   UNL     1       9.015   5.503   3.589  0.00  0.00    +0.000 A 
ATOM     25  O   UNL     1      10.308   5.515   3.277  0.00  0.00    +0.000 OA
ATOM     26  C   UNL     1      10.763   5.011   2.133  0.00  0.00    +0.000 A 
ATOM     27  C   UNL     1      12.131   4.860   1.930  0.00  0.00    +0.000 A 
ATOM     28  C   UNL     1      12.597   4.290   0.741  0.00  0.00    +0.000 A 
ATOM     29  C   UNL     1      11.699   3.928  -0.270  0.00  0.00    +0.000 A 
ATOM     30  C   UNL     1      10.324   4.112  -0.094  0.00  0.00    +0.000 A 
ATOM     31  C   UNL     1       9.853   4.612   1.133  0.00  0.00    +0.000 A 
ATOM     32  C   UNL     1       8.492   4.649   1.455  0.00  0.00    +0.000 A 
ATOM     33  O   UNL     1       7.637   4.456   0.612  0.00  0.00    +0.000 OA
ENDBRANCH  20  23
ENDBRANCH  18  19
ENDBRANCH   1  18
TORSDOF 8
