REMARK  Name = 
REMARK  9 active torsions:
REMARK  status: ('A' for Active; 'I' for Inactive)
REMARK    1  A    between atoms: C_1  and  C_2
REMARK    2  A    between atoms: C_2  and  C_3
REMARK    3  A    between atoms: C_2  and  C_4
REMARK    4  A    between atoms: N_6  and  C_7
REMARK    5  A    between atoms: C_11  and  N_12
REMARK    6  A    between atoms: N_15  and  C_16
REMARK    7  A    between atoms: C_16  and  C_17
REMARK    8  A    between atoms: C_17  and  C_18
REMARK    9  A    between atoms: C_18  and  N_19
REMARK                            x       y       z     vdW  Elec       q    Type
REMARK                         _______ _______ _______ _____ _____    ______ ____
ROOT
ATOM      1  N   UNL     1       1.055   2.657  -1.759  0.00  0.00    +0.000 N 
ATOM      2  C   UNL     1       2.266   3.355  -1.475  0.00  0.00    +0.000 C 
ATOM      3  C   UNL     1       3.457   2.400  -1.638  0.00  0.00    +0.000 C 
ATOM      4  N   UNL     1       3.477   1.835  -2.989  0.00  0.00    +0.000 NA
ATOM      5  C   UNL     1       2.209   1.130  -3.317  0.00  0.00    +0.000 C 
ATOM      6  C   UNL     1       0.966   2.013  -3.061  0.00  0.00    +0.000 C 
ENDROOT
BRANCH   1  11
ATOM      7  C   UNL     1      -1.512   1.647   0.702  0.00  0.00    +0.000 A 
ATOM      8  C   UNL     1      -1.794   2.868   1.331  0.00  0.00    +0.000 A 
ATOM      9  C   UNL     1      -1.147   4.029   0.910  0.00  0.00    +0.000 A 
ATOM     10  C   UNL     1      -0.216   3.953  -0.118  0.00  0.00    +0.000 A 
ATOM     11  C   UNL     1       0.025   2.735  -0.787  0.00  0.00    +0.000 A 
ATOM     12  C   UNL     1      -0.671   1.604  -0.406  0.00  0.00    +0.000 A 
BRANCH   7  15
ATOM     13  C   UNL     1      -1.279  -0.634   1.607  0.00  0.00    +0.000 C 
ATOM     14  O   UNL     1      -1.882  -1.601   2.051  0.00  0.00    +0.000 OA
ATOM     15  N   UNL     1      -2.039   0.442   1.211  0.00  0.00    +0.000 N 
ATOM     16  H   UNL     1      -3.049   0.426   1.423  0.00  0.00    +0.000 HD
BRANCH  13  18
ATOM     17  C   UNL     1       1.115  -0.788   0.411  0.00  0.00    +0.000 C 
ATOM     18  C   UNL     1       0.274  -0.703   1.701  0.00  0.00    +0.000 C 
ATOM     19  C   UNL     1       0.845   0.390   2.618  0.00  0.00    +0.000 C 
ENDBRANCH  13  18
ENDBRANCH   7  15
ENDBRANCH   1  11
BRANCH   4  20
ATOM     20  C   UNL     1       4.256   2.534  -4.058  0.00  0.00    +0.000 C 
BRANCH  20  21
ATOM     21  C   UNL     1       4.076   4.076  -4.246  0.00  0.00    +0.000 C 
BRANCH  21  22
ATOM     22  C   UNL     1       4.408   5.173  -3.170  0.00  0.00    +0.000 C 
BRANCH  22  23
ATOM     23  N   UNL     1       5.742   5.539  -2.699  0.00  0.00    +0.000 N 
ATOM     24  C   UNL     1       5.902   6.980  -2.467  0.00  0.00    +0.000 C 
ATOM     25  C   UNL     1       7.021   7.355  -1.549  0.00  0.00    +0.000 C 
ATOM     26  O   UNL     1       7.313   8.537  -1.435  0.00  0.00    +0.000 OA
ATOM     27  N   UNL     1       7.719   6.408  -0.874  0.00  0.00    +0.000 N 
ATOM     28  C   UNL     1       9.009   6.638  -0.296  0.00  0.00    +0.000 C 
ATOM     29  C   UNL     1       9.806   5.558  -1.013  0.00  0.00    +0.000 C 
ATOM     30  C   UNL     1       8.870   4.358  -0.895  0.00  0.00    +0.000 C 
ATOM     31  C   UNL     1       7.476   4.995  -0.981  0.00  0.00    +0.000 C 
ATOM     32  C   UNL     1       6.562   4.609  -2.101  0.00  0.00    +0.000 C 
ATOM     33  O   UNL     1       6.408   3.422  -2.303  0.00  0.00    +0.000 OA
ENDBRANCH  22  23
ENDBRANCH  21  22
ENDBRANCH  20  21
ENDBRANCH   4  20
TORSDOF 7
