REMARK  Name = 
REMARK  4 active torsions:
REMARK  status: ('A' for Active; 'I' for Inactive)
REMARK    1  A    between atoms: C_4  and  C_5
REMARK    2  A    between atoms: C_8  and  C_9
REMARK    3  A    between atoms: C_9  and  N_10
REMARK    4  A    between atoms: N_13  and  C_14
REMARK                            x       y       z     vdW  Elec       q    Type
REMARK                         _______ _______ _______ _____ _____    ______ ____
ROOT
ATOM      1  C   UNL     1      -5.949   0.636   0.962  0.00  0.00    +0.000 C 
ENDROOT
BRANCH   1   5
ATOM      2  C   UNL     1      -2.455   0.608   0.256  0.00  0.00    +0.000 C 
ATOM      3  N   UNL     1      -2.836   1.423  -0.640  0.00  0.00    +0.000 NA
ATOM      4  C   UNL     1      -4.249   1.376  -0.803  0.00  0.00    +0.000 C 
ATOM      5  C   UNL     1      -4.722   0.241   0.109  0.00  0.00    +0.000 C 
ATOM      6  N   UNL     1      -3.531  -0.091   0.855  0.00  0.00    +0.000 N 
ATOM      7  H   UNL     1      -3.443  -0.837   1.554  0.00  0.00    +0.000 HD
BRANCH   2  11
ATOM      8  C   UNL     1       1.690  -0.367   0.155  0.00  0.00    +0.000 A 
ATOM      9  C   UNL     1       1.274   0.964   0.053  0.00  0.00    +0.000 A 
ATOM     10  C   UNL     1      -0.073   1.280   0.140  0.00  0.00    +0.000 A 
ATOM     11  C   UNL     1      -1.026   0.273   0.332  0.00  0.00    +0.000 A 
ATOM     12  C   UNL     1      -0.617  -1.064   0.454  0.00  0.00    +0.000 A 
ATOM     13  C   UNL     1       0.742  -1.382   0.348  0.00  0.00    +0.000 A 
ENDBRANCH   2  11
ENDBRANCH   1   5
BRANCH   1  14
ATOM     14  N   UNL     1      -7.228   0.749   0.208  0.00  0.00    +0.000 NA
ATOM     15  C   UNL     1      -7.544   1.920  -0.626  0.00  0.00    +0.000 C 
ATOM     16  C   UNL     1      -7.104   1.782  -2.093  0.00  0.00    +0.000 C 
ATOM     17  N   UNL     1      -7.127   0.409  -2.597  0.00  0.00    +0.000 N 
ATOM     18  C   UNL     1      -7.328  -0.780  -1.765  0.00  0.00    +0.000 C 
ATOM     19  C   UNL     1      -7.834  -0.464  -0.356  0.00  0.00    +0.000 C 
BRANCH  17  20
ATOM     20  C   UNL     1      -6.994   0.223  -3.999  0.00  0.00    +0.000 A 
ATOM     21  C   UNL     1      -5.822   0.574  -4.697  0.00  0.00    +0.000 A 
ATOM     22  C   UNL     1      -5.778   0.409  -6.090  0.00  0.00    +0.000 A 
ATOM     23  C   UNL     1      -6.896  -0.076  -6.775  0.00  0.00    +0.000 A 
ATOM     24  C   UNL     1      -8.049  -0.416  -6.071  0.00  0.00    +0.000 A 
ATOM     25  C   UNL     1      -8.091  -0.280  -4.689  0.00  0.00    +0.000 A 
ENDBRANCH  17  20
ENDBRANCH   1  14
TORSDOF 4
