REMARK  Name = 
REMARK  6 active torsions:
REMARK  status: ('A' for Active; 'I' for Inactive)
REMARK    1  A    between atoms: C_1  and  C_2
REMARK    2  A    between atoms: C_5  and  C_6
REMARK    3  A    between atoms: C_12  and  C_13
REMARK    4  A    between atoms: C_15  and  C_16
REMARK    5  A    between atoms: C_16  and  C_17
REMARK    6  A    between atoms: N_26  and  C_27
REMARK                            x       y       z     vdW  Elec       q    Type
REMARK                         _______ _______ _______ _____ _____    ______ ____
ROOT
ATOM      1  C   UNL     1      -3.193  -0.287  -0.153  0.00  0.00    +0.000 C 
ATOM      2  C   UNL     1      -3.564   0.547  -1.452  0.00  0.00    +0.000 C 
ATOM      3  C   UNL     1      -5.122   0.825  -1.665  0.00  0.00    +0.000 C 
ATOM      4  C   UNL     1      -5.778   2.085  -1.107  0.00  0.00    +0.000 C 
ATOM      5  C   UNL     1      -5.949   1.845   0.399  0.00  0.00    +0.000 C 
ATOM      6  C   UNL     1      -5.521   0.371   0.554  0.00  0.00    +0.000 C 
ATOM      7  C   UNL     1      -3.935   0.424   0.959  0.00  0.00    +0.000 C 
ATOM      8  N   UNL     1      -5.827  -0.129  -0.857  0.00  0.00    +0.000 NA
ATOM      9  C   UNL     1      -5.915  -1.437  -1.552  0.00  0.00    +0.000 C 
ENDROOT
BRANCH   1  14
ATOM     10  C   UNL     1      -4.985  -5.897  -0.299  0.00  0.00    +0.000 C 
ATOM     11  C   UNL     1      -4.381  -4.547  -0.189  0.00  0.00    +0.000 A 
ATOM     12  C   UNL     1      -3.387  -4.071  -1.072  0.00  0.00    +0.000 A 
ATOM     13  C   UNL     1      -2.944  -2.726  -1.023  0.00  0.00    +0.000 A 
ATOM     14  C   UNL     1      -3.514  -1.827  -0.101  0.00  0.00    +0.000 A 
ATOM     15  C   UNL     1      -4.441  -2.384   0.832  0.00  0.00    +0.000 A 
ATOM     16  C   UNL     1      -4.865  -3.698   0.787  0.00  0.00    +0.000 A 
ENDBRANCH   1  14
BRANCH   7  17
ATOM     17  C   UNL     1      -3.409  -0.112   2.304  0.00  0.00    +0.000 A 
ATOM     18  C   UNL     1      -2.064  -0.279   2.585  0.00  0.00    +0.000 A 
ATOM     19  C   UNL     1      -2.030  -0.974   3.763  0.00  0.00    +0.000 A 
ATOM     20  N   UNL     1      -3.289  -1.179   4.191  0.00  0.00    +0.000 NA
ATOM     21  O   UNL     1      -4.095  -0.649   3.305  0.00  0.00    +0.000 OA
BRANCH  19  22
ATOM     22  C   UNL     1      -0.766  -1.456   4.435  0.00  0.00    +0.000 C 
BRANCH  22  23
ATOM     23  C   UNL     1       0.088  -0.326   4.967  0.00  0.00    +0.000 A 
ATOM     24  C   UNL     1       1.360  -0.609   5.498  0.00  0.00    +0.000 A 
ATOM     25  C   UNL     1       2.161   0.416   6.009  0.00  0.00    +0.000 A 
ATOM     26  C   UNL     1       1.700   1.737   6.000  0.00  0.00    +0.000 A 
ATOM     27  F   UNL     1       2.469   2.732   6.504  0.00  0.00    +0.000 F 
ATOM     28  C   UNL     1       0.444   2.032   5.477  0.00  0.00    +0.000 A 
ATOM     29  C   UNL     1      -0.358   1.020   4.965  0.00  0.00    +0.000 A 
ENDBRANCH  22  23
ENDBRANCH  19  22
ENDBRANCH   7  17
TORSDOF 4
