REMARK  Name = 
REMARK  7 active torsions:
REMARK  status: ('A' for Active; 'I' for Inactive)
REMARK    1  A    between atoms: C_1  and  C_2
REMARK    2  A    between atoms: C_2  and  C_3
REMARK    3  A    between atoms: C_3  and  N_4
REMARK    4  A    between atoms: C_9  and  C_10
REMARK    5  A    between atoms: C_13  and  O_14
REMARK    6  A    between atoms: C_25  and  O_26
REMARK    7  A    between atoms: C_27  and  O_28
REMARK                            x       y       z     vdW  Elec       q    Type
REMARK                         _______ _______ _______ _____ _____    ______ ____
ROOT
ATOM      1  N   UNL     1       1.038   1.145  -0.344  0.00  0.00    +0.000 NA
ATOM      2  C   UNL     1       1.579   2.532  -0.596  0.00  0.00    +0.000 C 
ATOM      3  C   UNL     1       3.111   2.672  -0.278  0.00  0.00    +0.000 C 
ATOM      4  C   UNL     1       3.579   1.527   0.604  0.00  0.00    +0.000 A 
ATOM      5  C   UNL     1       4.261   1.736   1.788  0.00  0.00    +0.000 A 
ATOM      6  C   UNL     1       4.582   0.645   2.596  0.00  0.00    +0.000 A 
ATOM      7  C   UNL     1       4.231  -0.665   2.222  0.00  0.00    +0.000 A 
ATOM      8  C   UNL     1       3.468  -0.913   1.053  0.00  0.00    +0.000 A 
ATOM      9  C   UNL     1       3.170   0.220   0.260  0.00  0.00    +0.000 A 
ATOM     10  C   UNL     1       2.145   0.204  -0.815  0.00  0.00    +0.000 C 
ATOM     11  C   UNL     1       1.770  -1.182  -1.374  0.00  0.00    +0.000 C 
ATOM     12  C   UNL     1       2.105  -2.374  -0.510  0.00  0.00    +0.000 A 
ATOM     13  C   UNL     1       1.585  -3.606  -0.928  0.00  0.00    +0.000 A 
ATOM     14  C   UNL     1       1.764  -4.751  -0.169  0.00  0.00    +0.000 A 
ATOM     15  C   UNL     1       2.472  -4.690   1.027  0.00  0.00    +0.000 A 
ATOM     16  C   UNL     1       3.039  -3.470   1.460  0.00  0.00    +0.000 A 
ATOM     17  C   UNL     1       2.883  -2.273   0.681  0.00  0.00    +0.000 A 
ENDROOT
BRANCH   6  18
ATOM     18  C   UNL     1       5.213   0.892   3.893  0.00  0.00    +0.000 A 
ATOM     19  C   UNL     1       6.434   0.284   4.217  0.00  0.00    +0.000 A 
ATOM     20  C   UNL     1       7.031   0.546   5.439  0.00  0.00    +0.000 A 
ATOM     21  C   UNL     1       6.396   1.387   6.374  0.00  0.00    +0.000 A 
ATOM     22  C   UNL     1       5.162   1.969   6.066  0.00  0.00    +0.000 A 
ATOM     23  C   UNL     1       4.576   1.733   4.822  0.00  0.00    +0.000 A 
BRANCH  21  24
ATOM     24  O   UNL     1       6.993   1.623   7.562  0.00  0.00    +0.000 OA
ATOM     25  H   UNL     1       6.597   2.207   8.223  0.00  0.00    +0.000 HD
ENDBRANCH  21  24
ENDBRANCH   6  18
BRANCH  15  26
ATOM     26  O   UNL     1       2.611  -5.806   1.777  0.00  0.00    +0.000 OA
ATOM     27  H   UNL     1       2.221  -6.655   1.522  0.00  0.00    +0.000 HD
ENDBRANCH  15  26
BRANCH  16  28
ATOM     28  O   UNL     1       3.708  -3.465   2.629  0.00  0.00    +0.000 OA
ATOM     29  H   UNL     1       3.797  -4.240   3.202  0.00  0.00    +0.000 HD
ENDBRANCH  16  28
BRANCH   1  30
ATOM     30  C   UNL     1       0.671   1.118   1.142  0.00  0.00    +0.000 C 
BRANCH  30  32
ATOM     31  C   UNL     1      -0.650  -1.074   0.832  0.00  0.00    +0.000 C 
ATOM     32  C   UNL     1      -0.356   0.113   1.694  0.00  0.00    +0.000 C 
ENDBRANCH  30  32
ENDBRANCH   1  30
TORSDOF 6
