REMARK  Name = 
REMARK  8 active torsions:
REMARK  status: ('A' for Active; 'I' for Inactive)
REMARK    1  A    between atoms: C_1  and  C_2
REMARK    2  A    between atoms: C_2  and  C_3
REMARK    3  A    between atoms: C_8  and  N_9
REMARK    4  A    between atoms: C_10  and  O_12
REMARK    5  A    between atoms: O_12  and  C_13
REMARK    6  A    between atoms: C_19  and  C_20
REMARK    7  A    between atoms: N_23  and  C_24
REMARK    8  A    between atoms: N_27  and  C_28
REMARK                            x       y       z     vdW  Elec       q    Type
REMARK                         _______ _______ _______ _____ _____    ______ ____
ROOT
ATOM      1  C   UNL     1       0.224  -0.394  -1.186  0.00  0.00    +0.000 A 
ATOM      2  C   UNL     1      -0.200   0.562  -2.114  0.00  0.00    +0.000 A 
ATOM      3  C   UNL     1      -1.499   0.959  -2.123  0.00  0.00    +0.000 A 
ATOM      4  C   UNL     1      -2.327   0.382  -1.162  0.00  0.00    +0.000 A 
ATOM      5  C   UNL     1      -1.936  -0.569  -0.245  0.00  0.00    +0.000 A 
ATOM      6  C   UNL     1      -0.641  -0.945  -0.260  0.00  0.00    +0.000 A 
ATOM      7  C   UNL     1      -3.107  -0.984   0.485  0.00  0.00    +0.000 C 
ATOM      8  C   UNL     1      -2.772  -1.312   1.908  0.00  0.00    +0.000 C 
ATOM      9  C   UNL     1      -4.077  -1.950  -0.177  0.00  0.00    +0.000 C 
ATOM     10  C   UNL     1      -5.499  -1.427   0.178  0.00  0.00    +0.000 C 
ATOM     11  N   UNL     1      -5.247  -0.196   0.915  0.00  0.00    +0.000 N 
ATOM     12  C   UNL     1      -6.284   0.825   0.816  0.00  0.00    +0.000 C 
ATOM     13  O   UNL     1      -5.235  -0.497   2.199  0.00  0.00    +0.000 OA
ATOM     14  C   UNL     1      -4.054   0.201   0.353  0.00  0.00    +0.000 C 
ATOM     15  N   UNL     1      -3.681   0.896  -0.742  0.00  0.00    +0.000 N 
ATOM     16  C   UNL     1      -4.397   1.900  -1.534  0.00  0.00    +0.000 C 
ENDROOT
BRANCH   1  17
ATOM     17  O   UNL     1       1.610  -0.692  -1.356  0.00  0.00    +0.000 OA
BRANCH  17  19
ATOM     18  N   UNL     1       3.866  -0.164  -0.676  0.00  0.00    +0.000 N 
ATOM     19  C   UNL     1       2.460   0.069  -0.505  0.00  0.00    +0.000 C 
ATOM     20  O   UNL     1       1.873   0.804   0.226  0.00  0.00    +0.000 OA
ATOM     21  H   UNL     1       4.236  -0.945  -1.315  0.00  0.00    +0.000 HD
BRANCH  18  27
ATOM     22  C   UNL     1       5.951  -0.040   0.546  0.00  0.00    +0.000 A 
ATOM     23  C   UNL     1       6.765   0.685   1.391  0.00  0.00    +0.000 A 
ATOM     24  C   UNL     1       6.480   1.943   1.823  0.00  0.00    +0.000 A 
ATOM     25  C   UNL     1       5.275   2.538   1.365  0.00  0.00    +0.000 A 
ATOM     26  C   UNL     1       4.453   1.829   0.512  0.00  0.00    +0.000 A 
ATOM     27  C   UNL     1       4.785   0.541   0.107  0.00  0.00    +0.000 A 
BRANCH  22  29
ATOM     28  C   UNL     1       6.708  -1.527  -1.274  0.00  0.00    +0.000 C 
ATOM     29  C   UNL     1       6.228  -1.436   0.127  0.00  0.00    +0.000 C 
ENDBRANCH  22  29
ENDBRANCH  18  27
ENDBRANCH  17  19
ENDBRANCH   1  17
TORSDOF 4
