REMARK  Name = 
REMARK  8 active torsions:
REMARK  status: ('A' for Active; 'I' for Inactive)
REMARK    1  A    between atoms: C_1  and  C_2
REMARK    2  A    between atoms: C_2  and  C_3
REMARK    3  A    between atoms: CA_6  and  N_7
REMARK    4  A    between atoms: C_8  and  CA_10
REMARK    5  A    between atoms: CA_10  and  N_11
REMARK    6  A    between atoms: CA_10  and  C_12
REMARK    7  A    between atoms: CA_21  and  C_22
REMARK    8  A    between atoms: C_22  and  OXT_24
REMARK                            x       y       z     vdW  Elec       q    Type
REMARK                         _______ _______ _______ _____ _____    ______ ____
ROOT
ATOM      1  C   UNL     1       2.564   0.991  -1.101  0.00  0.00    +0.000 C 
ATOM      2  C   UNL     1       1.607   0.467  -0.018  0.00  0.00    +0.000 C 
ATOM      3  C   UNL     1       2.394   0.255   1.293  0.00  0.00    +0.000 C 
ATOM      4  S   UNL     1       0.941  -1.210  -0.467  0.00  0.00    +0.000 S 
ATOM      5  C   UNL     1      -0.562  -0.892   0.542  0.00  0.00    +0.000 C 
ATOM      6  CA  UNL     1      -1.977  -1.136  -0.139  0.00  0.00    +0.000 C 
ATOM      7  C   UNL     1      -1.816   0.311  -0.367  0.00  0.00    +0.000 C 
ATOM      8  O   UNL     1      -2.369   1.085  -1.130  0.00  0.00    +0.000 OA
ATOM      9  N   UNL     1      -0.725   0.515   0.361  0.00  0.00    +0.000 N 
ATOM     10  CA  UNL     1       0.355   1.407   0.067  0.00  0.00    +0.000 C 
ENDROOT
BRANCH   6  11
ATOM     11  N   UNL     1      -1.949  -1.998  -1.306  0.00  0.00    +0.000 N 
ATOM     12  C   UNL     1      -2.160  -3.353  -1.236  0.00  0.00    +0.000 C 
ATOM     13  O   UNL     1      -2.151  -3.998  -2.274  0.00  0.00    +0.000 OA
ATOM     14  H   UNL     1      -1.790  -1.568  -2.230  0.00  0.00    +0.000 HD
BRANCH  12  15
ATOM     15  CA  UNL     1      -2.384  -4.117   0.077  0.00  0.00    +0.000 C 
BRANCH  15  16
ATOM     16  C   UNL     1      -3.653  -3.667   0.792  0.00  0.00    +0.000 A 
ATOM     17  C   UNL     1      -4.908  -4.038   0.273  0.00  0.00    +0.000 A 
ATOM     18  C   UNL     1      -6.088  -3.603   0.887  0.00  0.00    +0.000 A 
ATOM     19  C   UNL     1      -6.031  -2.774   2.010  0.00  0.00    +0.000 A 
ATOM     20  C   UNL     1      -4.795  -2.407   2.543  0.00  0.00    +0.000 A 
ATOM     21  C   UNL     1      -3.615  -2.870   1.958  0.00  0.00    +0.000 A 
ENDBRANCH  15  16
BRANCH  15  22
ATOM     22  N   UNL     1      -1.199  -3.996   0.927  0.00  0.00    +0.000 NA
ATOM     23  H1  UNL     1      -1.332  -4.602   1.770  0.00  0.00    +0.000 HD
ATOM     24  H2  UNL     1      -0.375  -4.382   0.411  0.00  0.00    +0.000 HD
ENDBRANCH  15  22
ENDBRANCH  12  15
ENDBRANCH   6  11
BRANCH  10  25
ATOM     25  C   UNL     1       0.333   2.556   1.059  0.00  0.00    +0.000 C 
ATOM     26  O   UNL     1      -0.656   3.273   1.103  0.00  0.00    +0.000 OA
BRANCH  25  27
ATOM     27  OXT UNL     1       1.345   2.795   1.918  0.00  0.00    +0.000 OA
ATOM     28  HXT UNL     1       1.289   3.492   2.588  0.00  0.00    +0.000 HD
ENDBRANCH  25  27
ENDBRANCH  10  25
TORSDOF 6
