REMARK  Name = 
REMARK  10 active torsions:
REMARK  status: ('A' for Active; 'I' for Inactive)
REMARK    1  A    between atoms: C_2  and  C_3
REMARK    2  A    between atoms: C_3  and  C_4
REMARK    3  A    between atoms: C_4  and  C_5
REMARK    4  A    between atoms: C_10  and  C_11
REMARK    5  A    between atoms: N_25  and  C_26
REMARK    6  A    between atoms: C_26  and  C_27
REMARK    7  A    between atoms: C_27  and  C_28
REMARK    8  A    between atoms: C_28  and  C_29
REMARK    9  A    between atoms: C_29  and  N_30
REMARK   10  A    between atoms: N_30  and  C_31
REMARK                            x       y       z     vdW  Elec       q    Type
REMARK                         _______ _______ _______ _____ _____    ______ ____
ROOT
ATOM      1  O   UNL     1       0.851   0.259  -0.045  0.00  0.00    +0.000 OA
ATOM      2  C   UNL     1       2.070   0.224   0.045  0.00  0.00    +0.000 C 
ATOM      3  N   UNL     1       2.667   0.242   1.278  0.00  0.00    +0.000 N 
ATOM      4  H   UNL     1       3.679   0.248   1.342  0.00  0.00    +0.000 HD
ENDROOT
BRANCH   2   5
ATOM      5  C   UNL     1       2.887   0.118  -1.240  0.00  0.00    +0.000 C 
BRANCH   5   6
ATOM      6  C   UNL     1       3.929   1.235  -1.510  0.00  0.00    +0.000 C 
BRANCH   6   7
ATOM      7  C   UNL     1       4.984   1.344  -0.435  0.00  0.00    +0.000 A 
ATOM      8  C   UNL     1       5.266   2.555   0.228  0.00  0.00    +0.000 A 
ATOM      9  C   UNL     1       6.192   2.601   1.283  0.00  0.00    +0.000 A 
ATOM     10  C   UNL     1       6.837   1.423   1.709  0.00  0.00    +0.000 A 
ATOM     11  N   UNL     1       7.693   1.430   2.772  0.00  0.00    +0.000 NA
ATOM     12  C   UNL     1       8.327   0.294   3.212  0.00  0.00    +0.000 A 
ATOM     13  C   UNL     1       8.027  -0.953   2.592  0.00  0.00    +0.000 A 
ATOM     14  C   UNL     1       7.102  -0.978   1.532  0.00  0.00    +0.000 A 
ATOM     15  C   UNL     1       6.542   0.210   1.052  0.00  0.00    +0.000 A 
ATOM     16  C   UNL     1       5.667   0.180  -0.032  0.00  0.00    +0.000 A 
ATOM     17  O   UNL     1       6.691  -2.165   1.005  0.00  0.00    +0.000 OA
ATOM     18  C   UNL     1       6.834  -3.360   1.686  0.00  0.00    +0.000 C 
ATOM     19  C   UNL     1       8.277  -3.455   2.127  0.00  0.00    +0.000 C 
ATOM     20  C   UNL     1       8.578  -2.294   3.084  0.00  0.00    +0.000 C 
BRANCH  12  21
ATOM     21  C   UNL     1       9.297   0.361   4.342  0.00  0.00    +0.000 A 
ATOM     22  C   UNL     1      10.572  -0.216   4.190  0.00  0.00    +0.000 A 
ATOM     23  C   UNL     1      11.479  -0.257   5.245  0.00  0.00    +0.000 A 
ATOM     24  C   UNL     1      11.140   0.292   6.471  0.00  0.00    +0.000 A 
ATOM     25  C   UNL     1       9.905   0.904   6.636  0.00  0.00    +0.000 A 
ATOM     26  C   UNL     1       8.971   0.955   5.571  0.00  0.00    +0.000 A 
ENDBRANCH  12  21
ENDBRANCH   6   7
ENDBRANCH   5   6
ENDBRANCH   2   5
BRANCH   3  27
ATOM     27  C   UNL     1       1.965   0.269   2.546  0.00  0.00    +0.000 C 
BRANCH  27  28
ATOM     28  C   UNL     1       2.486  -0.829   3.503  0.00  0.00    +0.000 C 
BRANCH  28  29
ATOM     29  C   UNL     1       3.983  -0.698   3.914  0.00  0.00    +0.000 C 
BRANCH  29  30
ATOM     30  C   UNL     1       4.385   0.615   4.652  0.00  0.00    +0.000 C 
BRANCH  30  31
ATOM     31  N   UNL     1       3.751   0.720   5.971  0.00  0.00    +0.000 N 
ATOM     32  H   UNL     1       2.735   0.570   6.003  0.00  0.00    +0.000 HD
BRANCH  31  33
ATOM     33  C   UNL     1       4.544   0.567   7.158  0.00  0.00    +0.000 A 
ATOM     34  C   UNL     1       5.525   1.516   7.522  0.00  0.00    +0.000 A 
ATOM     35  C   UNL     1       6.424   1.245   8.570  0.00  0.00    +0.000 A 
ATOM     36  N   UNL     1       6.226   0.177   9.374  0.00  0.00    +0.000 NA
ATOM     37  C   UNL     1       5.146  -0.628   9.200  0.00  0.00    +0.000 A 
ATOM     38  C   UNL     1       4.834  -1.557  10.195  0.00  0.00    +0.000 A 
ATOM     39  C   UNL     1       3.688  -2.349  10.071  0.00  0.00    +0.000 A 
ATOM     40 CL   UNL     1       3.224  -3.421  11.376  0.00  0.00    +0.000 Cl
ATOM     41  C   UNL     1       2.894  -2.262   8.925  0.00  0.00    +0.000 A 
ATOM     42  C   UNL     1       3.209  -1.354   7.916  0.00  0.00    +0.000 A 
ATOM     43  C   UNL     1       4.301  -0.484   8.065  0.00  0.00    +0.000 A 
ATOM     44  C   UNL     1       7.495   2.264   8.839  0.00  0.00    +0.000 C 
ATOM     45  C   UNL     1       6.895   3.647   9.097  0.00  0.00    +0.000 C 
ATOM     46  C   UNL     1       5.487   3.761   8.467  0.00  0.00    +0.000 C 
ATOM     47  C   UNL     1       5.427   2.978   7.106  0.00  0.00    +0.000 C 
ENDBRANCH  31  33
ENDBRANCH  30  31
ENDBRANCH  29  30
ENDBRANCH  28  29
ENDBRANCH  27  28
ENDBRANCH   3  27
TORSDOF 10
