REMARK  Name = 
REMARK  4 active torsions:
REMARK  status: ('A' for Active; 'I' for Inactive)
REMARK    1  A    between atoms: C_1  and  O_2
REMARK    2  A    between atoms: O_2  and  C_3
REMARK    3  A    between atoms: C_12  and  O_13
REMARK    4  A    between atoms: O_13  and  C_14
REMARK                            x       y       z     vdW  Elec       q    Type
REMARK                         _______ _______ _______ _____ _____    ______ ____
ROOT
ATOM      1  C   UNL     1       0.901   2.323   0.439  0.00  0.00    +0.000 A 
ATOM      2  C   UNL     1       2.203   2.570   0.910  0.00  0.00    +0.000 A 
ATOM      3  C   UNL     1       2.453   3.612   1.797  0.00  0.00    +0.000 A 
ATOM      4  C   UNL     1       1.404   4.406   2.258  0.00  0.00    +0.000 A 
ATOM      5  C   UNL     1       1.651   5.416   3.191  0.00  0.00    +0.000 A 
ATOM      6  C   UNL     1       0.593   6.184   3.699  0.00  0.00    +0.000 A 
ATOM      7  N   UNL     1      -0.692   5.936   3.269  0.00  0.00    +0.000 N 
ATOM      8  C   UNL     1      -0.945   4.982   2.320  0.00  0.00    +0.000 A 
ATOM      9  C   UNL     1       0.091   4.185   1.798  0.00  0.00    +0.000 A 
ATOM     10  C   UNL     1      -0.170   3.157   0.859  0.00  0.00    +0.000 A 
ATOM     11  C   UNL     1      -1.829   6.638   3.898  0.00  0.00    +0.000 C 
ATOM     12  C   UNL     1      -1.496   8.103   4.143  0.00  0.00    +0.000 C 
ATOM     13  C   UNL     1      -0.221   8.207   4.941  0.00  0.00    +0.000 A 
ATOM     14  C   UNL     1      -0.049   9.252   5.875  0.00  0.00    +0.000 A 
ATOM     15  C   UNL     1       1.185   9.358   6.509  0.00  0.00    +0.000 A 
ATOM     16  C   UNL     1       2.192   8.500   6.264  0.00  0.00    +0.000 A 
ATOM     17  C   UNL     1       2.071   7.443   5.373  0.00  0.00    +0.000 A 
ATOM     18  C   UNL     1       0.836   7.283   4.689  0.00  0.00    +0.000 A 
ATOM     19  O   UNL     1       3.258   8.849   6.990  0.00  0.00    +0.000 OA
ATOM     20  C   UNL     1       2.918   9.988   7.713  0.00  0.00    +0.000 C 
ATOM     21  O   UNL     1       1.592  10.274   7.394  0.00  0.00    +0.000 OA
ENDROOT
BRANCH   1  23
ATOM     22  C   UNL     1       1.191   0.017  -0.214  0.00  0.00    +0.000 C 
ATOM     23  O   UNL     1       0.660   1.279  -0.389  0.00  0.00    +0.000 OA
ENDBRANCH   1  23
BRANCH  10  24
ATOM     24  O   UNL     1      -1.454   2.993   0.422  0.00  0.00    +0.000 OA
ATOM     25  C   UNL     1      -1.923   2.095  -0.517  0.00  0.00    +0.000 C 
ENDBRANCH  10  24
TORSDOF 2
