REMARK  Name = 
REMARK  7 active torsions:
REMARK  status: ('A' for Active; 'I' for Inactive)
REMARK    1  A    between atoms: C_1  and  O_2
REMARK    2  A    between atoms: O_2  and  C_3
REMARK    3  A    between atoms: C_6  and  C_7
REMARK    4  A    between atoms: C_8  and  C_9
REMARK    5  A    between atoms: C_12  and  C_13
REMARK    6  A    between atoms: C_19  and  C_20
REMARK    7  A    between atoms: N_27  and  C_28
REMARK                            x       y       z     vdW  Elec       q    Type
REMARK                         _______ _______ _______ _____ _____    ______ ____
ROOT
ATOM      1  C   UNL     1       0.613   4.087   6.033  0.00  0.00    +0.000 C 
ATOM      2  C   UNL     1       0.951   2.549   6.762  0.00  0.00    +0.000 C 
ATOM      3  C   UNL     1      -0.050   1.553   7.562  0.00  0.00    +0.000 C 
ATOM      4  C   UNL     1      -0.894   0.810   6.479  0.00  0.00    +0.000 C 
ATOM      5  C   UNL     1      -0.486   1.670   5.381  0.00  0.00    +0.000 C 
ATOM      6  C   UNL     1      -1.464   2.962   5.724  0.00  0.00    +0.000 C 
ATOM      7  C   UNL     1      -0.773   4.099   5.216  0.00  0.00    +0.000 C 
ATOM      8  N   UNL     1       1.067   1.729   5.653  0.00  0.00    +0.000 NA
ATOM      9  C   UNL     1       2.539   1.925   5.263  0.00  0.00    +0.000 C 
ENDROOT
BRANCH   7  10
ATOM     10  C   UNL     1      -0.822   3.833   3.725  0.00  0.00    +0.000 A 
ATOM     11  C   UNL     1      -1.978   4.532   2.700  0.00  0.00    +0.000 A 
ATOM     12  C   UNL     1      -1.843   4.802   1.009  0.00  0.00    +0.000 A 
ATOM     13  C   UNL     1      -0.513   4.451  -0.005  0.00  0.00    +0.000 A 
ATOM     14 CL   UNL     1      -0.621   4.660  -1.735  0.00  0.00    +0.000 Cl
ATOM     15  C   UNL     1       0.900   3.712   0.628  0.00  0.00    +0.000 A 
ATOM     16  C   UNL     1       0.567   3.205   3.138  0.00  0.00    +0.000 A 
ENDBRANCH   7  10
BRANCH   1  22
ATOM     17  C   UNL     1       2.255   5.410   3.926  0.00  0.00    +0.000 A 
ATOM     18  C   UNL     1       3.311   6.235   4.174  0.00  0.00    +0.000 A 
ATOM     19  C   UNL     1       4.270   6.743   3.145  0.00  0.00    +0.000 C 
ATOM     20  N   UNL     1       3.397   6.485   5.492  0.00  0.00    +0.000 NA
ATOM     21  O   UNL     1       2.473   5.800   6.112  0.00  0.00    +0.000 OA
ATOM     22  C   UNL     1       1.729   5.069   5.300  0.00  0.00    +0.000 A 
BRANCH  17  26
ATOM     23  C   UNL     1       0.445   1.552   1.426  0.00  0.00    +0.000 A 
ATOM     24  C   UNL     1      -0.808   2.742   1.555  0.00  0.00    +0.000 A 
ATOM     25  C   UNL     1       0.270   5.121   2.129  0.00  0.00    +0.000 A 
ATOM     26  C   UNL     1       1.931   4.937   2.484  0.00  0.00    +0.000 A 
ATOM     27  C   UNL     1       2.752   3.472   2.181  0.00  0.00    +0.000 A 
ATOM     28  C   UNL     1       2.089   1.956   1.721  0.00  0.00    +0.000 A 
BRANCH  23  30
ATOM     29  C   UNL     1       0.900  -0.489   0.218  0.00  0.00    +0.000 C 
ATOM     30  O   UNL     1       0.091   0.317   1.001  0.00  0.00    +0.000 OA
ENDBRANCH  23  30
ENDBRANCH  17  26
ENDBRANCH   1  22
TORSDOF 4
