REMARK  Name = 
REMARK  16 active torsions:
REMARK  status: ('A' for Active; 'I' for Inactive)
REMARK    1  A    between atoms: C_1  and  C_2
REMARK    2  A    between atoms: C_5  and  N_6
REMARK    3  A    between atoms: N_9  and  C_10
REMARK    4  A    between atoms: C_10  and  C_11
REMARK    5  A    between atoms: C_11  and  C_12
REMARK    6  A    between atoms: C_12  and  C_13
REMARK    7  A    between atoms: C_13  and  C_14
REMARK    8  A    between atoms: C_14  and  C_15
REMARK    9  A    between atoms: C_15  and  C_16
REMARK   10  A    between atoms: C_16  and  C_17
REMARK   11  A    between atoms: C_17  and  C_18
REMARK   12  A    between atoms: C_18  and  N_19
REMARK   13  A    between atoms: N_22  and  C_23
REMARK   14  A    between atoms: C_29  and  C_30
REMARK   15  A    between atoms: N_31  and  C_32
REMARK   16  A    between atoms: N_48  and  C_49
REMARK                            x       y       z     vdW  Elec       q    Type
REMARK                         _______ _______ _______ _____ _____    ______ ____
ROOT
ATOM      1  C   UNL     1       2.349   1.993   0.339  0.00  0.00    +0.000 C 
ENDROOT
BRANCH   1   2
ATOM      2  C   UNL     1       1.263   3.034   0.045  0.00  0.00    +0.000 C 
BRANCH   2   3
ATOM      3  C   UNL     1       0.482   2.968  -1.298  0.00  0.00    +0.000 C 
BRANCH   3   4
ATOM      4  C   UNL     1      -0.574   1.876  -1.465  0.00  0.00    +0.000 C 
BRANCH   4   5
ATOM      5  C   UNL     1      -1.700   1.921  -0.364  0.00  0.00    +0.000 C 
BRANCH   5   9
ATOM      6  N   UNL     1      -4.120  -0.163  -1.192  0.00  0.00    +0.000 N 
ATOM      7  C   UNL     1      -4.047   1.241  -1.239  0.00  0.00    +0.000 C 
ATOM      8  O   UNL     1      -5.080   1.804  -1.589  0.00  0.00    +0.000 OA
ATOM      9  N   UNL     1      -3.009   2.101  -0.942  0.00  0.00    +0.000 N 
ATOM     10  H   UNL     1      -5.072  -0.486  -1.422  0.00  0.00    +0.000 HD
ATOM     11  H   UNL     1      -3.216   3.110  -1.064  0.00  0.00    +0.000 HD
BRANCH   6  16
ATOM     12  C   UNL     1       0.730  -0.678   0.266  0.00  0.00    +0.000 C 
ATOM     13  C   UNL     1       0.297  -2.021  -0.023  0.00  0.00    +0.000 A 
ATOM     14  C   UNL     1      -1.042  -2.270  -0.386  0.00  0.00    +0.000 A 
ATOM     15  C   UNL     1      -1.908  -1.204  -0.693  0.00  0.00    +0.000 A 
ATOM     16  C   UNL     1      -3.246  -1.303  -0.926  0.00  0.00    +0.000 A 
ATOM     17  C   UNL     1      -3.754  -2.618  -0.922  0.00  0.00    +0.000 A 
ATOM     18  C   UNL     1      -2.905  -3.741  -0.711  0.00  0.00    +0.000 A 
ATOM     19  C   UNL     1      -1.511  -3.576  -0.445  0.00  0.00    +0.000 A 
ATOM     20  C   UNL     1      -0.560  -4.633  -0.240  0.00  0.00    +0.000 A 
ATOM     21  C   UNL     1      -0.911  -5.989  -0.325  0.00  0.00    +0.000 A 
ATOM     22  C   UNL     1       0.046  -6.995  -0.142  0.00  0.00    +0.000 A 
ATOM     23  C   UNL     1       1.373  -6.669   0.125  0.00  0.00    +0.000 A 
ATOM     24  C   UNL     1       1.752  -5.351   0.217  0.00  0.00    +0.000 A 
ATOM     25  C   UNL     1       0.817  -4.309   0.042  0.00  0.00    +0.000 A 
ATOM     26  N   UNL     1       1.215  -3.007   0.154  0.00  0.00    +0.000 N 
ATOM     27  C   UNL     1       2.644  -2.688   0.512  0.00  0.00    +0.000 C 
ENDBRANCH   6  16
ENDBRANCH   5   9
ENDBRANCH   4   5
ENDBRANCH   3   4
ENDBRANCH   2   3
ENDBRANCH   1   2
BRANCH   1  28
ATOM     28  C   UNL     1       3.300   1.709  -0.840  0.00  0.00    +0.000 C 
BRANCH  28  29
ATOM     29  C   UNL     1       4.222   2.912  -1.075  0.00  0.00    +0.000 C 
BRANCH  29  30
ATOM     30  C   UNL     1       4.958   3.319   0.214  0.00  0.00    +0.000 C 
BRANCH  30  31
ATOM     31  C   UNL     1       5.665   2.148   0.900  0.00  0.00    +0.000 C 
BRANCH  31  32
ATOM     32  N   UNL     1       6.846   1.713   0.161  0.00  0.00    +0.000 N 
ATOM     33  C   UNL     1       8.126   1.626   0.659  0.00  0.00    +0.000 C 
ATOM     34  O   UNL     1       9.043   1.561  -0.147  0.00  0.00    +0.000 OA
ATOM     35  N   UNL     1       8.442   1.642   1.996  0.00  0.00    +0.000 N 
ATOM     36  H   UNL     1       6.722   1.590  -0.853  0.00  0.00    +0.000 HD
ATOM     37  H   UNL     1       9.430   1.793   2.257  0.00  0.00    +0.000 HD
BRANCH  35  38
ATOM     38  C   UNL     1       7.508   1.480   3.060  0.00  0.00    +0.000 A 
ATOM     39  C   UNL     1       6.568   0.448   3.023  0.00  0.00    +0.000 A 
ATOM     40  C   UNL     1       5.538   0.407   3.949  0.00  0.00    +0.000 A 
ATOM     41  C   UNL     1       5.417   1.395   4.962  0.00  0.00    +0.000 A 
ATOM     42  C   UNL     1       6.414   2.411   5.045  0.00  0.00    +0.000 A 
ATOM     43  C   UNL     1       7.456   2.417   4.080  0.00  0.00    +0.000 A 
ATOM     44  C   UNL     1       6.327   3.405   6.065  0.00  0.00    +0.000 A 
ATOM     45  C   UNL     1       7.351   4.524   6.176  0.00  0.00    +0.000 C 
ATOM     46  N   UNL     1       5.270   3.359   6.980  0.00  0.00    +0.000 N 
ATOM     47  C   UNL     1       5.182   4.361   8.075  0.00  0.00    +0.000 C 
ATOM     48  C   UNL     1       4.284   2.398   6.883  0.00  0.00    +0.000 A 
ATOM     49  C   UNL     1       3.185   2.379   7.798  0.00  0.00    +0.000 A 
ATOM     50  C   UNL     1       2.166   1.433   7.694  0.00  0.00    +0.000 A 
ATOM     51  C   UNL     1       2.199   0.494   6.687  0.00  0.00    +0.000 A 
ATOM     52  C   UNL     1       3.247   0.458   5.778  0.00  0.00    +0.000 A 
ATOM     53  C   UNL     1       4.323   1.406   5.864  0.00  0.00    +0.000 A 
ENDBRANCH  35  38
ENDBRANCH  31  32
ENDBRANCH  30  31
ENDBRANCH  29  30
ENDBRANCH  28  29
ENDBRANCH   1  28
TORSDOF 12
