REMARK  Name = 
REMARK  7 active torsions:
REMARK  status: ('A' for Active; 'I' for Inactive)
REMARK    1  A    between atoms: C_1  and  S_2
REMARK    2  A    between atoms: S_2  and  C_3
REMARK    3  A    between atoms: C_9  and  N_10
REMARK    4  A    between atoms: N_13  and  C_14
REMARK    5  A    between atoms: C_14  and  C_15
REMARK    6  A    between atoms: C_15  and  O_16
REMARK    7  A    between atoms: C_20  and  C_21
REMARK                            x       y       z     vdW  Elec       q    Type
REMARK                         _______ _______ _______ _____ _____    ______ ____
ROOT
ATOM      1  C   UNL     1       0.839   2.070  -1.996  0.00  0.00    +0.000 A 
ATOM      2  C   UNL     1       2.044   2.175  -2.717  0.00  0.00    +0.000 A 
ATOM      3  C   UNL     1       2.555   3.433  -3.072  0.00  0.00    +0.000 A 
ATOM      4  C   UNL     1       1.826   4.580  -2.735  0.00  0.00    +0.000 A 
ATOM      5  C   UNL     1       0.667   4.484  -1.978  0.00  0.00    +0.000 A 
ATOM      6  C   UNL     1       0.154   3.237  -1.598  0.00  0.00    +0.000 A 
ATOM      7  C   UNL     1       0.134   5.842  -1.601  0.00  0.00    +0.000 C 
ATOM      8  C   UNL     1       0.860   6.713  -2.627  0.00  0.00    +0.000 C 
ATOM      9  C   UNL     1       2.200   6.018  -2.956  0.00  0.00    +0.000 C 
ENDROOT
BRANCH   9  10
ATOM     10  C   UNL     1       2.690   6.518  -4.299  0.00  0.00    +0.000 A 
ATOM     11  C   UNL     1       3.013   7.886  -4.394  0.00  0.00    +0.000 A 
ATOM     12  C   UNL     1       3.466   8.433  -5.593  0.00  0.00    +0.000 A 
ATOM     13  C   UNL     1       3.614   7.619  -6.715  0.00  0.00    +0.000 A 
ATOM     14  F   UNL     1       4.060   8.149  -7.880  0.00  0.00    +0.000 F 
ATOM     15  C   UNL     1       3.302   6.258  -6.637  0.00  0.00    +0.000 A 
ATOM     16  C   UNL     1       2.836   5.706  -5.438  0.00  0.00    +0.000 A 
ENDBRANCH   9  10
BRANCH   7  17
ATOM     17  N   UNL     1       0.414   6.164  -0.172  0.00  0.00    +0.000 NA
ATOM     18  C   UNL     1       1.810   6.146   0.311  0.00  0.00    +0.000 C 
ATOM     19  C   UNL     1       2.521   7.510   0.145  0.00  0.00    +0.000 C 
ATOM     20  N   UNL     1       1.732   8.618   0.692  0.00  0.00    +0.000 NA
ATOM     21  C   UNL     1       0.318   8.646   0.278  0.00  0.00    +0.000 C 
ATOM     22  C   UNL     1      -0.360   7.272   0.436  0.00  0.00    +0.000 C 
BRANCH  20  23
ATOM     23  C   UNL     1       2.131   9.209   1.982  0.00  0.00    +0.000 C 
BRANCH  23  24
ATOM     24  C   UNL     1       1.755   8.374   3.213  0.00  0.00    +0.000 C 
BRANCH  24  25
ATOM     25  O   UNL     1       2.400   7.131   3.235  0.00  0.00    +0.000 OA
ATOM     26  H   UNL     1       3.374   7.299   3.144  0.00  0.00    +0.000 HD
ENDBRANCH  24  25
ENDBRANCH  23  24
ENDBRANCH  20  23
ENDBRANCH   7  17
BRANCH   1  28
ATOM     27  C   UNL     1       1.103   0.204  -0.074  0.00  0.00    +0.000 C 
ATOM     28  S   UNL     1       0.163   0.448  -1.610  0.00  0.00    +0.000 S 
ENDBRANCH   1  28
TORSDOF 6
