REMARK  Name = 
REMARK  15 active torsions:
REMARK  status: ('A' for Active; 'I' for Inactive)
REMARK    1  A    between atoms: C_1  and  C_2
REMARK    2  A    between atoms: C_2  and  C_3
REMARK    3  A    between atoms: C_3  and  C_4
REMARK    4  A    between atoms: C_4  and  C_5
REMARK    5  A    between atoms: C_5  and  C_6
REMARK    6  A    between atoms: C_6  and  C_7
REMARK    7  A    between atoms: C_7  and  C_8
REMARK    8  A    between atoms: C_8  and  C_9
REMARK    9  A    between atoms: C_9  and  C_10
REMARK   10  A    between atoms: C_10  and  C_11
REMARK   11  A    between atoms: C_11  and  C_12
REMARK   12  A    between atoms: C_12  and  C_13
REMARK   13  A    between atoms: C_16  and  C_17
REMARK   14  A    between atoms: N_19  and  C_20
REMARK   15  A    between atoms: C_20  and  C_21
REMARK                            x       y       z     vdW  Elec       q    Type
REMARK                         _______ _______ _______ _____ _____    ______ ____
ROOT
ATOM      1  C   UNL     1      -5.091   7.590   4.840  0.00  0.00    +0.000 A 
ATOM      2  C   UNL     1      -5.801   8.769   4.487  0.00  0.00    +0.000 A 
ATOM      3  C   UNL     1      -7.209   8.710   4.255  0.00  0.00    +0.000 A 
ATOM      4  C   UNL     1      -7.899   7.466   4.329  0.00  0.00    +0.000 A 
ATOM      5  C   UNL     1      -7.125   6.383   4.666  0.00  0.00    +0.000 A 
ATOM      6  C   UNL     1      -5.827   6.448   4.986  0.00  0.00    +0.000 A 
ENDROOT
BRANCH   4   7
ATOM      7  C   UNL     1      -9.392   7.276   4.049  0.00  0.00    +0.000 C 
ATOM      8  O   UNL     1      -9.975   8.211   3.539  0.00  0.00    +0.000 OA
ATOM      9  N   UNL     1     -10.114   6.120   4.307  0.00  0.00    +0.000 N 
ATOM     10  H   UNL     1     -11.111   6.091   4.034  0.00  0.00    +0.000 HD
BRANCH   9  11
ATOM     11  C   UNL     1      -9.623   4.955   5.056  0.00  0.00    +0.000 C 
ATOM     12  C   UNL     1     -10.239   3.551   5.017  0.00  0.00    +0.000 C 
ATOM     13  C   UNL     1      -9.135   3.876   4.050  0.00  0.00    +0.000 C 
BRANCH  11  14
ATOM     14  C   UNL     1      -9.143   5.258   6.480  0.00  0.00    +0.000 C 
ATOM     15  N   UNL     1      -9.814   6.091   7.193  0.00  0.00    +0.000 NA
ATOM     16  N   UNL     1      -7.940   4.722   7.015  0.00  0.00    +0.000 N 
ATOM     17  H   UNL     1     -10.678   6.531   6.841  0.00  0.00    +0.000 HD
ATOM     18  H   UNL     1      -7.345   4.079   6.475  0.00  0.00    +0.000 HD
ATOM     19  H   UNL     1      -7.595   5.056   7.928  0.00  0.00    +0.000 HD
ENDBRANCH  11  14
ENDBRANCH   9  11
ENDBRANCH   4   7
BRANCH   1  20
ATOM     20  C   UNL     1      -3.582   7.496   5.028  0.00  0.00    +0.000 C 
BRANCH  20  21
ATOM     21  C   UNL     1      -3.023   6.075   5.427  0.00  0.00    +0.000 C 
BRANCH  21  22
ATOM     22  C   UNL     1      -3.246   4.864   4.442  0.00  0.00    +0.000 C 
BRANCH  22  23
ATOM     23  C   UNL     1      -2.634   5.041   3.073  0.00  0.00    +0.000 C 
BRANCH  23  24
ATOM     24  C   UNL     1      -1.101   4.946   3.120  0.00  0.00    +0.000 C 
BRANCH  24  25
ATOM     25  C   UNL     1      -0.619   3.593   3.705  0.00  0.00    +0.000 C 
BRANCH  25  26
ATOM     26  C   UNL     1      -1.205   2.355   2.959  0.00  0.00    +0.000 C 
BRANCH  26  27
ATOM     27  C   UNL     1      -0.828   2.352   1.469  0.00  0.00    +0.000 C 
BRANCH  27  28
ATOM     28  C   UNL     1       0.697   2.332   1.253  0.00  0.00    +0.000 C 
BRANCH  28  29
ATOM     29  C   UNL     1       1.378   1.096   1.877  0.00  0.00    +0.000 C 
BRANCH  29  31
ATOM     30  C   UNL     1       1.146  -0.340  -0.203  0.00  0.00    +0.000 C 
ATOM     31  C   UNL     1       0.874  -0.237   1.297  0.00  0.00    +0.000 C 
ENDBRANCH  29  31
ENDBRANCH  28  29
ENDBRANCH  27  28
ENDBRANCH  26  27
ENDBRANCH  25  26
ENDBRANCH  24  25
ENDBRANCH  23  24
ENDBRANCH  22  23
ENDBRANCH  21  22
ENDBRANCH  20  21
ENDBRANCH   1  20
TORSDOF 14
