REMARK  Name = 
REMARK  5 active torsions:
REMARK  status: ('A' for Active; 'I' for Inactive)
REMARK    1  A    between atoms: C_1  and  O_2
REMARK    2  A    between atoms: O_2  and  C_3
REMARK    3  A    between atoms: C_8  and  O_9
REMARK    4  A    between atoms: O_9  and  C_10
REMARK    5  A    between atoms: N_12  and  C_13
REMARK                            x       y       z     vdW  Elec       q    Type
REMARK                         _______ _______ _______ _____ _____    ______ ____
ROOT
ATOM      1  C   UNL     1       1.072   0.162   1.860  0.00  0.00    +0.000 A 
ATOM      2  C   UNL     1      -0.021   0.180   2.729  0.00  0.00    +0.000 A 
ATOM      3  C   UNL     1       0.185   0.053   4.088  0.00  0.00    +0.000 A 
ATOM      4  C   UNL     1       1.466  -0.200   4.582  0.00  0.00    +0.000 A 
ATOM      5  C   UNL     1       2.573  -0.412   3.738  0.00  0.00    +0.000 A 
ATOM      6  C   UNL     1       2.388  -0.115   2.347  0.00  0.00    +0.000 A 
ATOM      7  C   UNL     1       3.947  -0.763   4.429  0.00  0.00    +0.000 C 
ATOM      8  N   UNL     1       4.232  -0.061   5.758  0.00  0.00    +0.000 N 
ATOM      9  C   UNL     1       5.590   0.552   5.664  0.00  0.00    +0.000 C 
ATOM     10  C   UNL     1       4.263  -0.943   6.997  0.00  0.00    +0.000 C 
ATOM     11  C   UNL     1       4.330  -0.140   8.372  0.00  0.00    +0.000 C 
ATOM     12  C   UNL     1       3.898   1.321   8.309  0.00  0.00    +0.000 A 
ATOM     13  C   UNL     1       4.146   2.221   9.383  0.00  0.00    +0.000 A 
ATOM     14  C   UNL     1       3.945   3.592   9.159  0.00  0.00    +0.000 A 
ATOM     15  C   UNL     1       3.529   4.066   7.970  0.00  0.00    +0.000 A 
ATOM     16  C   UNL     1       3.231   3.228   6.916  0.00  0.00    +0.000 A 
ATOM     17  C   UNL     1       3.389   1.831   7.105  0.00  0.00    +0.000 A 
ATOM     18  C   UNL     1       3.130   0.910   5.966  0.00  0.00    +0.000 C 
ATOM     19  C   UNL     1       1.753   0.106   6.014  0.00  0.00    +0.000 C 
ATOM     20  O   UNL     1       3.483   5.399   8.000  0.00  0.00    +0.000 OA
ATOM     21  C   UNL     1       3.879   5.800   9.271  0.00  0.00    +0.000 C 
ATOM     22  O   UNL     1       4.155   4.628   9.980  0.00  0.00    +0.000 OA
ENDROOT
BRANCH   1  24
ATOM     23  C   UNL     1       0.353  -0.411  -0.358  0.00  0.00    +0.000 C 
ATOM     24  O   UNL     1       0.843   0.480   0.564  0.00  0.00    +0.000 OA
ENDBRANCH   1  24
BRANCH   6  25
ATOM     25  O   UNL     1       3.490  -0.012   1.546  0.00  0.00    +0.000 OA
ATOM     26  C   UNL     1       3.541   0.665   0.334  0.00  0.00    +0.000 C 
ENDBRANCH   6  25
TORSDOF 2
