REMARK  Name = 
REMARK  16 active torsions:
REMARK  status: ('A' for Active; 'I' for Inactive)
REMARK    1  A    between atoms: C_1  and  C_2
REMARK    2  A    between atoms: C_2  and  C_3
REMARK    3  A    between atoms: C_3  and  C_4
REMARK    4  A    between atoms: C_4  and  N_5
REMARK    5  A    between atoms: N_5  and  C_6
REMARK    6  A    between atoms: N_5  and  C_10
REMARK    7  A    between atoms: C_6  and  C_7
REMARK    8  A    between atoms: C_7  and  C_8
REMARK    9  A    between atoms: C_8  and  C_9
REMARK   10  A    between atoms: C_10  and  C_11
REMARK   11  A    between atoms: C_11  and  C_12
REMARK   12  A    between atoms: C_12  and  O_13
REMARK   13  A    between atoms: O_13  and  C_14
REMARK   14  A    between atoms: C_17  and  C_18
REMARK   15  A    between atoms: C_24  and  C_25
REMARK   16  A    between atoms: C_29  and  C_30
REMARK                            x       y       z     vdW  Elec       q    Type
REMARK                         _______ _______ _______ _____ _____    ______ ____
ROOT
ATOM      1  C   UNL     1       1.556  -2.166   0.750  0.00  0.00    +0.000 A 
ATOM      2  C   UNL     1       2.588  -2.798   1.434  0.00  0.00    +0.000 A 
ATOM      3  C   UNL     1       2.393  -3.957   2.192  0.00  0.00    +0.000 A 
ATOM      4  C   UNL     1       1.155  -4.579   2.226  0.00  0.00    +0.000 A 
ATOM      5  C   UNL     1       0.146  -4.127   1.455  0.00  0.00    +0.000 A 
ATOM      6  C   UNL     1       0.177  -2.977   0.719  0.00  0.00    +0.000 A 
ATOM      7  C   UNL     1      -1.387  -2.830   0.236  0.00  0.00    +0.000 C 
ENDROOT
BRANCH   4   8
ATOM      8  C   UNL     1       0.707  -5.604   3.164  0.00  0.00    +0.000 A 
ATOM      9  C   UNL     1       1.029  -5.670   4.500  0.00  0.00    +0.000 A 
ATOM     10  N   UNL     1       0.235  -6.630   5.028  0.00  0.00    +0.000 N 
ATOM     11  C   UNL     1       0.155  -7.065   6.300  0.00  0.00    +0.000 A 
ATOM     12  C   UNL     1      -0.746  -8.102   6.565  0.00  0.00    +0.000 A 
ATOM     13  C   UNL     1      -1.559  -8.594   5.533  0.00  0.00    +0.000 A 
ATOM     14  C   UNL     1      -1.501  -8.052   4.256  0.00  0.00    +0.000 A 
ATOM     15  C   UNL     1      -2.378  -8.522   3.100  0.00  0.00    +0.000 C 
ATOM     16  C   UNL     1      -0.534  -7.102   4.018  0.00  0.00    +0.000 A 
ATOM     17  N   UNL     1      -0.301  -6.462   2.864  0.00  0.00    +0.000 NA
ENDBRANCH   4   8
BRANCH   1  18
ATOM     18  O   UNL     1       1.876  -0.751   0.414  0.00  0.00    +0.000 OA
BRANCH  18  19
ATOM     19  C   UNL     1       1.807   0.700   0.947  0.00  0.00    +0.000 C 
BRANCH  19  20
ATOM     20  C   UNL     1       0.471   1.898   0.982  0.00  0.00    +0.000 C 
BRANCH  20  21
ATOM     21  C   UNL     1      -1.108   1.766   1.511  0.00  0.00    +0.000 C 
BRANCH  21  22
ATOM     22  N   UNL     1      -1.266   1.445   2.880  0.00  0.00    +0.000 NA
BRANCH  22  23
ATOM     23  C   UNL     1      -0.252   0.452   3.107  0.00  0.00    +0.000 C 
BRANCH  23  24
ATOM     24  C   UNL     1      -0.309  -0.595   1.849  0.00  0.00    +0.000 C 
BRANCH  24  26
ATOM     25  C   UNL     1       0.363   0.249  -1.374  0.00  0.00    +0.000 C 
ATOM     26  C   UNL     1      -0.453  -0.317  -0.048  0.00  0.00    +0.000 C 
ENDBRANCH  24  26
ENDBRANCH  23  24
ENDBRANCH  22  23
BRANCH  22  27
ATOM     27  C   UNL     1      -1.583   2.559   3.790  0.00  0.00    +0.000 C 
BRANCH  27  28
ATOM     28  C   UNL     1      -1.448   4.009   3.192  0.00  0.00    +0.000 C 
BRANCH  28  29
ATOM     29  C   UNL     1      -2.149   4.377   1.834  0.00  0.00    +0.000 C 
ATOM     30  C   UNL     1      -3.606   3.865   1.683  0.00  0.00    +0.000 C 
ENDBRANCH  28  29
ENDBRANCH  27  28
ENDBRANCH  22  27
ENDBRANCH  21  22
ENDBRANCH  20  21
ENDBRANCH  19  20
ENDBRANCH  18  19
ENDBRANCH   1  18
TORSDOF 12
