REMARK  Name = 
REMARK  8 active torsions:
REMARK  status: ('A' for Active; 'I' for Inactive)
REMARK    1  A    between atoms: C_7  and  N_8
REMARK    2  A    between atoms: N_11  and  C_12
REMARK    3  A    between atoms: C_12  and  C_13
REMARK    4  A    between atoms: C_13  and  C_14
REMARK    5  A    between atoms: C_14  and  C_15
REMARK    6  A    between atoms: C_15  and  C_16
REMARK    7  A    between atoms: C_18  and  C_19
REMARK    8  A    between atoms: C_20  and  C_21
REMARK                            x       y       z     vdW  Elec       q    Type
REMARK                         _______ _______ _______ _____ _____    ______ ____
ROOT
ATOM      1  C   UNL     1       0.942   5.340  -1.081  0.00  0.00    +0.000 C 
ENDROOT
BRANCH   1   2
ATOM      2  C   UNL     1       2.450   5.315  -0.716  0.00  0.00    +0.000 C 
BRANCH   2   6
ATOM      3  N   UNL     1       1.538   1.568   0.109  0.00  0.00    +0.000 N 
ATOM      4  C   UNL     1       1.135   2.697   0.904  0.00  0.00    +0.000 C 
ATOM      5  C   UNL     1       2.297   3.664   1.194  0.00  0.00    +0.000 C 
ATOM      6  N   UNL     1       2.956   4.085  -0.043  0.00  0.00    +0.000 NA
ATOM      7  C   UNL     1       3.365   2.926  -0.873  0.00  0.00    +0.000 C 
ATOM      8  C   UNL     1       2.213   1.936  -1.137  0.00  0.00    +0.000 C 
BRANCH   3  15
ATOM      9  F   UNL     1       2.281  -1.089  -0.105  0.00  0.00    +0.000 F 
ATOM     10  C   UNL     1       0.959  -0.793  -0.089  0.00  0.00    +0.000 A 
ATOM     11  C   UNL     1       0.013  -1.822  -0.120  0.00  0.00    +0.000 A 
ATOM     12  C   UNL     1      -1.353  -1.537  -0.077  0.00  0.00    +0.000 A 
ATOM     13  C   UNL     1      -1.786  -0.215   0.004  0.00  0.00    +0.000 A 
ATOM     14  C   UNL     1      -0.856   0.818   0.052  0.00  0.00    +0.000 A 
ATOM     15  C   UNL     1       0.544   0.535   0.008  0.00  0.00    +0.000 A 
ENDBRANCH   3  15
ENDBRANCH   2   6
ENDBRANCH   1   2
BRANCH   1  16
ATOM     16  C   UNL     1      -0.108   5.517   0.078  0.00  0.00    +0.000 C 
BRANCH  16  17
ATOM     17  C   UNL     1      -0.092   6.834   0.791  0.00  0.00    +0.000 C 
BRANCH  17  18
ATOM     18  C   UNL     1      -0.481   7.872  -0.150  0.00  0.00    +0.000 A 
ATOM     19  C   UNL     1      -0.008   9.134  -0.118  0.00  0.00    +0.000 A 
ATOM     20  C   UNL     1      -0.603   9.704  -1.193  0.00  0.00    +0.000 A 
ATOM     21  N   UNL     1      -1.400   8.831  -1.828  0.00  0.00    +0.000 NA
ATOM     22  O   UNL     1      -1.311   7.725  -1.162  0.00  0.00    +0.000 OA
BRANCH  20  23
ATOM     23  C   UNL     1      -0.370  11.064  -1.562  0.00  0.00    +0.000 C 
ATOM     24  C   UNL     1      -1.048  11.644  -2.544  0.00  0.00    +0.000 C 
BRANCH  24  25
ATOM     25  C   UNL     1      -0.808  13.043  -2.867  0.00  0.00    +0.000 A 
ATOM     26  C   UNL     1      -1.828  13.766  -3.483  0.00  0.00    +0.000 A 
ATOM     27  C   UNL     1      -1.659  15.120  -3.752  0.00  0.00    +0.000 A 
ATOM     28  C   UNL     1      -0.454  15.755  -3.425  0.00  0.00    +0.000 A 
ATOM     29  C   UNL     1       0.585  15.031  -2.834  0.00  0.00    +0.000 A 
ATOM     30  C   UNL     1       0.413  13.687  -2.543  0.00  0.00    +0.000 A 
ENDBRANCH  24  25
ENDBRANCH  20  23
ENDBRANCH  17  18
ENDBRANCH  16  17
ENDBRANCH   1  16
TORSDOF 8
