REMARK  Name = 
REMARK  5 active torsions:
REMARK  status: ('A' for Active; 'I' for Inactive)
REMARK    1  A    between atoms: C_1  and  N_2
REMARK    2  A    between atoms: N_2  and  C_15
REMARK    3  A    between atoms: C_3  and  C_5
REMARK    4  A    between atoms: C_5  and  C_6
REMARK    5  A    between atoms: C_20  and  N_21
REMARK                            x       y       z     vdW  Elec       q    Type
REMARK                         _______ _______ _______ _____ _____    ______ ____
ROOT
ATOM      1  C   UNL     1       0.654  -0.253   0.169  0.00  0.00    +0.000 C 
ATOM      2  N   UNL     1       0.285   1.162   0.312  0.00  0.00    +0.000 N 
ATOM      3  C   UNL     1      -0.477   1.787  -0.692  0.00  0.00    +0.000 C 
ATOM      4  O   UNL     1      -0.987   2.874  -0.485  0.00  0.00    +0.000 OA
ENDROOT
BRANCH   2   5
ATOM      5  C   UNL     1       0.637   1.795   1.613  0.00  0.00    +0.000 C 
ATOM      6  C   UNL     1      -0.425   1.372   2.661  0.00  0.00    +0.000 C 
ATOM      7  C   UNL     1      -0.150   1.961   4.046  0.00  0.00    +0.000 C 
ATOM      8  C   UNL     1      -0.188   3.481   3.953  0.00  0.00    +0.000 C 
ATOM      9  C   UNL     1       0.967   3.951   3.075  0.00  0.00    +0.000 C 
ATOM     10  C   UNL     1       0.914   3.378   1.634  0.00  0.00    +0.000 C 
BRANCH  10  11
ATOM     11  N   UNL     1       2.161   3.852   0.936  0.00  0.00    +0.000 NA
ATOM     12  C   UNL     1       2.247   3.591  -0.494  0.00  0.00    +0.000 C 
ATOM     13  C   UNL     1       3.101   2.343  -0.632  0.00  0.00    +0.000 C 
ATOM     14  C   UNL     1       4.190   2.629   0.352  0.00  0.00    +0.000 C 
ATOM     15  C   UNL     1       3.453   3.362   1.477  0.00  0.00    +0.000 C 
ENDBRANCH  10  11
ENDBRANCH   2   5
BRANCH   3  16
ATOM     16  C   UNL     1      -0.737   1.191  -2.085  0.00  0.00    +0.000 C 
BRANCH  16  17
ATOM     17  C   UNL     1       0.526   1.020  -2.921  0.00  0.00    +0.000 A 
ATOM     18  C   UNL     1       1.016  -0.250  -3.244  0.00  0.00    +0.000 A 
ATOM     19  S   UNL     1       2.469  -0.110  -4.089  0.00  0.00    +0.000 S 
ATOM     20  C   UNL     1       2.485   1.561  -4.098  0.00  0.00    +0.000 A 
ATOM     21  C   UNL     1       3.467   2.396  -4.631  0.00  0.00    +0.000 A 
ATOM     22  C   UNL     1       3.289   3.781  -4.527  0.00  0.00    +0.000 A 
ATOM     23  C   UNL     1       2.132   4.302  -3.925  0.00  0.00    +0.000 A 
ATOM     24  C   UNL     1       1.150   3.442  -3.397  0.00  0.00    +0.000 A 
ATOM     25  C   UNL     1       1.350   2.053  -3.456  0.00  0.00    +0.000 A 
ENDBRANCH  16  17
ENDBRANCH   3  16
TORSDOF 4
