REMARK  Name = 
REMARK  7 active torsions:
REMARK  status: ('A' for Active; 'I' for Inactive)
REMARK    1  A    between atoms: C_1  and  C_2
REMARK    2  A    between atoms: C_5  and  C_6
REMARK    3  A    between atoms: C_7  and  C_8
REMARK    4  A    between atoms: C_11  and  C_12
REMARK    5  A    between atoms: C_18  and  C_19
REMARK    6  A    between atoms: C_22  and  C_23
REMARK    7  A    between atoms: N_26  and  C_27
REMARK                            x       y       z     vdW  Elec       q    Type
REMARK                         _______ _______ _______ _____ _____    ______ ____
ROOT
ATOM      1  C   UNL     1      -3.324  -2.894   1.962  0.00  0.00    +0.000 C 
ATOM      2  C   UNL     1      -3.048  -4.526   2.618  0.00  0.00    +0.000 C 
ATOM      3  C   UNL     1      -3.911  -5.936   2.286  0.00  0.00    +0.000 C 
ATOM      4  C   UNL     1      -5.317  -5.624   2.760  0.00  0.00    +0.000 C 
ATOM      5  C   UNL     1      -5.019  -4.489   3.770  0.00  0.00    +0.000 C 
ATOM      6  C   UNL     1      -5.366  -3.211   3.017  0.00  0.00    +0.000 C 
ATOM      7  C   UNL     1      -4.680  -3.274   1.508  0.00  0.00    +0.000 C 
ATOM      8  N   UNL     1      -3.554  -4.396   3.970  0.00  0.00    +0.000 NA
ATOM      9  C   UNL     1      -2.919  -5.210   5.016  0.00  0.00    +0.000 C 
ENDROOT
BRANCH   7  10
ATOM     10  C   UNL     1      -4.286  -3.888   0.044  0.00  0.00    +0.000 A 
ATOM     11  C   UNL     1      -4.744  -5.076  -0.540  0.00  0.00    +0.000 A 
ATOM     12  C   UNL     1      -4.006  -5.689  -1.585  0.00  0.00    +0.000 A 
ATOM     13  C   UNL     1      -2.839  -5.094  -2.097  0.00  0.00    +0.000 A 
ATOM     14  C   UNL     1      -1.870  -5.796  -3.001  0.00  0.00    +0.000 C 
ATOM     15  C   UNL     1      -2.516  -3.844  -1.709  0.00  0.00    +0.000 A 
ATOM     16  C   UNL     1      -3.225  -3.259  -0.701  0.00  0.00    +0.000 A 
ENDBRANCH   7  10
BRANCH   1  22
ATOM     17  C   UNL     1      -2.858  -0.404   0.651  0.00  0.00    +0.000 A 
ATOM     18  C   UNL     1      -3.837   0.359  -0.009  0.00  0.00    +0.000 A 
ATOM     19  C   UNL     1      -3.680   1.205  -1.278  0.00  0.00    +0.000 C 
ATOM     20  N   UNL     1      -5.036   0.084   0.466  0.00  0.00    +0.000 NA
ATOM     21  O   UNL     1      -4.880  -0.878   1.304  0.00  0.00    +0.000 OA
ATOM     22  C   UNL     1      -3.641  -1.371   1.382  0.00  0.00    +0.000 A 
BRANCH  17  27
ATOM     23  C   UNL     1       2.787   0.244  -0.133  0.00  0.00    +0.000 C 
ATOM     24  C   UNL     1       1.319   0.095   0.035  0.00  0.00    +0.000 A 
ATOM     25  C   UNL     1       0.794  -1.178   0.286  0.00  0.00    +0.000 A 
ATOM     26  C   UNL     1      -0.564  -1.347   0.507  0.00  0.00    +0.000 A 
ATOM     27  C   UNL     1      -1.419  -0.283   0.431  0.00  0.00    +0.000 A 
ATOM     28  C   UNL     1      -0.907   1.028   0.150  0.00  0.00    +0.000 A 
ATOM     29  C   UNL     1       0.458   1.201  -0.040  0.00  0.00    +0.000 A 
ENDBRANCH  17  27
ENDBRANCH   1  22
TORSDOF 3
