REMARK  Name = 
REMARK  7 active torsions:
REMARK  status: ('A' for Active; 'I' for Inactive)
REMARK    1  A    between atoms: C_4  and  N_5
REMARK    2  A    between atoms: N_8  and  C_9
REMARK    3  A    between atoms: C_9  and  C_10
REMARK    4  A    between atoms: C_10  and  C_11
REMARK    5  A    between atoms: C_11  and  C_12
REMARK    6  A    between atoms: C_12  and  C_13
REMARK    7  A    between atoms: C_15  and  C_16
REMARK                            x       y       z     vdW  Elec       q    Type
REMARK                         _______ _______ _______ _____ _____    ______ ____
ROOT
ATOM      1  C   UNL     1      -6.122   1.006  -0.639  0.00  0.00    +0.000 C 
ENDROOT
BRANCH   1   5
ATOM      2  N   UNL     1      -2.504  -0.517  -0.298  0.00  0.00    +0.000 N 
ATOM      3  C   UNL     1      -2.904   0.434  -1.293  0.00  0.00    +0.000 C 
ATOM      4  C   UNL     1      -4.220   0.006  -1.959  0.00  0.00    +0.000 C 
ATOM      5  N   UNL     1      -5.275  -0.173  -0.961  0.00  0.00    +0.000 NA
ATOM      6  C   UNL     1      -4.867  -1.083   0.137  0.00  0.00    +0.000 C 
ATOM      7  C   UNL     1      -3.493  -0.723   0.759  0.00  0.00    +0.000 C 
BRANCH   2  11
ATOM      8  C   UNL     1       1.677  -0.398   0.310  0.00  0.00    +0.000 A 
ATOM      9  C   UNL     1       0.976   0.801   0.191  0.00  0.00    +0.000 A 
ATOM     10  C   UNL     1      -0.409   0.779   0.043  0.00  0.00    +0.000 A 
ATOM     11  C   UNL     1      -1.114  -0.451   0.028  0.00  0.00    +0.000 A 
ATOM     12  C   UNL     1      -0.402  -1.643   0.184  0.00  0.00    +0.000 A 
ATOM     13  C   UNL     1       0.988  -1.615   0.315  0.00  0.00    +0.000 A 
ENDBRANCH   2  11
ENDBRANCH   1   5
BRANCH   1  14
ATOM     14  C   UNL     1      -5.385   2.287  -0.182  0.00  0.00    +0.000 C 
BRANCH  14  15
ATOM     15  C   UNL     1      -4.650   3.115  -1.288  0.00  0.00    +0.000 C 
BRANCH  15  16
ATOM     16  C   UNL     1      -5.530   3.753  -2.345  0.00  0.00    +0.000 C 
BRANCH  16  17
ATOM     17  C   UNL     1      -6.144   4.942  -1.730  0.00  0.00    +0.000 A 
ATOM     18  C   UNL     1      -5.791   6.215  -2.049  0.00  0.00    +0.000 A 
ATOM     19  C   UNL     1      -6.452   6.975  -1.123  0.00  0.00    +0.000 A 
ATOM     20  N   UNL     1      -7.153   6.180  -0.294  0.00  0.00    +0.000 NA
ATOM     21  O   UNL     1      -6.959   4.957  -0.702  0.00  0.00    +0.000 OA
BRANCH  19  22
ATOM     22  C   UNL     1      -6.297   8.419  -0.998  0.00  0.00    +0.000 A 
ATOM     23  C   UNL     1      -5.864   9.230  -2.027  0.00  0.00    +0.000 A 
ATOM     24  C   UNL     1      -5.767  10.564  -1.657  0.00  0.00    +0.000 A 
ATOM     25  C   UNL     1      -6.093  10.782  -0.322  0.00  0.00    +0.000 A 
ATOM     26  S   UNL     1      -6.546   9.325   0.385  0.00  0.00    +0.000 S 
ENDBRANCH  19  22
ENDBRANCH  16  17
ENDBRANCH  15  16
ENDBRANCH  14  15
ENDBRANCH   1  14
TORSDOF 7
