REMARK  Name = 
REMARK  9 active torsions:
REMARK  status: ('A' for Active; 'I' for Inactive)
REMARK    1  A    between atoms: C_1  and  O_2
REMARK    2  A    between atoms: O_2  and  C_3
REMARK    3  A    between atoms: C_5  and  N_6
REMARK    4  A    between atoms: N_6  and  C_7
REMARK    5  A    between atoms: C_8  and  C_10
REMARK    6  A    between atoms: C_10  and  C_11
REMARK    7  A    between atoms: C_20  and  N_21
REMARK    8  A    between atoms: C_27  and  O_28
REMARK    9  A    between atoms: O_28  and  C_29
REMARK                            x       y       z     vdW  Elec       q    Type
REMARK                         _______ _______ _______ _____ _____    ______ ____
ROOT
ATOM      1  C   UNL     1       0.848  -1.012  -2.216  0.00  0.00    +0.000 C 
ATOM      2  C   UNL     1       1.931  -2.087  -2.312  0.00  0.00    +0.000 C 
ATOM      3  C   UNL     1       2.588  -2.160  -3.722  0.00  0.00    +0.000 C 
ATOM      4  C   UNL     1       3.199  -0.762  -4.150  0.00  0.00    +0.000 C 
ATOM      5  C   UNL     1       2.189   0.398  -3.858  0.00  0.00    +0.000 C 
ATOM      6  C   UNL     1       1.527   0.356  -2.466  0.00  0.00    +0.000 C 
ENDROOT
BRANCH   4   7
ATOM      7  N   UNL     1       3.665  -0.635  -5.584  0.00  0.00    +0.000 NA
ATOM      8  C   UNL     1       2.661  -0.612  -6.676  0.00  0.00    +0.000 C 
ATOM      9  C   UNL     1       2.613  -2.010  -7.222  0.00  0.00    +0.000 C 
ATOM     10  C   UNL     1       4.087  -2.339  -7.268  0.00  0.00    +0.000 C 
ATOM     11  C   UNL     1       4.680  -1.608  -6.045  0.00  0.00    +0.000 C 
ENDBRANCH   4   7
BRANCH   3  12
ATOM     12  N   UNL     1       3.546  -3.297  -3.746  0.00  0.00    +0.000 N 
ATOM     13  C   UNL     1       3.311  -4.379  -4.710  0.00  0.00    +0.000 C 
ATOM     14  C   UNL     1       4.632  -3.377  -2.877  0.00  0.00    +0.000 C 
ATOM     15  O   UNL     1       4.869  -2.458  -2.102  0.00  0.00    +0.000 OA
BRANCH  14  16
ATOM     16  C   UNL     1       5.601  -4.560  -2.852  0.00  0.00    +0.000 C 
BRANCH  16  17
ATOM     17  C   UNL     1       5.017  -5.957  -2.619  0.00  0.00    +0.000 A 
ATOM     18  C   UNL     1       5.800  -7.051  -3.049  0.00  0.00    +0.000 A 
ATOM     19  C   UNL     1       5.284  -8.358  -3.055  0.00  0.00    +0.000 A 
ATOM     20  C   UNL     1       3.967  -8.603  -2.652  0.00  0.00    +0.000 A 
ATOM     21  C   UNL     1       3.212  -7.535  -2.192  0.00  0.00    +0.000 A 
ATOM     22  S   UNL     1       1.611  -7.565  -1.683  0.00  0.00    +0.000 S 
ATOM     23  C   UNL     1       1.541  -5.922  -1.323  0.00  0.00    +0.000 A 
ATOM     24  C   UNL     1       2.778  -5.352  -1.588  0.00  0.00    +0.000 A 
ATOM     25  C   UNL     1       3.715  -6.242  -2.126  0.00  0.00    +0.000 A 
ENDBRANCH  16  17
ENDBRANCH  14  16
ENDBRANCH   3  12
BRANCH   1  27
ATOM     26  C   UNL     1      -1.020  -2.318  -2.773  0.00  0.00    +0.000 C 
ATOM     27  O   UNL     1      -0.166  -1.264  -3.180  0.00  0.00    +0.000 OA
ENDBRANCH   1  27
BRANCH   6  28
ATOM     28  O   UNL     1       0.678   1.479  -2.214  0.00  0.00    +0.000 OA
ATOM     29  C   UNL     1      -0.494   1.541  -3.009  0.00  0.00    +0.000 C 
ENDBRANCH   6  28
TORSDOF 6
