REMARK  Name = 
REMARK  5 active torsions:
REMARK  status: ('A' for Active; 'I' for Inactive)
REMARK    1  A    between atoms: N_1  and  C_2
REMARK    2  A    between atoms: N_7  and  C_8
REMARK    3  A    between atoms: C_11  and  S_12
REMARK    4  A    between atoms: S_12  and  N_13
REMARK    5  A    between atoms: C_21  and  N_22
REMARK                            x       y       z     vdW  Elec       q    Type
REMARK                         _______ _______ _______ _____ _____    ______ ____
ROOT
ATOM      1  C   UNL     1       0.394   0.516  -0.855  0.00  0.00    +0.000 A 
ATOM      2  C   UNL     1       1.008   0.111  -2.026  0.00  0.00    +0.000 A 
ATOM      3  C   UNL     1       0.447   0.418  -3.254  0.00  0.00    +0.000 A 
ATOM      4  C   UNL     1      -0.783   1.124  -3.388  0.00  0.00    +0.000 A 
ATOM      5  C   UNL     1      -1.473   1.396  -4.642  0.00  0.00    +0.000 A 
ATOM      6  N   UNL     1      -1.156   0.880  -5.804  0.00  0.00    +0.000 NA
ATOM      7  C   UNL     1      -2.588   2.280  -4.604  0.00  0.00    +0.000 A 
ATOM      8  C   UNL     1      -3.269   2.669  -5.782  0.00  0.00    +0.000 A 
ATOM      9  C   UNL     1      -4.337   3.569  -5.727  0.00  0.00    +0.000 A 
ATOM     10  C   UNL     1      -4.761   4.092  -4.502  0.00  0.00    +0.000 A 
ATOM     11  C   UNL     1      -4.119   3.693  -3.326  0.00  0.00    +0.000 A 
ATOM     12  C   UNL     1      -3.039   2.795  -3.365  0.00  0.00    +0.000 A 
ATOM     13  N   UNL     1      -2.437   2.425  -2.205  0.00  0.00    +0.000 N 
ATOM     14  C   UNL     1      -1.342   1.623  -2.178  0.00  0.00    +0.000 A 
ATOM     15  C   UNL     1      -0.761   1.295  -0.930  0.00  0.00    +0.000 A 
ATOM     16  H   UNL     1      -2.810   2.799  -1.299  0.00  0.00    +0.000 HD
ENDROOT
BRANCH   6  17
ATOM     17  C   UNL     1      -0.186  -0.131  -6.018  0.00  0.00    +0.000 A 
ATOM     18  C   UNL     1      -0.325  -1.388  -5.394  0.00  0.00    +0.000 A 
ATOM     19  C   UNL     1       0.771  -2.254  -5.330  0.00  0.00    +0.000 A 
ATOM     20  C   UNL     1       1.990  -1.878  -5.910  0.00  0.00    +0.000 A 
ATOM     21  C   UNL     1       2.086  -0.680  -6.633  0.00  0.00    +0.000 A 
ATOM     22  C   UNL     1       0.995   0.192  -6.693  0.00  0.00    +0.000 A 
BRANCH  20  23
ATOM     23  S   UNL     1       3.463  -2.841  -5.578  0.00  0.00    +0.000 S 
ATOM     24  O   UNL     1       3.321  -4.345  -5.848  0.00  0.00    +0.000 OA
ATOM     25  O   UNL     1       4.675  -2.439  -6.433  0.00  0.00    +0.000 OA
BRANCH  23  26
ATOM     26  N   UNL     1       4.032  -2.715  -3.905  0.00  0.00    +0.000 NA
ATOM     27  H   UNL     1       4.936  -3.230  -3.812  0.00  0.00    +0.000 HD
ATOM     28  H   UNL     1       4.217  -1.706  -3.697  0.00  0.00    +0.000 HD
ENDBRANCH  23  26
ENDBRANCH  20  23
ENDBRANCH   6  17
BRANCH   1  29
ATOM     29  N   UNL     1       0.962   0.153   0.390  0.00  0.00    +0.000 N 
ATOM     30  H   UNL     1       0.512   0.426   1.273  0.00  0.00    +0.000 HD
ATOM     31  H   UNL     1       1.812  -0.430   0.426  0.00  0.00    +0.000 HD
ENDBRANCH   1  29
BRANCH  10  32
ATOM     32  N   UNL     1      -5.828   5.024  -4.449  0.00  0.00    +0.000 N 
ATOM     33  H   UNL     1      -6.129   5.429  -3.551  0.00  0.00    +0.000 HD
ATOM     34  H   UNL     1      -6.298   5.335  -5.312  0.00  0.00    +0.000 HD
ENDBRANCH  10  32
TORSDOF 5
