REMARK  Name = 
REMARK  9 active torsions:
REMARK  status: ('A' for Active; 'I' for Inactive)
REMARK    1  A    between atoms: C_1  and  C_2
REMARK    2  A    between atoms: C_2  and  C_3
REMARK    3  A    between atoms: C_2  and  C_4
REMARK    4  A    between atoms: C_2  and  C_5
REMARK    5  A    between atoms: C_5  and  N_6
REMARK    6  A    between atoms: N_6  and  C_7
REMARK    7  A    between atoms: N_6  and  C_18
REMARK    8  A    between atoms: C_7  and  C_8
REMARK    9  A    between atoms: C_13  and  C_14
REMARK                            x       y       z     vdW  Elec       q    Type
REMARK                         _______ _______ _______ _____ _____    ______ ____
ROOT
ATOM      1  N   UNL     1       0.338  -0.388  -3.096  0.00  0.00    +0.000 NA
ENDROOT
BRANCH   1   2
ATOM      2  C   UNL     1      -1.146  -0.104  -3.136  0.00  0.00    +0.000 C 
ATOM      3  C   UNL     1      -1.999  -0.401  -4.389  0.00  0.00    +0.000 C 
ATOM      4  C   UNL     1      -1.867   0.652  -5.515  0.00  0.00    +0.000 C 
ATOM      5  N   UNL     1      -2.126   1.995  -4.989  0.00  0.00    +0.000 NA
ATOM      6  C   UNL     1      -1.204   2.320  -3.893  0.00  0.00    +0.000 C 
ATOM      7  C   UNL     1      -1.440   1.355  -2.723  0.00  0.00    +0.000 C 
ATOM      8  H   UNL     1      -1.991   2.685  -5.764  0.00  0.00    +0.000 HD
ENDBRANCH   1   2
BRANCH   1   9
ATOM      9  C   UNL     1       0.750  -1.377  -2.044  0.00  0.00    +0.000 C 
BRANCH   9  11
ATOM     10  C   UNL     1       1.137   0.146   0.014  0.00  0.00    +0.000 C 
ATOM     11  C   UNL     1       0.479  -1.149  -0.501  0.00  0.00    +0.000 C 
ATOM     12  C   UNL     1       1.145  -2.342   0.234  0.00  0.00    +0.000 C 
ATOM     13  C   UNL     1      -1.009  -1.164  -0.083  0.00  0.00    +0.000 C 
ENDBRANCH   9  11
ENDBRANCH   1   9
BRANCH   1  14
ATOM     14  C   UNL     1       1.106  -0.610  -4.379  0.00  0.00    +0.000 C 
BRANCH  14  15
ATOM     15  C   UNL     1       0.966  -2.028  -4.975  0.00  0.00    +0.000 A 
ATOM     16  C   UNL     1      -0.003  -2.218  -5.984  0.00  0.00    +0.000 A 
ATOM     17  C   UNL     1      -0.357  -3.480  -6.442  0.00  0.00    +0.000 A 
ATOM     18  C   UNL     1       0.272  -4.603  -5.932  0.00  0.00    +0.000 A 
ATOM     19  C   UNL     1       1.310  -4.456  -5.020  0.00  0.00    +0.000 A 
ATOM     20  C   UNL     1       1.709  -3.186  -4.553  0.00  0.00    +0.000 A 
BRANCH  20  21
ATOM     21  C   UNL     1       2.951  -3.200  -3.670  0.00  0.00    +0.000 C 
ATOM     22  F   UNL     1       2.675  -3.824  -2.467  0.00  0.00    +0.000 F 
ATOM     23  F   UNL     1       3.935  -3.924  -4.321  0.00  0.00    +0.000 F 
ATOM     24  F   UNL     1       3.501  -1.958  -3.440  0.00  0.00    +0.000 F 
ENDBRANCH  20  21
ENDBRANCH  14  15
ENDBRANCH   1  14
TORSDOF 6
