REMARK  Name = 
REMARK  6 active torsions:
REMARK  status: ('A' for Active; 'I' for Inactive)
REMARK    1  A    between atoms: C_2  and  C_3
REMARK    2  A    between atoms: C_8  and  N_9
REMARK    3  A    between atoms: N_12  and  C_13
REMARK    4  A    between atoms: C_13  and  C_14
REMARK    5  A    between atoms: C_14  and  C_15
REMARK    6  A    between atoms: C_15  and  N_16
REMARK                            x       y       z     vdW  Elec       q    Type
REMARK                         _______ _______ _______ _____ _____    ______ ____
ROOT
ATOM      1  N   UNL     1      -1.173  -1.475  -0.060  0.00  0.00    +0.000 N 
ATOM      2  C   UNL     1      -0.826  -2.646   0.729  0.00  0.00    +0.000 C 
ATOM      3  C   UNL     1      -2.010  -3.627   0.838  0.00  0.00    +0.000 C 
ATOM      4  N   UNL     1      -2.551  -3.962  -0.487  0.00  0.00    +0.000 NA
ATOM      5  C   UNL     1      -2.941  -2.744  -1.226  0.00  0.00    +0.000 C 
ATOM      6  C   UNL     1      -1.771  -1.762  -1.364  0.00  0.00    +0.000 C 
ENDROOT
BRANCH   1  12
ATOM      7  C   UNL     1      -0.665   0.946  -0.143  0.00  0.00    +0.000 A 
ATOM      8  C   UNL     1       0.267   1.995  -0.133  0.00  0.00    +0.000 A 
ATOM      9  C   UNL     1       1.635   1.727  -0.050  0.00  0.00    +0.000 A 
ATOM     10  C   UNL     1       2.083   0.412   0.031  0.00  0.00    +0.000 A 
ATOM     11  C   UNL     1       1.169  -0.640   0.034  0.00  0.00    +0.000 A 
ATOM     12  C   UNL     1      -0.223  -0.394  -0.057  0.00  0.00    +0.000 A 
BRANCH   7  14
ATOM     13  N   UNL     1      -3.197   1.522  -0.225  0.00  0.00    +0.000 NA
ATOM     14  C   UNL     1      -2.070   1.266  -0.193  0.00  0.00    +0.000 C 
ENDBRANCH   7  14
ENDBRANCH   1  12
BRANCH   4  15
ATOM     15  C   UNL     1      -1.962  -5.081  -1.281  0.00  0.00    +0.000 C 
BRANCH  15  16
ATOM     16  C   UNL     1      -0.411  -5.212  -1.342  0.00  0.00    +0.000 C 
BRANCH  16  17
ATOM     17  C   UNL     1       0.433  -5.662  -0.101  0.00  0.00    +0.000 C 
BRANCH  17  18
ATOM     18  N   UNL     1       0.311  -7.077   0.252  0.00  0.00    +0.000 N 
ATOM     19  C   UNL     1      -0.915  -7.529   0.895  0.00  0.00    +0.000 C 
ATOM     20  C   UNL     1      -1.118  -9.008   0.908  0.00  0.00    +0.000 C 
ATOM     21  O   UNL     1      -2.204  -9.450   1.253  0.00  0.00    +0.000 OA
ATOM     22  N   UNL     1      -0.036  -9.821   0.842  0.00  0.00    +0.000 N 
ATOM     23  C   UNL     1       0.040 -11.084   1.504  0.00  0.00    +0.000 C 
ATOM     24  C   UNL     1       1.106 -10.718   2.531  0.00  0.00    +0.000 C 
ATOM     25  C   UNL     1       2.141  -9.937   1.696  0.00  0.00    +0.000 C 
ATOM     26  C   UNL     1       1.297  -9.377   0.531  0.00  0.00    +0.000 C 
ATOM     27  C   UNL     1       1.405  -7.912   0.195  0.00  0.00    +0.000 C 
ATOM     28  O   UNL     1       2.491  -7.495  -0.182  0.00  0.00    +0.000 OA
ENDBRANCH  17  18
ENDBRANCH  16  17
ENDBRANCH  15  16
ENDBRANCH   4  15
TORSDOF 6
