REMARK  Name = 
REMARK  7 active torsions:
REMARK  status: ('A' for Active; 'I' for Inactive)
REMARK    1  A    between atoms: C_1  and  C_2
REMARK    2  A    between atoms: C_8  and  C_9
REMARK    3  A    between atoms: C_12  and  O_13
REMARK    4  A    between atoms: O_13  and  C_14
REMARK    5  A    between atoms: C_14  and  C_15
REMARK    6  A    between atoms: C_15  and  C_16
REMARK    7  A    between atoms: C_16  and  N_17
REMARK                            x       y       z     vdW  Elec       q    Type
REMARK                         _______ _______ _______ _____ _____    ______ ____
ROOT
ATOM      1  C   UNL     1      -2.882  -0.045   4.390  0.00  0.00    +0.000 A 
ATOM      2  C   UNL     1      -4.256  -0.330   4.232  0.00  0.00    +0.000 A 
ATOM      3  C   UNL     1      -4.880  -1.280   5.083  0.00  0.00    +0.000 A 
ATOM      4  C   UNL     1      -4.127  -1.920   6.090  0.00  0.00    +0.000 A 
ATOM      5  C   UNL     1      -2.833  -1.515   6.276  0.00  0.00    +0.000 A 
ATOM      6  C   UNL     1      -2.195  -0.622   5.441  0.00  0.00    +0.000 A 
ENDROOT
BRANCH   1  14
ATOM      7  C   UNL     1       0.720   0.042   0.229  0.00  0.00    +0.000 C 
ATOM      8  C   UNL     1       0.347   1.283   0.988  0.00  0.00    +0.000 A 
ATOM      9  C   UNL     1       0.975   2.506   0.671  0.00  0.00    +0.000 A 
ATOM     10  C   UNL     1       0.666   3.676   1.389  0.00  0.00    +0.000 A 
ATOM     11  C   UNL     1      -0.276   3.624   2.418  0.00  0.00    +0.000 A 
ATOM     12  N   UNL     1      -0.879   2.442   2.689  0.00  0.00    +0.000 N 
ATOM     13  C   UNL     1      -1.797   2.136   3.619  0.00  0.00    +0.000 A 
ATOM     14  C   UNL     1      -2.077   0.785   3.484  0.00  0.00    +0.000 A 
ATOM     15  N   UNL     1      -1.310   0.258   2.496  0.00  0.00    +0.000 NA
ATOM     16  C   UNL     1      -0.601   1.302   2.023  0.00  0.00    +0.000 A 
ENDBRANCH   1  14
BRANCH   4  17
ATOM     17  O   UNL     1      -4.616  -2.932   6.865  0.00  0.00    +0.000 OA
BRANCH  17  18
ATOM     18  C   UNL     1      -3.894  -3.703   7.803  0.00  0.00    +0.000 C 
BRANCH  18  19
ATOM     19  C   UNL     1      -2.811  -4.691   7.227  0.00  0.00    +0.000 C 
BRANCH  19  20
ATOM     20  C   UNL     1      -1.451  -4.253   6.554  0.00  0.00    +0.000 C 
BRANCH  20  21
ATOM     21  N   UNL     1      -0.357  -3.762   7.485  0.00  0.00    +0.000 NA
ATOM     22  C   UNL     1       0.175  -2.379   7.266  0.00  0.00    +0.000 C 
ATOM     23  C   UNL     1       0.831  -2.244   5.882  0.00  0.00    +0.000 C 
ATOM     24  O   UNL     1       1.948  -3.101   5.799  0.00  0.00    +0.000 OA
ATOM     25  C   UNL     1       1.554  -4.444   6.017  0.00  0.00    +0.000 C 
ATOM     26  C   UNL     1       0.843  -4.627   7.387  0.00  0.00    +0.000 C 
ENDBRANCH  20  21
ENDBRANCH  19  20
ENDBRANCH  18  19
ENDBRANCH  17  18
ENDBRANCH   4  17
TORSDOF 6
