REMARK  Name = 
REMARK  8 active torsions:
REMARK  status: ('A' for Active; 'I' for Inactive)
REMARK    1  A    between atoms: C_2  and  O_5
REMARK    2  A    between atoms: O_5  and  C_6
REMARK    3  A    between atoms: C_6  and  C_7
REMARK    4  A    between atoms: C_7  and  N_8
REMARK    5  A    between atoms: N_8  and  C_9
REMARK    6  A    between atoms: N_8  and  C_20
REMARK    7  A    between atoms: C_9  and  C_10
REMARK    8  A    between atoms: C_15  and  C_16
REMARK                            x       y       z     vdW  Elec       q    Type
REMARK                         _______ _______ _______ _____ _____    ______ ____
ROOT
ATOM      1  N   UNL     1       3.921  -0.713  -1.807  0.00  0.00    +0.000 NA
ENDROOT
BRANCH   1   2
ATOM      2  C   UNL     1       2.498  -0.190  -1.879  0.00  0.00    +0.000 C 
ATOM      3  C   UNL     1       1.488  -0.921  -2.758  0.00  0.00    +0.000 C 
ATOM      4  C   UNL     1       1.642  -0.577  -4.265  0.00  0.00    +0.000 C 
ATOM      5  N   UNL     1       1.549   0.872  -4.473  0.00  0.00    +0.000 NA
ATOM      6  C   UNL     1       2.564   1.602  -3.700  0.00  0.00    +0.000 C 
ATOM      7  C   UNL     1       2.402   1.318  -2.206  0.00  0.00    +0.000 C 
ATOM      8  H   UNL     1       1.704   1.069  -5.489  0.00  0.00    +0.000 HD
ENDBRANCH   1   2
BRANCH   1   9
ATOM      9  C   UNL     1       4.315  -1.431  -0.549  0.00  0.00    +0.000 C 
BRANCH   9  10
ATOM     10  C   UNL     1       4.213  -0.650   0.791  0.00  0.00    +0.000 C 
BRANCH  10  11
ATOM     11  O   UNL     1       2.868  -0.466   1.202  0.00  0.00    +0.000 OA
BRANCH  11  13
ATOM     12  F   UNL     1       1.183   1.043   1.049  0.00  0.00    +0.000 F 
ATOM     13  C   UNL     1       2.500   0.887   1.437  0.00  0.00    +0.000 C 
ATOM     14  F   UNL     1       3.250   1.810   0.727  0.00  0.00    +0.000 F 
ATOM     15  F   UNL     1       2.598   1.170   2.784  0.00  0.00    +0.000 F 
ENDBRANCH  11  13
ENDBRANCH  10  11
ENDBRANCH   9  10
ENDBRANCH   1   9
BRANCH   1  16
ATOM     16  C   UNL     1       4.650  -1.284  -2.995  0.00  0.00    +0.000 C 
BRANCH  16  17
ATOM     17  C   UNL     1       4.565  -2.836  -3.136  0.00  0.00    +0.000 A 
ATOM     18  C   UNL     1       3.363  -3.421  -3.600  0.00  0.00    +0.000 A 
ATOM     19  C   UNL     1       3.153  -4.789  -3.669  0.00  0.00    +0.000 A 
ATOM     20  C   UNL     1       4.156  -5.658  -3.304  0.00  0.00    +0.000 A 
ATOM     21  C   UNL     1       5.388  -5.154  -2.912  0.00  0.00    +0.000 A 
ATOM     22  C   UNL     1       5.639  -3.755  -2.836  0.00  0.00    +0.000 A 
BRANCH  22  23
ATOM     23  C   UNL     1       7.079  -3.439  -2.444  0.00  0.00    +0.000 C 
ATOM     24  F   UNL     1       7.340  -3.971  -1.195  0.00  0.00    +0.000 F 
ATOM     25  F   UNL     1       7.914  -4.048  -3.367  0.00  0.00    +0.000 F 
ATOM     26  F   UNL     1       7.420  -2.110  -2.418  0.00  0.00    +0.000 F 
ENDBRANCH  22  23
ENDBRANCH  16  17
ENDBRANCH   1  16
TORSDOF 8
