REMARK  Name = 
REMARK  7 active torsions:
REMARK  status: ('A' for Active; 'I' for Inactive)
REMARK    1  A    between atoms: C_1  and  O_2
REMARK    2  A    between atoms: O_2  and  C_3
REMARK    3  A    between atoms: C_9  and  N_10
REMARK    4  A    between atoms: N_13  and  C_14
REMARK    5  A    between atoms: C_14  and  C_15
REMARK    6  A    between atoms: C_15  and  O_16
REMARK    7  A    between atoms: C_20  and  C_21
REMARK                            x       y       z     vdW  Elec       q    Type
REMARK                         _______ _______ _______ _____ _____    ______ ____
ROOT
ATOM      1  C   UNL     1       0.764  -1.954  -1.376  0.00  0.00    +0.000 A 
ATOM      2  C   UNL     1       2.104  -1.796  -1.813  0.00  0.00    +0.000 A 
ATOM      3  C   UNL     1       2.648  -2.657  -2.767  0.00  0.00    +0.000 A 
ATOM      4  C   UNL     1       1.865  -3.696  -3.265  0.00  0.00    +0.000 A 
ATOM      5  C   UNL     1       0.535  -3.837  -2.889  0.00  0.00    +0.000 A 
ATOM      6  C   UNL     1      -0.028  -2.979  -1.937  0.00  0.00    +0.000 A 
ATOM      7  C   UNL     1      -0.160  -4.897  -3.712  0.00  0.00    +0.000 C 
ATOM      8  C   UNL     1       1.055  -5.664  -4.239  0.00  0.00    +0.000 C 
ATOM      9  C   UNL     1       2.211  -4.645  -4.358  0.00  0.00    +0.000 C 
ENDROOT
BRANCH   9  10
ATOM     10  C   UNL     1       3.534  -5.366  -4.416  0.00  0.00    +0.000 A 
ATOM     11  C   UNL     1       3.758  -6.201  -5.529  0.00  0.00    +0.000 A 
ATOM     12  C   UNL     1       4.963  -6.879  -5.676  0.00  0.00    +0.000 A 
ATOM     13  C   UNL     1       5.969  -6.727  -4.719  0.00  0.00    +0.000 A 
ATOM     14  F   UNL     1       7.147  -7.375  -4.866  0.00  0.00    +0.000 F 
ATOM     15  C   UNL     1       5.757  -5.901  -3.610  0.00  0.00    +0.000 A 
ATOM     16  C   UNL     1       4.545  -5.223  -3.451  0.00  0.00    +0.000 A 
ENDBRANCH   9  10
BRANCH   7  17
ATOM     17  N   UNL     1      -1.027  -4.278  -4.763  0.00  0.00    +0.000 NA
ATOM     18  C   UNL     1      -0.420  -3.332  -5.722  0.00  0.00    +0.000 C 
ATOM     19  C   UNL     1       0.172  -4.041  -6.966  0.00  0.00    +0.000 C 
ATOM     20  N   UNL     1      -0.797  -4.933  -7.599  0.00  0.00    +0.000 NA
ATOM     21  C   UNL     1      -1.494  -5.857  -6.684  0.00  0.00    +0.000 C 
ATOM     22  C   UNL     1      -2.035  -5.139  -5.430  0.00  0.00    +0.000 C 
BRANCH  20  23
ATOM     23  C   UNL     1      -1.423  -4.508  -8.858  0.00  0.00    +0.000 C 
BRANCH  23  24
ATOM     24  C   UNL     1      -2.536  -3.464  -8.688  0.00  0.00    +0.000 C 
BRANCH  24  25
ATOM     25  O   UNL     1      -2.077  -2.254  -8.153  0.00  0.00    +0.000 OA
ATOM     26  H   UNL     1      -1.221  -2.017  -8.601  0.00  0.00    +0.000 HD
ENDBRANCH  24  25
ENDBRANCH  23  24
ENDBRANCH  20  23
ENDBRANCH   7  17
BRANCH   1  28
ATOM     27  C   UNL     1       0.782   0.033   0.030  0.00  0.00    +0.000 C 
ATOM     28  O   UNL     1       0.210  -1.131  -0.448  0.00  0.00    +0.000 OA
ENDBRANCH   1  28
TORSDOF 6
