REMARK  Name = 
REMARK  4 active torsions:
REMARK  status: ('A' for Active; 'I' for Inactive)
REMARK    1  A    between atoms: C_1  and  N_2
REMARK    2  A    between atoms: C_8  and  O_9
REMARK    3  A    between atoms: C_10  and  O_11
REMARK    4  A    between atoms: C_14  and  C_15
REMARK                            x       y       z     vdW  Elec       q    Type
REMARK                         _______ _______ _______ _____ _____    ______ ____
ROOT
ATOM      1  C   UNL     1       1.122  -0.227   0.252  0.00  0.00    +0.000 C 
ATOM      2  N   UNL     1       0.365  -1.453  -0.069  0.00  0.00    +0.000 NA
ATOM      3  C   UNL     1       0.372  -1.675  -1.525  0.00  0.00    +0.000 C 
ATOM      4  C   UNL     1      -0.714  -2.659  -1.969  0.00  0.00    +0.000 C 
ATOM      5  C   UNL     1      -0.222  -4.080  -1.829  0.00  0.00    +0.000 A 
ATOM      6  C   UNL     1       0.102  -4.613  -0.548  0.00  0.00    +0.000 A 
ATOM      7  C   UNL     1       0.729  -5.882  -0.516  0.00  0.00    +0.000 A 
ATOM      8  C   UNL     1       0.895  -6.659  -1.665  0.00  0.00    +0.000 A 
ATOM      9  C   UNL     1       0.500  -6.160  -2.906  0.00  0.00    +0.000 A 
ATOM     10  C   UNL     1      -0.032  -4.875  -3.001  0.00  0.00    +0.000 A 
ATOM     11 CL   UNL     1      -0.429  -4.300  -4.628  0.00  0.00    +0.000 Cl
ATOM     12  C   UNL     1      -0.162  -3.793   0.745  0.00  0.00    +0.000 C 
ATOM     13  C   UNL     1       0.831  -2.587   0.764  0.00  0.00    +0.000 C 
ENDROOT
BRANCH  12  14
ATOM     14  C   UNL     1      -0.283  -4.558   2.113  0.00  0.00    +0.000 A 
ATOM     15  C   UNL     1      -0.493  -5.964   2.232  0.00  0.00    +0.000 A 
ATOM     16  C   UNL     1      -0.576  -6.596   3.476  0.00  0.00    +0.000 A 
ATOM     17  C   UNL     1      -0.510  -5.854   4.648  0.00  0.00    +0.000 A 
ATOM     18  C   UNL     1      -0.397  -4.472   4.576  0.00  0.00    +0.000 A 
ATOM     19  C   UNL     1      -0.300  -3.832   3.336  0.00  0.00    +0.000 A 
ENDBRANCH  12  14
BRANCH   8  20
ATOM     20  O   UNL     1       1.437  -7.893  -1.575  0.00  0.00    +0.000 OA
ATOM     21  H   UNL     1       1.678  -8.293  -0.727  0.00  0.00    +0.000 HD
ENDBRANCH   8  20
BRANCH   9  22
ATOM     22  O   UNL     1       0.649  -6.907  -4.026  0.00  0.00    +0.000 OA
ATOM     23  H   UNL     1       1.001  -7.809  -4.017  0.00  0.00    +0.000 HD
ENDBRANCH   9  22
TORSDOF 3
