REMARK  Name = 
REMARK  8 active torsions:
REMARK  status: ('A' for Active; 'I' for Inactive)
REMARK    1  A    between atoms: C_1  and  C_2
REMARK    2  A    between atoms: N_13  and  C_14
REMARK    3  A    between atoms: C_14  and  C_15
REMARK    4  A    between atoms: C_15  and  C_16
REMARK    5  A    between atoms: C_16  and  C_17
REMARK    6  A    between atoms: C_17  and  N_18
REMARK    7  A    between atoms: C_19  and  C_20
REMARK    8  A    between atoms: C_24  and  O_25
REMARK                            x       y       z     vdW  Elec       q    Type
REMARK                         _______ _______ _______ _____ _____    ______ ____
ROOT
ATOM      1  C   UNL     1       1.049  -0.080   0.077  0.00  0.00    +0.000 C 
ATOM      2  C   UNL     1       0.535  -0.047  -1.332  0.00  0.00    +0.000 A 
ATOM      3  C   UNL     1       0.265   1.194  -1.959  0.00  0.00    +0.000 A 
ATOM      4  C   UNL     1      -0.219   1.242  -3.282  0.00  0.00    +0.000 A 
ATOM      5  C   UNL     1      -0.387   0.035  -3.959  0.00  0.00    +0.000 A 
ATOM      6  N   UNL     1      -0.816  -0.140  -5.223  0.00  0.00    +0.000 N 
ATOM      7  C   UNL     1      -0.743  -1.476  -5.460  0.00  0.00    +0.000 A 
ATOM      8  C   UNL     1      -0.361  -2.133  -4.305  0.00  0.00    +0.000 A 
ATOM      9  C   UNL     1      -0.111  -1.167  -3.361  0.00  0.00    +0.000 A 
ATOM     10  C   UNL     1       0.342  -1.253  -2.044  0.00  0.00    +0.000 A 
ATOM     11  C   UNL     1      -0.266  -3.608  -4.189  0.00  0.00    +0.000 C 
ATOM     12  C   UNL     1      -1.096  -4.230  -5.318  0.00  0.00    +0.000 C 
ATOM     13  N   UNL     1      -0.750  -3.663  -6.648  0.00  0.00    +0.000 NA
ATOM     14  C   UNL     1      -1.035  -2.182  -6.785  0.00  0.00    +0.000 C 
ATOM     15  H   UNL     1      -1.090   0.607  -5.897  0.00  0.00    +0.000 HD
ENDROOT
BRANCH  14  16
ATOM     16  C   UNL     1      -0.323  -1.504  -8.014  0.00  0.00    +0.000 A 
ATOM     17  C   UNL     1      -0.619  -1.887  -9.349  0.00  0.00    +0.000 A 
ATOM     18  C   UNL     1      -0.094  -1.231 -10.457  0.00  0.00    +0.000 A 
ATOM     19  C   UNL     1       0.745  -0.146 -10.286  0.00  0.00    +0.000 A 
ATOM     20  C   UNL     1       1.080   0.272  -9.001  0.00  0.00    +0.000 A 
ATOM     21  C   UNL     1       0.571  -0.409  -7.877  0.00  0.00    +0.000 A 
BRANCH  20  22
ATOM     22  O   UNL     1       1.875   1.351  -8.856  0.00  0.00    +0.000 OA
ATOM     23  H   UNL     1       2.090   1.717  -7.987  0.00  0.00    +0.000 HD
ENDBRANCH  20  22
ENDBRANCH  14  16
BRANCH  13  24
ATOM     24  C   UNL     1      -1.304  -4.546  -7.709  0.00  0.00    +0.000 C 
BRANCH  24  25
ATOM     25  C   UNL     1      -2.857  -4.757  -7.772  0.00  0.00    +0.000 C 
BRANCH  25  26
ATOM     26  C   UNL     1      -3.922  -3.619  -7.859  0.00  0.00    +0.000 C 
BRANCH  26  27
ATOM     27  C   UNL     1      -3.886  -2.600  -9.017  0.00  0.00    +0.000 C 
BRANCH  27  28
ATOM     28  N   UNL     1      -3.826  -3.239 -10.330  0.00  0.00    +0.000 NA
ATOM     29  H   UNL     1      -3.678  -2.489 -11.046  0.00  0.00    +0.000 HD
ATOM     30  H   UNL     1      -3.001  -3.876 -10.388  0.00  0.00    +0.000 HD
ENDBRANCH  27  28
ENDBRANCH  26  27
ENDBRANCH  25  26
ENDBRANCH  24  25
ENDBRANCH  13  24
TORSDOF 7
