REMARK  Name = 
REMARK  11 active torsions:
REMARK  status: ('A' for Active; 'I' for Inactive)
REMARK    1  A    between atoms: O_1  and  C_2
REMARK    2  A    between atoms: C_2  and  C_3
REMARK    3  A    between atoms: C_2  and  C_27
REMARK    4  A    between atoms: C_3  and  C_4
REMARK    5  A    between atoms: C_4  and  N_5
REMARK    6  A    between atoms: C_8  and  C_9
REMARK    7  A    between atoms: C_9  and  C_10
REMARK    8  A    between atoms: C_10  and  O_11
REMARK    9  A    between atoms: O_11  and  C_12
REMARK   10  A    between atoms: C_12  and  C_13
REMARK   11  A    between atoms: C_12  and  C_19
REMARK                            x       y       z     vdW  Elec       q    Type
REMARK                         _______ _______ _______ _____ _____    ______ ____
ROOT
ATOM      1  N   UNL     1      -0.380   0.869  -1.598  0.00  0.00    +0.000 NA
ATOM      2  C   UNL     1      -0.764   1.623  -0.386  0.00  0.00    +0.000 C 
ATOM      3  C   UNL     1      -2.174   2.220  -0.444  0.00  0.00    +0.000 C 
ATOM      4  C   UNL     1      -2.268   3.123  -1.667  0.00  0.00    +0.000 C 
ATOM      5  C   UNL     1      -2.073   2.224  -2.900  0.00  0.00    +0.000 C 
ATOM      6  C   UNL     1      -0.654   1.617  -2.850  0.00  0.00    +0.000 C 
ENDROOT
BRANCH   1   7
ATOM      7  C   UNL     1       1.081   0.571  -1.544  0.00  0.00    +0.000 C 
BRANCH   7   8
ATOM      8  C   UNL     1       1.454  -0.364  -0.380  0.00  0.00    +0.000 C 
BRANCH   8   9
ATOM      9  C   UNL     1       0.562  -1.619  -0.401  0.00  0.00    +0.000 C 
BRANCH   9  10
ATOM     10  C   UNL     1       0.868  -2.620   0.696  0.00  0.00    +0.000 A 
ATOM     11  C   UNL     1       0.806  -3.999   0.415  0.00  0.00    +0.000 A 
ATOM     12  C   UNL     1       1.040  -4.941   1.412  0.00  0.00    +0.000 A 
ATOM     13  C   UNL     1       1.350  -4.531   2.709  0.00  0.00    +0.000 A 
ATOM     14  C   UNL     1       1.414  -3.170   3.009  0.00  0.00    +0.000 A 
ATOM     15  C   UNL     1       1.163  -2.217   2.016  0.00  0.00    +0.000 A 
ENDBRANCH   9  10
BRANCH   9  16
ATOM     16  O   UNL     1       0.667  -2.239  -1.661  0.00  0.00    +0.000 OA
ATOM     17  H   UNL     1      -0.012  -1.827  -2.254  0.00  0.00    +0.000 HD
ENDBRANCH   9  16
ENDBRANCH   8   9
ENDBRANCH   7   8
ENDBRANCH   1   7
BRANCH   4  18
ATOM     18  C   UNL     1      -3.558   3.989  -1.703  0.00  0.00    +0.000 C 
BRANCH  18  19
ATOM     19  C   UNL     1      -3.724   5.050  -0.556  0.00  0.00    +0.000 C 
BRANCH  19  20
ATOM     20  O   UNL     1      -3.015   6.309  -0.650  0.00  0.00    +0.000 OA
BRANCH  20  21
ATOM     21  C   UNL     1      -1.624   6.338  -0.288  0.00  0.00    +0.000 C 
BRANCH  21  22
ATOM     22  C   UNL     1      -1.431   5.584   1.054  0.00  0.00    +0.000 A 
ATOM     23  C   UNL     1      -0.513   4.541   1.270  0.00  0.00    +0.000 A 
ATOM     24  C   UNL     1      -0.479   3.822   2.476  0.00  0.00    +0.000 A 
ATOM     25  C   UNL     1      -1.358   4.143   3.505  0.00  0.00    +0.000 A 
ATOM     26  C   UNL     1      -2.243   5.207   3.346  0.00  0.00    +0.000 A 
ATOM     27  C   UNL     1      -2.275   5.926   2.140  0.00  0.00    +0.000 A 
ENDBRANCH  21  22
BRANCH  21  28
ATOM     28  C   UNL     1      -0.803   6.020  -1.562  0.00  0.00    +0.000 A 
ATOM     29  C   UNL     1      -1.475   6.063  -2.815  0.00  0.00    +0.000 A 
ATOM     30  C   UNL     1      -0.886   5.582  -3.979  0.00  0.00    +0.000 A 
ATOM     31  C   UNL     1       0.401   5.060  -3.941  0.00  0.00    +0.000 A 
ATOM     32  C   UNL     1       1.121   5.081  -2.745  0.00  0.00    +0.000 A 
ATOM     33  C   UNL     1       0.543   5.583  -1.568  0.00  0.00    +0.000 A 
ENDBRANCH  21  28
ENDBRANCH  20  21
ENDBRANCH  19  20
ENDBRANCH  18  19
ENDBRANCH   4  18
TORSDOF 11
