REMARK  Name = 
REMARK  10 active torsions:
REMARK  status: ('A' for Active; 'I' for Inactive)
REMARK    1  A    between atoms: C_1  and  O_2
REMARK    2  A    between atoms: O_2  and  C_3
REMARK    3  A    between atoms: C_7  and  C_8
REMARK    4  A    between atoms: C_8  and  C_10
REMARK    5  A    between atoms: C_10  and  C_11
REMARK    6  A    between atoms: N_14  and  C_15
REMARK    7  A    between atoms: N_14  and  C_16
REMARK    8  A    between atoms: C_16  and  C_17
REMARK    9  A    between atoms: C_28  and  O_29
REMARK   10  A    between atoms: O_29  and  C_30
REMARK                            x       y       z     vdW  Elec       q    Type
REMARK                         _______ _______ _______ _____ _____    ______ ____
ROOT
ATOM      1  C   UNL     1      -1.050  -6.700  -4.605  0.00  0.00    +0.000 C 
ATOM      2  O   UNL     1      -2.240  -6.894  -4.429  0.00  0.00    +0.000 OA
ENDROOT
BRANCH   1   7
ATOM      3  C   UNL     1       0.814  -2.287  -0.703  0.00  0.00    +0.000 A 
ATOM      4  C   UNL     1      -0.248  -3.054  -1.230  0.00  0.00    +0.000 A 
ATOM      5  C   UNL     1       0.029  -4.055  -2.168  0.00  0.00    +0.000 A 
ATOM      6  C   UNL     1      -0.901  -4.904  -2.780  0.00  0.00    +0.000 A 
ATOM      7  C   UNL     1      -0.310  -5.761  -3.710  0.00  0.00    +0.000 A 
ATOM      8  S   UNL     1       1.363  -5.486  -3.735  0.00  0.00    +0.000 S 
ATOM      9  C   UNL     1       1.327  -4.264  -2.590  0.00  0.00    +0.000 A 
ATOM     10  C   UNL     1       2.395  -3.532  -2.088  0.00  0.00    +0.000 A 
ATOM     11  C   UNL     1       2.161  -2.544  -1.117  0.00  0.00    +0.000 A 
BRANCH   3  13
ATOM     12  C   UNL     1       0.351   0.004  -0.238  0.00  0.00    +0.000 C 
ATOM     13  O   UNL     1       0.531  -1.302   0.175  0.00  0.00    +0.000 OA
ENDBRANCH   3  13
BRANCH  11  14
ATOM     14  O   UNL     1       3.254  -1.930  -0.591  0.00  0.00    +0.000 OA
ATOM     15  C   UNL     1       3.335  -1.237   0.601  0.00  0.00    +0.000 C 
ENDBRANCH  11  14
ENDBRANCH   1   7
BRANCH   1  16
ATOM     16  C   UNL     1      -0.359  -7.349  -5.787  0.00  0.00    +0.000 C 
BRANCH  16  17
ATOM     17  C   UNL     1       0.243  -6.359  -6.789  0.00  0.00    +0.000 C 
ATOM     18  C   UNL     1       0.066  -5.034  -6.689  0.00  0.00    +0.000 C 
ATOM     19  C   UNL     1       0.834  -4.040  -7.481  0.00  0.00    +0.000 C 
ATOM     20  N   UNL     1       1.365  -4.495  -8.798  0.00  0.00    +0.000 N 
ATOM     21  C   UNL     1       2.632  -3.733  -8.995  0.00  0.00    +0.000 C 
ATOM     22  C   UNL     1       1.715  -5.959  -8.898  0.00  0.00    +0.000 C 
ATOM     23  C   UNL     1       1.107  -6.938  -7.867  0.00  0.00    +0.000 C 
BRANCH  20  24
ATOM     24  C   UNL     1       0.456  -4.082  -9.921  0.00  0.00    +0.000 C 
BRANCH  24  25
ATOM     25  C   UNL     1      -0.905  -4.766  -9.981  0.00  0.00    +0.000 A 
ATOM     26  C   UNL     1      -1.201  -5.619 -11.062  0.00  0.00    +0.000 A 
ATOM     27  C   UNL     1      -2.452  -6.234 -11.164  0.00  0.00    +0.000 A 
ATOM     28  C   UNL     1      -3.427  -6.000 -10.194  0.00  0.00    +0.000 A 
ATOM     29  C   UNL     1      -3.156  -5.144  -9.126  0.00  0.00    +0.000 A 
ATOM     30  C   UNL     1      -1.908  -4.524  -9.023  0.00  0.00    +0.000 A 
ENDBRANCH  24  25
ENDBRANCH  20  24
ENDBRANCH  16  17
ENDBRANCH   1  16
TORSDOF 7
