REMARK  Name = 
REMARK  7 active torsions:
REMARK  status: ('A' for Active; 'I' for Inactive)
REMARK    1  A    between atoms: C_1  and  C_2
REMARK    2  A    between atoms: C_2  and  C_3
REMARK    3  A    between atoms: C_2  and  N_4
REMARK    4  A    between atoms: N_4  and  C_5
REMARK    5  A    between atoms: N_4  and  C_16
REMARK    6  A    between atoms: C_5  and  C_6
REMARK    7  A    between atoms: C_11  and  C_12
REMARK                            x       y       z     vdW  Elec       q    Type
REMARK                         _______ _______ _______ _____ _____    ______ ____
ROOT
ATOM      1  N   UNL     1      -0.611   0.082  -1.932  0.00  0.00    +0.000 NA
ENDROOT
BRANCH   1   2
ATOM      2  C   UNL     1      -1.753  -0.617  -1.208  0.00  0.00    +0.000 C 
ATOM      3  C   UNL     1      -1.657  -2.183  -1.174  0.00  0.00    +0.000 C 
ATOM      4  C   UNL     1      -2.033  -2.932  -2.476  0.00  0.00    +0.000 C 
ATOM      5  N   UNL     1      -3.253  -2.402  -3.121  0.00  0.00    +0.000 NA
ATOM      6  C   UNL     1      -3.417  -0.935  -3.130  0.00  0.00    +0.000 C 
ATOM      7  C   UNL     1      -3.177  -0.324  -1.741  0.00  0.00    +0.000 C 
ATOM      8  H   UNL     1      -3.280  -2.740  -4.114  0.00  0.00    +0.000 HD
ENDBRANCH   1   2
BRANCH   1  10
ATOM      9  C   UNL     1       0.883  -0.292   0.146  0.00  0.00    +0.000 C 
ATOM     10  C   UNL     1       0.743   0.218  -1.299  0.00  0.00    +0.000 C 
ATOM     11  C   UNL     1       1.804  -0.428  -2.195  0.00  0.00    +0.000 C 
ENDBRANCH   1  10
BRANCH   1  12
ATOM     12  C   UNL     1      -0.843   1.148  -2.974  0.00  0.00    +0.000 C 
BRANCH  12  13
ATOM     13  C   UNL     1      -0.333   0.698  -4.349  0.00  0.00    +0.000 A 
ATOM     14  C   UNL     1      -0.371  -0.676  -4.584  0.00  0.00    +0.000 A 
ATOM     15  C   UNL     1       0.036  -1.276  -5.756  0.00  0.00    +0.000 A 
ATOM     16  C   UNL     1       0.534  -0.485  -6.776  0.00  0.00    +0.000 A 
ATOM     17  C   UNL     1       0.619   0.900  -6.601  0.00  0.00    +0.000 A 
ATOM     18  C   UNL     1       0.189   1.524  -5.400  0.00  0.00    +0.000 A 
BRANCH  18  19
ATOM     19  C   UNL     1       0.350   3.024  -5.348  0.00  0.00    +0.000 C 
ATOM     20  F   UNL     1       1.701   3.319  -5.420  0.00  0.00    +0.000 F 
ATOM     21  F   UNL     1      -0.286   3.582  -6.442  0.00  0.00    +0.000 F 
ATOM     22  F   UNL     1      -0.166   3.617  -4.219  0.00  0.00    +0.000 F 
ENDBRANCH  18  19
ENDBRANCH  12  13
ENDBRANCH   1  12
TORSDOF 5
