REMARK  Name = 
REMARK  4 active torsions:
REMARK  status: ('A' for Active; 'I' for Inactive)
REMARK    1  A    between atoms: C_2  and  C_10
REMARK    2  A    between atoms: N_3  and  N_4
REMARK    3  A    between atoms: C_12  and  C_13
REMARK    4  A    between atoms: N_20  and  C_21
REMARK                            x       y       z     vdW  Elec       q    Type
REMARK                         _______ _______ _______ _____ _____    ______ ____
ROOT
ATOM      1  C   UNL     1       3.023   0.424   1.616  0.00  0.00    +0.000 A 
ATOM      2  N   UNL     1       3.886   1.408   1.972  0.00  0.00    +0.000 NA
ATOM      3  C   UNL     1       4.148   1.159   3.264  0.00  0.00    +0.000 A 
ATOM      4  N   UNL     1       3.408   0.118   3.690  0.00  0.00    +0.000 N 
ATOM      5  N   UNL     1       2.694  -0.334   2.678  0.00  0.00    +0.000 NA
ENDROOT
BRANCH   4   6
ATOM      6  C   UNL     1       3.270  -0.366   5.026  0.00  0.00    +0.000 A 
ATOM      7  C   UNL     1       3.373  -1.740   5.273  0.00  0.00    +0.000 A 
ATOM      8  C   UNL     1       3.212  -2.230   6.573  0.00  0.00    +0.000 A 
ATOM      9  C   UNL     1       2.918  -1.354   7.633  0.00  0.00    +0.000 A 
ATOM     10 CL   UNL     1       2.688  -1.968   9.246  0.00  0.00    +0.000 Cl
ATOM     11  C   UNL     1       2.802   0.016   7.379  0.00  0.00    +0.000 A 
ATOM     12  C   UNL     1       2.975   0.515   6.090  0.00  0.00    +0.000 A 
ATOM     13 CL   UNL     1       2.704   2.243   5.853  0.00  0.00    +0.000 Cl
ENDBRANCH   4   6
BRANCH   3  14
ATOM     14  C   UNL     1       5.194   1.840   4.080  0.00  0.00    +0.000 A 
ATOM     15  C   UNL     1       6.057   1.040   4.855  0.00  0.00    +0.000 A 
ATOM     16  C   UNL     1       7.039   1.615   5.664  0.00  0.00    +0.000 A 
ATOM     17  C   UNL     1       7.160   3.002   5.733  0.00  0.00    +0.000 A 
ATOM     18 CL   UNL     1       8.364   3.718   6.792  0.00  0.00    +0.000 Cl
ATOM     19  C   UNL     1       6.318   3.813   4.960  0.00  0.00    +0.000 A 
ATOM     20  C   UNL     1       5.353   3.237   4.116  0.00  0.00    +0.000 A 
ENDBRANCH   3  14
BRANCH   1  22
ATOM     21  O   UNL     1       1.172   0.100   0.287  0.00  0.00    +0.000 OA
ATOM     22  C   UNL     1       2.388   0.226   0.277  0.00  0.00    +0.000 C 
ATOM     23  N   UNL     1       3.030   0.094  -0.940  0.00  0.00    +0.000 N 
ATOM     24  H   UNL     1       2.425  -0.029  -1.767  0.00  0.00    +0.000 HD
BRANCH  23  25
ATOM     25  N   UNL     1       4.409  -0.075  -1.164  0.00  0.00    +0.000 NA
ATOM     26  C   UNL     1       5.197   1.118  -0.804  0.00  0.00    +0.000 C 
ATOM     27  C   UNL     1       6.696   0.909  -0.971  0.00  0.00    +0.000 C 
ATOM     28  C   UNL     1       7.128  -0.349  -0.207  0.00  0.00    +0.000 C 
ATOM     29  C   UNL     1       6.380  -1.546  -0.786  0.00  0.00    +0.000 C 
ATOM     30  C   UNL     1       4.873  -1.352  -0.578  0.00  0.00    +0.000 C 
ENDBRANCH  23  25
ENDBRANCH   1  22
TORSDOF 4
