REMARK  Name = 
REMARK  6 active torsions:
REMARK  status: ('A' for Active; 'I' for Inactive)
REMARK    1  A    between atoms: C_1  and  C_2
REMARK    2  A    between atoms: C_5  and  C_6
REMARK    3  A    between atoms: C_12  and  C_13
REMARK    4  A    between atoms: C_15  and  C_16
REMARK    5  A    between atoms: C_16  and  C_17
REMARK    6  A    between atoms: N_26  and  C_27
REMARK                            x       y       z     vdW  Elec       q    Type
REMARK                         _______ _______ _______ _____ _____    ______ ____
ROOT
ATOM      1  C   UNL     1      -3.190  -0.285  -0.157  0.00  0.00    +0.000 C 
ATOM      2  C   UNL     1      -3.564   0.551  -1.455  0.00  0.00    +0.000 C 
ATOM      3  C   UNL     1      -5.110   0.820  -1.662  0.00  0.00    +0.000 C 
ATOM      4  C   UNL     1      -5.778   2.086  -1.109  0.00  0.00    +0.000 C 
ATOM      5  C   UNL     1      -5.948   1.848   0.399  0.00  0.00    +0.000 C 
ATOM      6  C   UNL     1      -5.517   0.376   0.554  0.00  0.00    +0.000 C 
ATOM      7  C   UNL     1      -3.933   0.428   0.957  0.00  0.00    +0.000 C 
ATOM      8  N   UNL     1      -5.822  -0.126  -0.855  0.00  0.00    +0.000 NA
ATOM      9  C   UNL     1      -5.913  -1.435  -1.546  0.00  0.00    +0.000 C 
ENDROOT
BRANCH   1  14
ATOM     10  C   UNL     1      -4.986  -5.899  -0.300  0.00  0.00    +0.000 C 
ATOM     11  C   UNL     1      -4.375  -4.540  -0.189  0.00  0.00    +0.000 A 
ATOM     12  C   UNL     1      -3.380  -4.069  -1.073  0.00  0.00    +0.000 A 
ATOM     13  C   UNL     1      -2.940  -2.727  -1.025  0.00  0.00    +0.000 A 
ATOM     14  C   UNL     1      -3.511  -1.826  -0.104  0.00  0.00    +0.000 A 
ATOM     15  C   UNL     1      -4.443  -2.389   0.831  0.00  0.00    +0.000 A 
ATOM     16  C   UNL     1      -4.860  -3.693   0.786  0.00  0.00    +0.000 A 
ENDBRANCH   1  14
BRANCH   7  17
ATOM     17  C   UNL     1      -3.414  -0.125   2.305  0.00  0.00    +0.000 A 
ATOM     18  C   UNL     1      -2.069  -0.275   2.593  0.00  0.00    +0.000 A 
ATOM     19  C   UNL     1      -2.033  -0.978   3.770  0.00  0.00    +0.000 A 
ATOM     20  N   UNL     1      -3.299  -1.181   4.192  0.00  0.00    +0.000 NA
ATOM     21  O   UNL     1      -4.098  -0.652   3.298  0.00  0.00    +0.000 OA
BRANCH  19  22
ATOM     22  C   UNL     1      -0.776  -1.462   4.434  0.00  0.00    +0.000 C 
BRANCH  22  23
ATOM     23  C   UNL     1       0.083  -0.330   4.967  0.00  0.00    +0.000 A 
ATOM     24  C   UNL     1       1.356  -0.616   5.501  0.00  0.00    +0.000 A 
ATOM     25  C   UNL     1       2.153   0.415   6.015  0.00  0.00    +0.000 A 
ATOM     26  C   UNL     1       1.690   1.736   6.004  0.00  0.00    +0.000 A 
ATOM     27 CL   UNL     1       2.672   3.029   6.662  0.00  0.00    +0.000 Cl
ATOM     28  C   UNL     1       0.432   2.028   5.478  0.00  0.00    +0.000 A 
ATOM     29  C   UNL     1      -0.360   1.012   4.962  0.00  0.00    +0.000 A 
ENDBRANCH  22  23
ENDBRANCH  19  22
ENDBRANCH   7  17
TORSDOF 4
