REMARK  Name = 
REMARK  6 active torsions:
REMARK  status: ('A' for Active; 'I' for Inactive)
REMARK    1  A    between atoms: C_5  and  C_6
REMARK    2  A    between atoms: C_6  and  N_7
REMARK    3  A    between atoms: N_7  and  C_8
REMARK    4  A    between atoms: N_7  and  C_13
REMARK    5  A    between atoms: C_8  and  C_9
REMARK    6  A    between atoms: C_19  and  C_20
REMARK                            x       y       z     vdW  Elec       q    Type
REMARK                         _______ _______ _______ _____ _____    ______ ____
ROOT
ATOM      1  N   UNL     1      -4.136   0.262  -1.147  0.00  0.00    +0.000 NA
ENDROOT
BRANCH   1   2
ATOM      2  C   UNL     1      -3.369   0.123  -2.450  0.00  0.00    +0.000 C 
ATOM      3  C   UNL     1      -2.440   1.346  -2.662  0.00  0.00    +0.000 C 
ATOM      4  C   UNL     1      -3.273   2.619  -2.619  0.00  0.00    +0.000 C 
ATOM      5  N   UNL     1      -4.260   2.640  -3.715  0.00  0.00    +0.000 NA
ATOM      6  C   UNL     1      -5.050   1.411  -3.897  0.00  0.00    +0.000 C 
ATOM      7  C   UNL     1      -4.222   0.124  -3.751  0.00  0.00    +0.000 C 
ATOM      8  H   UNL     1      -4.920   3.439  -3.550  0.00  0.00    +0.000 HD
ENDBRANCH   1   2
BRANCH   1   9
ATOM      9  C   UNL     1      -3.378   0.158   0.156  0.00  0.00    +0.000 C 
BRANCH   9  14
ATOM     10  F   UNL     1       2.300  -0.424   0.044  0.00  0.00    +0.000 F 
ATOM     11  C   UNL     1       0.950  -0.250   0.089  0.00  0.00    +0.000 A 
ATOM     12  C   UNL     1       0.106  -1.341  -0.118  0.00  0.00    +0.000 A 
ATOM     13  C   UNL     1      -1.279  -1.158  -0.100  0.00  0.00    +0.000 A 
ATOM     14  C   UNL     1      -1.858   0.098   0.140  0.00  0.00    +0.000 A 
ATOM     15  C   UNL     1      -0.978   1.223   0.376  0.00  0.00    +0.000 A 
ATOM     16  C   UNL     1       0.404   1.006   0.321  0.00  0.00    +0.000 A 
BRANCH  15  17
ATOM     17  C   UNL     1      -1.385   2.675   0.622  0.00  0.00    +0.000 C 
ATOM     18  F   UNL     1      -0.898   3.450  -0.404  0.00  0.00    +0.000 F 
ATOM     19  F   UNL     1      -2.737   2.918   0.714  0.00  0.00    +0.000 F 
ATOM     20  F   UNL     1      -0.802   3.116   1.808  0.00  0.00    +0.000 F 
ENDBRANCH  15  17
ENDBRANCH   9  14
ENDBRANCH   1   9
BRANCH   1  21
ATOM     21  C   UNL     1      -5.524  -0.320  -1.039  0.00  0.00    +0.000 C 
BRANCH  21  22
ATOM     22  C   UNL     1      -6.622   0.658  -0.488  0.00  0.00    +0.000 C 
ATOM     23  C   UNL     1      -6.559   1.271   0.916  0.00  0.00    +0.000 C 
ATOM     24  C   UNL     1      -7.146   2.561   0.337  0.00  0.00    +0.000 C 
ATOM     25  C   UNL     1      -6.748   2.073  -1.043  0.00  0.00    +0.000 C 
ENDBRANCH  21  22
ENDBRANCH   1  21
TORSDOF 6
