REMARK  Name = 
REMARK  16 active torsions:
REMARK  status: ('A' for Active; 'I' for Inactive)
REMARK    1  A    between atoms: C_1  and  C_2
REMARK    2  A    between atoms: C_2  and  C_3
REMARK    3  A    between atoms: C_2  and  C_4
REMARK    4  A    between atoms: C_4  and  C_5
REMARK    5  A    between atoms: C_5  and  O_7
REMARK    6  A    between atoms: O_7  and  C_8
REMARK    7  A    between atoms: C_11  and  C_12
REMARK    8  A    between atoms: C_12  and  C_13
REMARK    9  A    between atoms: C_13  and  N_14
REMARK   10  A    between atoms: C_13  and  C_15
REMARK   11  A    between atoms: C_19  and  O_20
REMARK   12  A    between atoms: O_20  and  C_21
REMARK   13  A    between atoms: C_21  and  C_23
REMARK   14  A    between atoms: C_23  and  C_24
REMARK   15  A    between atoms: C_24  and  C_25
REMARK   16  A    between atoms: C_24  and  C_26
REMARK                            x       y       z     vdW  Elec       q    Type
REMARK                         _______ _______ _______ _____ _____    ______ ____
ROOT
ATOM      1  C   UNL     1      -0.608   6.198  -2.825  0.00  0.00    +0.000 A 
ATOM      2  C   UNL     1      -1.572   6.724  -3.683  0.00  0.00    +0.000 A 
ATOM      3  C   UNL     1      -1.853   6.106  -4.896  0.00  0.00    +0.000 A 
ATOM      4  C   UNL     1      -1.178   4.935  -5.282  0.00  0.00    +0.000 A 
ATOM      5  C   UNL     1      -0.227   4.377  -4.412  0.00  0.00    +0.000 A 
ATOM      6  C   UNL     1       0.054   4.986  -3.177  0.00  0.00    +0.000 A 
ENDROOT
BRANCH   1   7
ATOM      7  O   UNL     1      -0.330   6.897  -1.696  0.00  0.00    +0.000 OA
BRANCH   7   8
ATOM      8  C   UNL     1       0.917   7.188  -1.235  0.00  0.00    +0.000 C 
ATOM      9  O   UNL     1       1.901   7.002  -1.940  0.00  0.00    +0.000 OA
BRANCH   8  10
ATOM     10  C   UNL     1       1.105   7.717   0.161  0.00  0.00    +0.000 C 
BRANCH  10  12
ATOM     11  C   UNL     1      -1.045   9.124   0.229  0.00  0.00    +0.000 C 
ATOM     12  C   UNL     1       0.482   9.112   0.401  0.00  0.00    +0.000 C 
ATOM     13  C   UNL     1       0.833   9.583   1.819  0.00  0.00    +0.000 C 
ENDBRANCH  10  12
ENDBRANCH   8  10
ENDBRANCH   7   8
ENDBRANCH   1   7
BRANCH   4  14
ATOM     14  C   UNL     1      -1.460   4.357  -6.651  0.00  0.00    +0.000 C 
BRANCH  14  15
ATOM     15  C   UNL     1      -2.937   3.932  -6.850  0.00  0.00    +0.000 C 
BRANCH  15  16
ATOM     16  C   UNL     1      -3.343   4.158  -8.289  0.00  0.00    +0.000 C 
ATOM     17  N   UNL     1      -4.320   5.050  -8.589  0.00  0.00    +0.000 N 
ATOM     18  O   UNL     1      -2.771   3.560  -9.188  0.00  0.00    +0.000 OA
ATOM     19  H   UNL     1      -4.588   5.231  -9.566  0.00  0.00    +0.000 HD
ATOM     20  H   UNL     1      -4.805   5.574  -7.843  0.00  0.00    +0.000 HD
ENDBRANCH  15  16
BRANCH  15  21
ATOM     21  N   UNL     1      -3.126   2.525  -6.490  0.00  0.00    +0.000 NA
ATOM     22  H   UNL     1      -4.115   2.243  -6.689  0.00  0.00    +0.000 HD
ATOM     23  H   UNL     1      -2.950   2.393  -5.469  0.00  0.00    +0.000 HD
ENDBRANCH  15  21
ENDBRANCH  14  15
ENDBRANCH   4  14
BRANCH   6  24
ATOM     24  O   UNL     1       0.956   4.390  -2.354  0.00  0.00    +0.000 OA
BRANCH  24  25
ATOM     25  C   UNL     1       0.795   4.226  -1.012  0.00  0.00    +0.000 C 
ATOM     26  O   UNL     1      -0.302   4.372  -0.489  0.00  0.00    +0.000 OA
BRANCH  25  27
ATOM     27  C   UNL     1       1.964   3.814  -0.166  0.00  0.00    +0.000 C 
BRANCH  27  28
ATOM     28  C   UNL     1       1.744   2.417   0.446  0.00  0.00    +0.000 C 
ATOM     29  C   UNL     1       1.634   1.355  -0.660  0.00  0.00    +0.000 C 
ATOM     30  C   UNL     1       2.893   2.067   1.396  0.00  0.00    +0.000 C 
ENDBRANCH  27  28
ENDBRANCH  25  27
ENDBRANCH  24  25
ENDBRANCH   6  24
TORSDOF 12
