REMARK  Name = 
REMARK  11 active torsions:
REMARK  status: ('A' for Active; 'I' for Inactive)
REMARK    1  A    between atoms: C_1  and  O_2
REMARK    2  A    between atoms: O_2  and  C_3
REMARK    3  A    between atoms: C_8  and  N_9
REMARK    4  A    between atoms: N_12  and  C_13
REMARK    5  A    between atoms: C_13  and  C_14
REMARK    6  A    between atoms: C_14  and  C_15
REMARK    7  A    between atoms: C_15  and  C_16
REMARK    8  A    between atoms: C_16  and  N_17
REMARK    9  A    between atoms: C_18  and  C_20
REMARK   10  A    between atoms: C_21  and  C_22
REMARK   11  A    between atoms: C_26  and  C_27
REMARK                            x       y       z     vdW  Elec       q    Type
REMARK                         _______ _______ _______ _____ _____    ______ ____
ROOT
ATOM      1  C   UNL     1       6.497  -0.230  -2.072  0.00  0.00    +0.000 C 
ENDROOT
BRANCH   1   2
ATOM      2  C   UNL     1       6.396  -0.731  -0.600  0.00  0.00    +0.000 C 
BRANCH   2   3
ATOM      3  C   UNL     1       5.807   0.277   0.422  0.00  0.00    +0.000 C 
BRANCH   3   7
ATOM      4  N   UNL     1       2.441  -1.204  -0.894  0.00  0.00    +0.000 N 
ATOM      5  C   UNL     1       3.320  -0.413  -1.701  0.00  0.00    +0.000 C 
ATOM      6  C   UNL     1       3.735   0.848  -0.918  0.00  0.00    +0.000 C 
ATOM      7  N   UNL     1       4.339   0.492   0.374  0.00  0.00    +0.000 NA
ATOM      8  C   UNL     1       3.485  -0.404   1.186  0.00  0.00    +0.000 C 
ATOM      9  C   UNL     1       2.982  -1.630   0.393  0.00  0.00    +0.000 C 
BRANCH   4  15
ATOM     10  C   UNL     1       0.194  -2.106  -1.256  0.00  0.00    +0.000 A 
ATOM     11  C   UNL     1      -0.668  -2.928  -1.991  0.00  0.00    +0.000 A 
ATOM     12  C   UNL     1      -0.193  -3.675  -3.077  0.00  0.00    +0.000 A 
ATOM     13  C   UNL     1       1.152  -3.625  -3.431  0.00  0.00    +0.000 A 
ATOM     14  C   UNL     1       2.032  -2.824  -2.699  0.00  0.00    +0.000 A 
ATOM     15  C   UNL     1       1.557  -2.064  -1.605  0.00  0.00    +0.000 A 
BRANCH  10  17
ATOM     16  C   UNL     1      -0.111   0.014  -0.086  0.00  0.00    +0.000 C 
ATOM     17  O   UNL     1      -0.336  -1.344  -0.261  0.00  0.00    +0.000 OA
ENDBRANCH  10  17
ENDBRANCH   4  15
ENDBRANCH   3   7
ENDBRANCH   2   3
ENDBRANCH   1   2
BRANCH   1  18
ATOM     18  C   UNL     1       7.516   0.891  -2.279  0.00  0.00    +0.000 C 
BRANCH  18  19
ATOM     19  N   UNL     1       8.708   0.327  -2.843  0.00  0.00    +0.000 N 
ATOM     20  C   UNL     1       8.845  -0.149  -4.126  0.00  0.00    +0.000 C 
ATOM     21  O   UNL     1       9.916  -0.668  -4.408  0.00  0.00    +0.000 OA
ATOM     22  H   UNL     1       9.509   0.244  -2.200  0.00  0.00    +0.000 HD
BRANCH  20  23
ATOM     23  C   UNL     1       7.849  -0.076  -5.263  0.00  0.00    +0.000 C 
ATOM     24  C   UNL     1       6.624   0.511  -5.332  0.00  0.00    +0.000 C 
BRANCH  24  25
ATOM     25  C   UNL     1       5.814   0.583  -6.579  0.00  0.00    +0.000 A 
ATOM     26  C   UNL     1       4.865   1.610  -6.693  0.00  0.00    +0.000 A 
ATOM     27  C   UNL     1       4.112   1.766  -7.855  0.00  0.00    +0.000 A 
ATOM     28  C   UNL     1       4.272   0.873  -8.914  0.00  0.00    +0.000 A 
ATOM     29  C   UNL     1       5.189  -0.190  -8.816  0.00  0.00    +0.000 A 
ATOM     30  C   UNL     1       5.976  -0.321  -7.655  0.00  0.00    +0.000 A 
BRANCH  29  31
ATOM     31  C   UNL     1       5.300  -1.163  -9.960  0.00  0.00    +0.000 C 
ATOM     32  F   UNL     1       4.065  -1.746 -10.181  0.00  0.00    +0.000 F 
ATOM     33  F   UNL     1       5.697  -0.498 -11.106  0.00  0.00    +0.000 F 
ATOM     34  F   UNL     1       6.214  -2.167  -9.690  0.00  0.00    +0.000 F 
ENDBRANCH  29  31
ENDBRANCH  24  25
ENDBRANCH  20  23
ENDBRANCH  18  19
ENDBRANCH   1  18
TORSDOF 10
