REMARK  Name = 
REMARK  4 active torsions:
REMARK  status: ('A' for Active; 'I' for Inactive)
REMARK    1  A    between atoms: C_1  and  C_2
REMARK    2  A    between atoms: C_2  and  C_4
REMARK    3  A    between atoms: C_7  and  N_8
REMARK    4  A    between atoms: C_19  and  N_20
REMARK                            x       y       z     vdW  Elec       q    Type
REMARK                         _______ _______ _______ _____ _____    ______ ____
ROOT
ATOM      1  N   UNL     1       2.080   3.576  -5.981  0.00  0.00    +0.000 NA
ATOM      2  C   UNL     1       1.767   4.727  -6.513  0.00  0.00    +0.000 A 
ATOM      3  C   UNL     1       2.937   5.334  -7.014  0.00  0.00    +0.000 A 
ATOM      4  C   UNL     1       3.892   4.763  -7.881  0.00  0.00    +0.000 A 
ATOM      5  C   UNL     1       4.860   5.604  -8.461  0.00  0.00    +0.000 A 
ATOM      6  C   UNL     1       4.880   6.979  -8.165  0.00  0.00    +0.000 A 
ATOM      7  C   UNL     1       4.084   7.466  -7.134  0.00  0.00    +0.000 A 
ATOM      8  C   UNL     1       3.205   6.613  -6.496  0.00  0.00    +0.000 A 
ATOM      9  N   UNL     1       2.666   6.947  -5.276  0.00  0.00    +0.000 N 
ATOM     10  C   UNL     1       1.360   6.678  -5.137  0.00  0.00    +0.000 A 
ATOM     11  C   UNL     1       0.655   7.724  -4.591  0.00  0.00    +0.000 A 
ATOM     12  C   UNL     1      -0.543   8.108  -5.145  0.00  0.00    +0.000 A 
ATOM     13  C   UNL     1      -0.973   7.432  -6.303  0.00  0.00    +0.000 A 
ATOM     14  C   UNL     1      -0.302   6.237  -6.719  0.00  0.00    +0.000 A 
ATOM     15  C   UNL     1       0.819   5.701  -5.986  0.00  0.00    +0.000 A 
ATOM     16  H   UNL     1       3.081   6.218  -4.643  0.00  0.00    +0.000 HD
ENDROOT
BRANCH   1  20
ATOM     17  C   UNL     1       0.807   0.994  -2.781  0.00  0.00    +0.000 A 
ATOM     18  C   UNL     1      -0.134   1.419  -3.745  0.00  0.00    +0.000 A 
ATOM     19  C   UNL     1       0.224   2.308  -4.797  0.00  0.00    +0.000 A 
ATOM     20  C   UNL     1       1.553   2.759  -4.912  0.00  0.00    +0.000 A 
ATOM     21  C   UNL     1       2.495   2.306  -3.975  0.00  0.00    +0.000 A 
ATOM     22  C   UNL     1       2.121   1.464  -2.899  0.00  0.00    +0.000 A 
BRANCH  17  24
ATOM     23  C   UNL     1       1.107   0.075  -0.338  0.00  0.00    +0.000 C 
ATOM     24  C   UNL     1       0.398   0.105  -1.654  0.00  0.00    +0.000 C 
ATOM     25  O   UNL     1      -0.559  -0.657  -1.825  0.00  0.00    +0.000 OA
ENDBRANCH  17  24
ENDBRANCH   1  20
BRANCH  12  26
ATOM     26  N   UNL     1      -1.164   9.277  -4.635  0.00  0.00    +0.000 N 
ATOM     27  H   UNL     1      -0.800   9.717  -3.774  0.00  0.00    +0.000 HD
ATOM     28  H   UNL     1      -1.987   9.697  -5.083  0.00  0.00    +0.000 HD
ENDBRANCH  12  26
TORSDOF 3
