REMARK  Name = 
REMARK  6 active torsions:
REMARK  status: ('A' for Active; 'I' for Inactive)
REMARK    1  A    between atoms: C_1  and  O_2
REMARK    2  A    between atoms: O_2  and  C_3
REMARK    3  A    between atoms: C_9  and  N_10
REMARK    4  A    between atoms: N_13  and  C_14
REMARK    5  A    between atoms: C_14  and  C_15
REMARK    6  A    between atoms: C_17  and  C_18
REMARK                            x       y       z     vdW  Elec       q    Type
REMARK                         _______ _______ _______ _____ _____    ______ ____
ROOT
ATOM      1  N   UNL     1      -5.524  -0.142  -5.563  0.00  0.00    +0.000 N 
ATOM      2  C   UNL     1      -5.813   1.275  -5.710  0.00  0.00    +0.000 C 
ATOM      3  C   UNL     1      -6.927   1.643  -4.731  0.00  0.00    +0.000 C 
ATOM      4  N   UNL     1      -6.589   1.241  -3.350  0.00  0.00    +0.000 NA
ATOM      5  C   UNL     1      -6.379  -0.224  -3.262  0.00  0.00    +0.000 C 
ATOM      6  C   UNL     1      -5.289  -0.698  -4.233  0.00  0.00    +0.000 C 
ENDROOT
BRANCH   1  13
ATOM      7  C   UNL     1      -5.641  -2.085  -6.944  0.00  0.00    +0.000 A 
ATOM      8  C   UNL     1      -5.184  -2.873  -8.010  0.00  0.00    +0.000 A 
ATOM      9  C   UNL     1      -4.097  -2.436  -8.782  0.00  0.00    +0.000 A 
ATOM     10 CL   UNL     1      -3.534  -3.416 -10.121  0.00  0.00    +0.000 Cl
ATOM     11  C   UNL     1      -3.468  -1.219  -8.488  0.00  0.00    +0.000 A 
ATOM     12  C   UNL     1      -3.933  -0.430  -7.431  0.00  0.00    +0.000 A 
ATOM     13  C   UNL     1      -5.022  -0.876  -6.664  0.00  0.00    +0.000 A 
BRANCH   7  15
ATOM     14  C   UNL     1      -7.205  -3.668  -5.930  0.00  0.00    +0.000 C 
ATOM     15  O   UNL     1      -6.698  -2.420  -6.160  0.00  0.00    +0.000 OA
ENDBRANCH   7  15
ENDBRANCH   1  13
BRANCH   4  16
ATOM     16  C   UNL     1      -5.640   2.130  -2.625  0.00  0.00    +0.000 C 
BRANCH  16  17
ATOM     17  C   UNL     1      -4.169   1.685  -2.657  0.00  0.00    +0.000 C 
ATOM     18  C   UNL     1      -3.276   2.156  -3.786  0.00  0.00    +0.000 C 
ATOM     19  C   UNL     1      -3.084   2.724  -2.371  0.00  0.00    +0.000 C 
BRANCH  19  20
ATOM     20  C   UNL     1      -1.822   2.155  -1.788  0.00  0.00    +0.000 A 
ATOM     21  C   UNL     1      -0.597   2.210  -2.478  0.00  0.00    +0.000 A 
ATOM     22  C   UNL     1       0.538   1.609  -1.926  0.00  0.00    +0.000 A 
ATOM     23  C   UNL     1       0.460   0.972  -0.682  0.00  0.00    +0.000 A 
ATOM     24  C   UNL     1      -0.754   0.936   0.010  0.00  0.00    +0.000 A 
ATOM     25  C   UNL     1      -1.891   1.524  -0.543  0.00  0.00    +0.000 A 
ENDBRANCH  19  20
ENDBRANCH  16  17
ENDBRANCH   4  16
TORSDOF 5
