REMARK  Name = 
REMARK  8 active torsions:
REMARK  status: ('A' for Active; 'I' for Inactive)
REMARK    1  A    between atoms: C_1  and  C_2
REMARK    2  A    between atoms: C_2  and  C_3
REMARK    3  A    between atoms: C_2  and  C_4
REMARK    4  A    between atoms: C_4  and  N_5
REMARK    5  A    between atoms: N_5  and  C_6
REMARK    6  A    between atoms: N_5  and  C_18
REMARK    7  A    between atoms: C_6  and  C_7
REMARK    8  A    between atoms: C_11  and  C_12
REMARK                            x       y       z     vdW  Elec       q    Type
REMARK                         _______ _______ _______ _____ _____    ______ ____
ROOT
ATOM      1  N   UNL     1      -1.608   0.517   0.866  0.00  0.00    +0.000 NA
ENDROOT
BRANCH   1   2
ATOM      2  C   UNL     1      -0.948  -0.789   1.375  0.00  0.00    +0.000 C 
ATOM      3  C   UNL     1       0.404  -0.848   0.809  0.00  0.00    +0.000 C 
ATOM      4  C   UNL     1       0.184  -1.083  -0.742  0.00  0.00    +0.000 C 
ATOM      5  N   UNL     1      -0.018  -2.502  -0.940  0.00  0.00    +0.000 NA
ATOM      6  C   UNL     1      -1.271  -2.892  -0.272  0.00  0.00    +0.000 C 
ATOM      7  C   UNL     1      -1.335  -2.330   1.172  0.00  0.00    +0.000 C 
ATOM      8  H   UNL     1      -0.157  -2.651  -1.971  0.00  0.00    +0.000 HD
ENDBRANCH   1   2
BRANCH   1   9
ATOM      9  C   UNL     1      -0.952   1.575  -0.063  0.00  0.00    +0.000 C 
BRANCH   9  11
ATOM     10  C   UNL     1       2.036   1.394  -0.426  0.00  0.00    +0.000 C 
ATOM     11  C   UNL     1       0.627   2.130  -0.162  0.00  0.00    +0.000 C 
ATOM     12  C   UNL     1       0.618   3.084  -1.374  0.00  0.00    +0.000 C 
ENDBRANCH   9  11
ENDBRANCH   1   9
BRANCH   1  13
ATOM     13  C   UNL     1      -3.117   0.636   0.994  0.00  0.00    +0.000 C 
BRANCH  13  14
ATOM     14  C   UNL     1      -3.803  -0.088  -0.142  0.00  0.00    +0.000 A 
ATOM     15  C   UNL     1      -3.886   0.550  -1.393  0.00  0.00    +0.000 A 
ATOM     16  C   UNL     1      -4.338  -0.152  -2.512  0.00  0.00    +0.000 A 
ATOM     17  C   UNL     1      -4.613  -1.507  -2.417  0.00  0.00    +0.000 A 
ATOM     18  C   UNL     1      -4.554  -2.176  -1.177  0.00  0.00    +0.000 A 
ATOM     19  C   UNL     1      -4.264  -1.426  -0.011  0.00  0.00    +0.000 A 
ATOM     20 CL   UNL     1      -4.508  -2.112   1.603  0.00  0.00    +0.000 Cl
BRANCH  18  21
ATOM     21  C   UNL     1      -4.688  -3.687  -1.209  0.00  0.00    +0.000 C 
ATOM     22  F   UNL     1      -5.943  -4.086  -1.606  0.00  0.00    +0.000 F 
ATOM     23  F   UNL     1      -3.756  -4.178  -2.106  0.00  0.00    +0.000 F 
ATOM     24  F   UNL     1      -4.386  -4.279   0.013  0.00  0.00    +0.000 F 
ENDBRANCH  18  21
ENDBRANCH  13  14
ENDBRANCH   1  13
TORSDOF 6
