REMARK  Name = 
REMARK  11 active torsions:
REMARK  status: ('A' for Active; 'I' for Inactive)
REMARK    1  A    between atoms: C_1  and  O_2
REMARK    2  A    between atoms: O_2  and  C_3
REMARK    3  A    between atoms: C_6  and  C_7
REMARK    4  A    between atoms: C_15  and  O_16
REMARK    5  A    between atoms: O_16  and  C_17
REMARK    6  A    between atoms: N_18  and  C_19
REMARK    7  A    between atoms: C_19  and  C_20
REMARK    8  A    between atoms: C_20  and  N_21
REMARK    9  A    between atoms: N_21  and  C_22
REMARK   10  A    between atoms: N_21  and  C_23
REMARK   11  A    between atoms: C_26  and  C_27
REMARK                            x       y       z     vdW  Elec       q    Type
REMARK                         _______ _______ _______ _____ _____    ______ ____
ROOT
ATOM      1  C   UNL     1       1.808   2.761  -4.570  0.00  0.00    +0.000 C 
ATOM      2  C   UNL     1       2.215   3.808  -3.407  0.00  0.00    +0.000 C 
ATOM      3  C   UNL     1       2.413   5.343  -3.376  0.00  0.00    +0.000 A 
ATOM      4  C   UNL     1       2.086   6.185  -4.485  0.00  0.00    +0.000 A 
ATOM      5  C   UNL     1       2.278   7.569  -4.418  0.00  0.00    +0.000 A 
ATOM      6  C   UNL     1       2.732   8.155  -3.247  0.00  0.00    +0.000 A 
ATOM      7  C   UNL     1       3.031   7.372  -2.137  0.00  0.00    +0.000 A 
ATOM      8 BR   UNL     1       3.636   8.253  -0.542  0.00  0.00    +0.000 Br
ATOM      9  C   UNL     1       2.905   5.974  -2.173  0.00  0.00    +0.000 A 
ATOM     10  N   UNL     1       1.536   5.588  -5.647  0.00  0.00    +0.000 N 
ATOM     11  C   UNL     1       0.538   4.689  -5.433  0.00  0.00    +0.000 C 
ATOM     12  O   UNL     1      -0.215   4.835  -4.475  0.00  0.00    +0.000 OA
ATOM     13  C   UNL     1       0.861   3.286  -5.760  0.00  0.00    +0.000 C 
ATOM     14  C   UNL     1      -0.401   2.545  -6.223  0.00  0.00    +0.000 C 
ENDROOT
BRANCH   1  18
ATOM     15  C   UNL     1       0.931  -0.507  -1.815  0.00  0.00    +0.000 A 
ATOM     16  C   UNL     1      -0.089  -0.028  -2.631  0.00  0.00    +0.000 A 
ATOM     17  C   UNL     1       0.166   0.966  -3.575  0.00  0.00    +0.000 A 
ATOM     18  C   UNL     1       1.465   1.488  -3.755  0.00  0.00    +0.000 A 
ATOM     19  C   UNL     1       2.504   0.916  -2.979  0.00  0.00    +0.000 A 
ATOM     20  C   UNL     1       2.240  -0.055  -2.014  0.00  0.00    +0.000 A 
BRANCH  15  22
ATOM     21  C   UNL     1       0.990  -1.093   0.498  0.00  0.00    +0.000 C 
ATOM     22  O   UNL     1       0.610  -1.349  -0.806  0.00  0.00    +0.000 OA
ENDBRANCH  15  22
ENDBRANCH   1  18
BRANCH   9  23
ATOM     23  O   UNL     1       3.272   5.344  -1.012  0.00  0.00    +0.000 OA
ATOM     24  C   UNL     1       3.587   4.030  -0.716  0.00  0.00    +0.000 C 
ENDBRANCH   9  23
BRANCH  10  25
ATOM     25  C   UNL     1       2.090   5.850  -6.979  0.00  0.00    +0.000 C 
BRANCH  25  26
ATOM     26  C   UNL     1       3.599   5.569  -7.076  0.00  0.00    +0.000 C 
BRANCH  26  27
ATOM     27  N   UNL     1       3.877   4.131  -6.875  0.00  0.00    +0.000 NA
ATOM     28  C   UNL     1       4.157   3.445  -8.149  0.00  0.00    +0.000 C 
ATOM     29  C   UNL     1       4.980   3.917  -5.929  0.00  0.00    +0.000 C 
ENDBRANCH  26  27
ENDBRANCH  25  26
ENDBRANCH  10  25
TORSDOF 6
