REMARK  Name = 
REMARK  4 active torsions:
REMARK  status: ('A' for Active; 'I' for Inactive)
REMARK    1  A    between atoms: C_7  and  N_8
REMARK    2  A    between atoms: N_11  and  C_12
REMARK    3  A    between atoms: C_12  and  C_13
REMARK    4  A    between atoms: C_15  and  C_16
REMARK                            x       y       z     vdW  Elec       q    Type
REMARK                         _______ _______ _______ _____ _____    ______ ____
ROOT
ATOM      1  N   UNL     1       3.245  -6.832   2.419  0.00  0.00    +0.000 N 
ATOM      2  C   UNL     1       4.056  -6.456   1.272  0.00  0.00    +0.000 C 
ATOM      3  C   UNL     1       4.029  -7.566   0.232  0.00  0.00    +0.000 C 
ATOM      4  N   UNL     1       2.651  -7.916  -0.147  0.00  0.00    +0.000 NA
ATOM      5  C   UNL     1       1.883  -8.373   1.032  0.00  0.00    +0.000 C 
ATOM      6  C   UNL     1       1.897  -7.346   2.187  0.00  0.00    +0.000 C 
ENDROOT
BRANCH   1  13
ATOM      7 CL   UNL     1       4.052  -7.013   7.472  0.00  0.00    +0.000 Cl
ATOM      8  C   UNL     1       3.853  -6.094   5.995  0.00  0.00    +0.000 A 
ATOM      9  C   UNL     1       4.032  -4.709   5.987  0.00  0.00    +0.000 A 
ATOM     10  C   UNL     1       3.899  -3.990   4.793  0.00  0.00    +0.000 A 
ATOM     11 CL   UNL     1       4.119  -2.248   4.796  0.00  0.00    +0.000 Cl
ATOM     12  C   UNL     1       3.615  -4.666   3.597  0.00  0.00    +0.000 A 
ATOM     13  C   UNL     1       3.443  -6.072   3.606  0.00  0.00    +0.000 A 
ATOM     14  C   UNL     1       3.544  -6.767   4.814  0.00  0.00    +0.000 A 
ENDBRANCH   1  13
BRANCH   4  15
ATOM     15  C   UNL     1       1.993  -7.004  -1.125  0.00  0.00    +0.000 C 
BRANCH  15  16
ATOM     16  C   UNL     1       1.124  -5.918  -0.489  0.00  0.00    +0.000 C 
ATOM     17  C   UNL     1       1.736  -4.562  -0.218  0.00  0.00    +0.000 C 
ATOM     18  C   UNL     1       0.696  -4.706  -1.335  0.00  0.00    +0.000 C 
BRANCH  18  19
ATOM     19  C   UNL     1      -0.622  -4.130  -0.889  0.00  0.00    +0.000 A 
ATOM     20  C   UNL     1      -0.712  -2.878  -0.259  0.00  0.00    +0.000 A 
ATOM     21  C   UNL     1      -1.951  -2.421   0.205  0.00  0.00    +0.000 A 
ATOM     22  C   UNL     1      -3.096  -3.201   0.020  0.00  0.00    +0.000 A 
ATOM     23  C   UNL     1      -3.009  -4.438  -0.626  0.00  0.00    +0.000 A 
ATOM     24  C   UNL     1      -1.774  -4.903  -1.071  0.00  0.00    +0.000 A 
ENDBRANCH  18  19
ENDBRANCH  15  16
ENDBRANCH   4  15
TORSDOF 4
