REMARK  Name = 
REMARK  15 active torsions:
REMARK  status: ('A' for Active; 'I' for Inactive)
REMARK    1  A    between atoms: C_1  and  C_2
REMARK    2  A    between atoms: C_2  and  C_3
REMARK    3  A    between atoms: C_3  and  C_4
REMARK    4  A    between atoms: C_4  and  N_5
REMARK    5  A    between atoms: N_5  and  C_6
REMARK    6  A    between atoms: N_5  and  C_10
REMARK    7  A    between atoms: C_6  and  C_7
REMARK    8  A    between atoms: C_7  and  C_8
REMARK    9  A    between atoms: C_8  and  C_9
REMARK   10  A    between atoms: C_10  and  C_11
REMARK   11  A    between atoms: C_11  and  C_12
REMARK   12  A    between atoms: C_12  and  O_13
REMARK   13  A    between atoms: O_13  and  C_14
REMARK   14  A    between atoms: C_17  and  C_18
REMARK   15  A    between atoms: C_23  and  C_24
REMARK                            x       y       z     vdW  Elec       q    Type
REMARK                         _______ _______ _______ _____ _____    ______ ____
ROOT
ATOM      1  C   UNL     1       1.715   2.196   1.219  0.00  0.00    +0.000 A 
ATOM      2  C   UNL     1       2.706   2.592   2.170  0.00  0.00    +0.000 A 
ATOM      3  C   UNL     1       2.416   3.566   3.225  0.00  0.00    +0.000 A 
ATOM      4  C   UNL     1       1.139   4.108   3.402  0.00  0.00    +0.000 A 
ATOM      5  C   UNL     1       0.193   3.734   2.513  0.00  0.00    +0.000 A 
ATOM      6  C   UNL     1       0.462   2.914   1.543  0.00  0.00    +0.000 A 
ENDROOT
BRANCH   4   7
ATOM      7  C   UNL     1       0.488   5.154   4.173  0.00  0.00    +0.000 A 
ATOM      8  C   UNL     1       0.563   6.460   3.720  0.00  0.00    +0.000 A 
ATOM      9  N   UNL     1      -0.477   7.120   4.221  0.00  0.00    +0.000 N 
ATOM     10  C   UNL     1      -0.804   8.437   4.072  0.00  0.00    +0.000 A 
ATOM     11  C   UNL     1      -1.913   8.903   4.763  0.00  0.00    +0.000 A 
ATOM     12  C   UNL     1      -2.710   8.009   5.517  0.00  0.00    +0.000 A 
ATOM     13  C   UNL     1      -3.837   8.529   6.351  0.00  0.00    +0.000 C 
ATOM     14  C   UNL     1      -2.397   6.630   5.539  0.00  0.00    +0.000 A 
ATOM     15  C   UNL     1      -1.219   6.240   4.901  0.00  0.00    +0.000 A 
ATOM     16  N   UNL     1      -0.688   5.002   4.860  0.00  0.00    +0.000 NA
ENDBRANCH   4   7
BRANCH   1  17
ATOM     17  O   UNL     1       1.996   1.213   0.100  0.00  0.00    +0.000 OA
BRANCH  17  18
ATOM     18  C   UNL     1       1.667   0.370  -1.149  0.00  0.00    +0.000 C 
BRANCH  18  19
ATOM     19  C   UNL     1       0.178  -0.335  -1.878  0.00  0.00    +0.000 C 
BRANCH  19  20
ATOM     20  C   UNL     1      -1.385   0.302  -2.107  0.00  0.00    +0.000 C 
BRANCH  20  21
ATOM     21  N   UNL     1      -1.439   1.543  -2.831  0.00  0.00    +0.000 NA
BRANCH  21  22
ATOM     22  C   UNL     1      -0.240   2.219  -2.466  0.00  0.00    +0.000 C 
BRANCH  22  23
ATOM     23  C   UNL     1      -0.229   2.139  -0.871  0.00  0.00    +0.000 C 
BRANCH  23  25
ATOM     24  C   UNL     1       0.276  -0.602   0.969  0.00  0.00    +0.000 C 
ATOM     25  C   UNL     1      -0.540   0.726   0.416  0.00  0.00    +0.000 C 
ENDBRANCH  23  25
ENDBRANCH  22  23
ENDBRANCH  21  22
BRANCH  21  26
ATOM     26  C   UNL     1      -1.909   1.530  -4.210  0.00  0.00    +0.000 C 
BRANCH  26  27
ATOM     27  C   UNL     1      -1.640   0.201  -4.955  0.00  0.00    +0.000 C 
BRANCH  27  28
ATOM     28  C   UNL     1      -2.272  -1.112  -4.378  0.00  0.00    +0.000 C 
ATOM     29  C   UNL     1      -3.752  -0.974  -3.930  0.00  0.00    +0.000 C 
ENDBRANCH  27  28
ENDBRANCH  26  27
ENDBRANCH  21  26
ENDBRANCH  20  21
ENDBRANCH  19  20
ENDBRANCH  18  19
ENDBRANCH  17  18
ENDBRANCH   1  17
TORSDOF 12
