REMARK  Name = 
REMARK  6 active torsions:
REMARK  status: ('A' for Active; 'I' for Inactive)
REMARK    1  A    between atoms: N_8  and  C_9
REMARK    2  A    between atoms: C_9  and  C_10
REMARK    3  A    between atoms: C_10  and  C_11
REMARK    4  A    between atoms: C_11  and  C_12
REMARK    5  A    between atoms: C_12  and  C_13
REMARK    6  A    between atoms: C_13  and  N_14
REMARK                            x       y       z     vdW  Elec       q    Type
REMARK                         _______ _______ _______ _____ _____    ______ ____
ROOT
ATOM      1  C   UNL     1       3.246   3.816   0.575  0.00  0.00    +0.000 C 
ENDROOT
BRANCH   1   2
ATOM      2  C   UNL     1       2.182   4.367   1.566  0.00  0.00    +0.000 C 
BRANCH   2   3
ATOM      3  C   UNL     1       1.376   5.593   1.078  0.00  0.00    +0.000 C 
BRANCH   3  11
ATOM      4  C   UNL     1      -0.452  -1.552   0.084  0.00  0.00    +0.000 A 
ATOM      5  C   UNL     1       0.676  -0.797  -0.186  0.00  0.00    +0.000 A 
ATOM      6  N   UNL     1       0.548   0.535  -0.355  0.00  0.00    +0.000 NA
ATOM      7  C   UNL     1      -0.648   1.185  -0.229  0.00  0.00    +0.000 A 
ATOM      8  N   UNL     1      -0.675   2.618  -0.349  0.00  0.00    +0.000 N 
ATOM      9  C   UNL     1       0.509   3.137  -1.007  0.00  0.00    +0.000 C 
ATOM     10  C   UNL     1       0.542   4.666  -1.154  0.00  0.00    +0.000 C 
ATOM     11  N   UNL     1       0.255   5.327   0.122  0.00  0.00    +0.000 NA
ATOM     12  C   UNL     1      -1.058   4.886   0.650  0.00  0.00    +0.000 C 
ATOM     13  C   UNL     1      -1.169   3.349   0.822  0.00  0.00    +0.000 C 
ATOM     14  N   UNL     1      -1.760   0.462   0.070  0.00  0.00    +0.000 NA
ATOM     15  C   UNL     1      -1.682  -0.896   0.201  0.00  0.00    +0.000 A 
ENDBRANCH   3  11
ENDBRANCH   2   3
ENDBRANCH   1   2
BRANCH   1  16
ATOM     16  C   UNL     1       4.589   4.522   0.556  0.00  0.00    +0.000 C 
BRANCH  16  17
ATOM     17  C   UNL     1       5.368   4.379   1.864  0.00  0.00    +0.000 C 
BRANCH  17  18
ATOM     18  N   UNL     1       5.599   2.969   2.132  0.00  0.00    +0.000 N 
ATOM     19  C   UNL     1       6.881   2.369   2.047  0.00  0.00    +0.000 C 
ATOM     20  N   UNL     1       6.955   1.120   1.717  0.00  0.00    +0.000 NA
ATOM     21  C   UNL     1       8.196   0.464   1.559  0.00  0.00    +0.000 A 
ATOM     22  C   UNL     1       8.259  -0.855   1.084  0.00  0.00    +0.000 A 
ATOM     23  C   UNL     1       9.508  -1.460   0.924  0.00  0.00    +0.000 A 
ATOM     24  C   UNL     1      10.680  -0.769   1.229  0.00  0.00    +0.000 A 
ATOM     25  C   UNL     1      10.610   0.544   1.699  0.00  0.00    +0.000 A 
ATOM     26  C   UNL     1       9.370   1.163   1.846  0.00  0.00    +0.000 A 
ATOM     27  O   UNL     1       9.303   2.446   2.252  0.00  0.00    +0.000 OA
ATOM     28  C   UNL     1       8.132   3.183   2.329  0.00  0.00    +0.000 C 
ATOM     29  H   UNL     1       4.796   2.338   2.256  0.00  0.00    +0.000 HD
ENDBRANCH  17  18
ENDBRANCH  16  17
ENDBRANCH   1  16
TORSDOF 6
