REMARK  Name = 
REMARK  7 active torsions:
REMARK  status: ('A' for Active; 'I' for Inactive)
REMARK    1  A    between atoms: C_1  and  C_2
REMARK    2  A    between atoms: C_2  and  C_3
REMARK    3  A    between atoms: C_3  and  N_4
REMARK    4  A    between atoms: N_4  and  C_5
REMARK    5  A    between atoms: N_4  and  C_17
REMARK    6  A    between atoms: C_5  and  C_6
REMARK    7  A    between atoms: C_12  and  C_13
REMARK                            x       y       z     vdW  Elec       q    Type
REMARK                         _______ _______ _______ _____ _____    ______ ____
ROOT
ATOM      1  C   UNL     1       0.987  -4.109  -0.110  0.00  0.00    +0.000 C 
ENDROOT
BRANCH   1   2
ATOM      2  C   UNL     1       2.439  -4.594  -0.321  0.00  0.00    +0.000 A 
ATOM      3  C   UNL     1       3.121  -5.071   0.829  0.00  0.00    +0.000 A 
ATOM      4  C   UNL     1       4.510  -5.229   0.825  0.00  0.00    +0.000 A 
ATOM      5  C   UNL     1       5.236  -4.963  -0.328  0.00  0.00    +0.000 A 
ATOM      6  F   UNL     1       6.591  -5.039  -0.316  0.00  0.00    +0.000 F 
ATOM      7  C   UNL     1       4.572  -4.646  -1.506  0.00  0.00    +0.000 A 
ATOM      8  C   UNL     1       3.173  -4.512  -1.548  0.00  0.00    +0.000 A 
BRANCH   8   9
ATOM      9  C   UNL     1       2.575  -4.349  -2.932  0.00  0.00    +0.000 C 
ATOM     10  F   UNL     1       2.820  -3.085  -3.432  0.00  0.00    +0.000 F 
ATOM     11  F   UNL     1       3.176  -5.269  -3.778  0.00  0.00    +0.000 F 
ATOM     12  F   UNL     1       1.228  -4.660  -2.973  0.00  0.00    +0.000 F 
ENDBRANCH   8   9
ENDBRANCH   1   2
BRANCH   1  13
ATOM     13  N   UNL     1       0.848  -2.594  -0.065  0.00  0.00    +0.000 NA
BRANCH  13  14
ATOM     14  C   UNL     1       1.476  -1.907   1.151  0.00  0.00    +0.000 C 
ATOM     15  C   UNL     1       1.137  -0.410   1.374  0.00  0.00    +0.000 C 
ATOM     16  C   UNL     1       1.955   0.555   0.467  0.00  0.00    +0.000 C 
ATOM     17  N   UNL     1       3.400   0.344   0.621  0.00  0.00    +0.000 NA
ATOM     18  C   UNL     1       3.777  -1.036   0.361  0.00  0.00    +0.000 C 
ATOM     19  C   UNL     1       3.018  -1.943   1.326  0.00  0.00    +0.000 C 
ATOM     20  H   UNL     1       3.912   0.962  -0.047  0.00  0.00    +0.000 HD
ENDBRANCH  13  14
BRANCH  13  21
ATOM     21  C   UNL     1       0.821  -1.915  -1.395  0.00  0.00    +0.000 C 
BRANCH  21  23
ATOM     22  C   UNL     1      -1.069  -0.063  -0.956  0.00  0.00    +0.000 C 
ATOM     23  C   UNL     1      -0.485  -1.177  -1.819  0.00  0.00    +0.000 C 
ENDBRANCH  21  23
ENDBRANCH  13  21
ENDBRANCH   1  13
TORSDOF 6
