REMARK  Name = 
REMARK  37 active torsions:
REMARK  status: ('A' for Active; 'I' for Inactive)
REMARK    1  A    between atoms: C_1  and  C_2
REMARK    2  A    between atoms: C_2  and  C_3
REMARK    3  A    between atoms: C_2  and  C_4
REMARK    4  A    between atoms: C_4  and  C_5
REMARK    5  A    between atoms: C_5  and  N_6
REMARK    6  A    between atoms: C_5  and  C_72
REMARK    7  A    between atoms: C_7  and  C_9
REMARK    8  A    between atoms: C_9  and  C_10
REMARK    9  A    between atoms: C_9  and  N_21
REMARK   10  A    between atoms: C_10  and  C_11
REMARK   11  A    between atoms: C_22  and  C_24
REMARK   12  A    between atoms: C_24  and  C_25
REMARK   13  A    between atoms: C_24  and  N_33
REMARK   14  A    between atoms: C_25  and  C_26
REMARK   15  A    between atoms: C_29  and  O_30
REMARK   16  A    between atoms: C_34  and  CA_36
REMARK   17  A    between atoms: CA_36  and  C_37
REMARK   18  A    between atoms: CA_36  and  N_39
REMARK   19  A    between atoms: C_37  and  O_38
REMARK   20  A    between atoms: C_40  and  CA_42
REMARK   21  A    between atoms: CA_42  and  CB_43
REMARK   22  A    between atoms: CA_42  and  N_53
REMARK   23  A    between atoms: CB_43  and  CG_44
REMARK   24  A    between atoms: C_54  and  CA_56
REMARK   25  A    between atoms: CA_56  and  CB_57
REMARK   26  A    between atoms: CA_56  and  N_63
REMARK   27  A    between atoms: CB_57  and  CG_58
REMARK   28  A    between atoms: C_64  and  CA_66
REMARK   29  A    between atoms: N_74  and  C_75
REMARK   30  A    between atoms: C_75  and  C_76
REMARK   31  A    between atoms: C_75  and  C_83
REMARK   32  A    between atoms: C_76  and  C_77
REMARK   33  A    between atoms: C_77  and  C_78
REMARK   34  A    between atoms: C_78  and  N_79
REMARK   35  A    between atoms: C_89  and  C_90
REMARK   36  A    between atoms: N_92  and  C_93
REMARK   37  A    between atoms: C_93  and  C_94
REMARK                            x       y       z     vdW  Elec       q    Type
REMARK                         _______ _______ _______ _____ _____    ______ ____
ROOT
ATOM      1  N   UNL     1      -1.014   4.882  -8.641  0.00  0.00    +0.000 N 
ATOM      2  C   UNL     1      -0.739   6.006  -7.931  0.00  0.00    +0.000 C 
ATOM      3  O   UNL     1      -0.898   5.968  -6.720  0.00  0.00    +0.000 OA
ATOM      4  H   UNL     1      -1.199   4.050  -8.080  0.00  0.00    +0.000 HD
ENDROOT
BRANCH   2   5
ATOM      5  C   UNL     1      -0.303   7.292  -8.510  0.00  0.00    +0.000 C 
BRANCH   5   6
ATOM      6  N   UNL     1       0.943   7.069  -9.256  0.00  0.00    +0.000 N 
ATOM      7  C   UNL     1       2.160   7.348  -8.759  0.00  0.00    +0.000 C 
ATOM      8  O   UNL     1       3.153   6.918  -9.336  0.00  0.00    +0.000 OA
ATOM      9  H   UNL     1       0.964   6.539 -10.127  0.00  0.00    +0.000 HD
BRANCH   7  10
ATOM     10  CA  UNL     1       2.298   8.113  -7.485  0.00  0.00    +0.000 C 
BRANCH  10  11
ATOM     11  N   UNL     1       1.952   9.528  -7.657  0.00  0.00    +0.000 N 
ATOM     12  C   UNL     1       2.781  10.516  -8.195  0.00  0.00    +0.000 C 
ATOM     13  O   UNL     1       2.369  11.667  -8.125  0.00  0.00    +0.000 OA
ATOM     14  H   UNL     1       1.034   9.828  -7.288  0.00  0.00    +0.000 HD
BRANCH  12  15
ATOM     15  CA  UNL     1       4.252  10.345  -8.789  0.00  0.00    +0.000 C 
BRANCH  15  16
ATOM     16  N   UNL     1       4.795   8.993  -8.751  0.00  0.00    +0.000 N 
ATOM     17  C   UNL     1       5.348   8.314  -7.671  0.00  0.00    +0.000 C 
ATOM     18  O   UNL     1       5.674   7.148  -7.849  0.00  0.00    +0.000 OA
ATOM     19  H   UNL     1       4.760   8.508  -9.659  0.00  0.00    +0.000 HD
BRANCH  17  20
ATOM     20  CA  UNL     1       5.534   8.874  -6.227  0.00  0.00    +0.000 C 
BRANCH  20  21
ATOM     21  N   UNL     1       5.270  10.283  -6.131  0.00  0.00    +0.000 N 
ATOM     22  C   UNL     1       6.202  11.280  -5.996  0.00  0.00    +0.000 C 
ATOM     23  O   UNL     1       5.798  12.417  -5.861  0.00  0.00    +0.000 OA
ATOM     24  H   UNL     1       4.270  10.551  -6.112  0.00  0.00    +0.000 HD
BRANCH  22  25
ATOM     25  CA  UNL     1       7.690  11.042  -6.069  0.00  0.00    +0.000 C 
ATOM     26  C   UNL     1       8.142  10.702  -7.504  0.00  0.00    +0.000 C 
ATOM     27  C   UNL     1       9.352   9.800  -7.294  0.00  0.00    +0.000 C 
ATOM     28  C   UNL     1       8.967   9.148  -6.018  0.00  0.00    +0.000 C 
ATOM     29  O   UNL     1       9.395   8.073  -5.627  0.00  0.00    +0.000 OA
ATOM     30  N   UNL     1       8.126   9.910  -5.295  0.00  0.00    +0.000 N 
ATOM     31  H   UNL     1       7.774   9.665  -4.359  0.00  0.00    +0.000 HD
ENDBRANCH  22  25
ENDBRANCH  20  21
BRANCH  20  32
ATOM     32  CB  UNL     1       4.828   8.255  -4.983  0.00  0.00    +0.000 C 
BRANCH  32  33
ATOM     33  CG  UNL     1       5.162   8.991  -3.709  0.00  0.00    +0.000 A 
ATOM     34  CD2 UNL     1       5.930   8.563  -2.654  0.00  0.00    +0.000 A 
ATOM     35  NE2 UNL     1       5.986   9.547  -1.730  0.00  0.00    +0.000 NA
ATOM     36  CE1 UNL     1       5.231  10.547  -2.232  0.00  0.00    +0.000 A 
ATOM     37  ND1 UNL     1       4.704  10.229  -3.419  0.00  0.00    +0.000 N 
ATOM     38  HD1 UNL     1       4.068  10.836  -3.979  0.00  0.00    +0.000 HD
ENDBRANCH  32  33
ENDBRANCH  20  32
ENDBRANCH  17  20
ENDBRANCH  15  16
BRANCH  15  39
ATOM     39  CB  UNL     1       4.827  11.134 -10.050  0.00  0.00    +0.000 C 
BRANCH  39  40
ATOM     40  CG  UNL     1       4.025  11.320 -11.277  0.00  0.00    +0.000 A 
ATOM     41  CD1 UNL     1       2.686  11.551 -11.249  0.00  0.00    +0.000 A 
ATOM     42  NE1 UNL     1       2.207  11.878 -12.456  0.00  0.00    +0.000 N 
ATOM     43  CE2 UNL     1       3.210  11.855 -13.294  0.00  0.00    +0.000 A 
ATOM     44  CZ2 UNL     1       3.092  12.157 -14.607  0.00  0.00    +0.000 A 
ATOM     45  CH2 UNL     1       4.255  12.172 -15.354  0.00  0.00    +0.000 A 
ATOM     46  CZ3 UNL     1       5.494  11.896 -14.730  0.00  0.00    +0.000 A 
ATOM     47  CE3 UNL     1       5.564  11.574 -13.339  0.00  0.00    +0.000 A 
ATOM     48  CD2 UNL     1       4.361  11.551 -12.633  0.00  0.00    +0.000 A 
ATOM     49  HE1 UNL     1       1.275  12.155 -12.804  0.00  0.00    +0.000 HD
ENDBRANCH  39  40
ENDBRANCH  15  39
ENDBRANCH  12  15
ENDBRANCH  10  11
BRANCH  10  50
ATOM     50  C   UNL     1       1.831   7.336  -6.208  0.00  0.00    +0.000 C 
BRANCH  50  51
ATOM     51  O   UNL     1       1.463   6.024  -6.474  0.00  0.00    +0.000 OA
ATOM     52  H   UNL     1       1.097   5.674  -5.614  0.00  0.00    +0.000 HD
ENDBRANCH  50  51
ENDBRANCH  10  50
ENDBRANCH   7  10
ENDBRANCH   5   6
BRANCH   5  53
ATOM     53  C   UNL     1      -1.408   7.910  -9.302  0.00  0.00    +0.000 C 
BRANCH  53  54
ATOM     54  C   UNL     1      -1.037   9.236  -9.718  0.00  0.00    +0.000 A 
ATOM     55  C   UNL     1      -0.474   9.381 -10.968  0.00  0.00    +0.000 A 
ATOM     56  C   UNL     1      -0.133  10.628 -11.396  0.00  0.00    +0.000 A 
ATOM     57  C   UNL     1      -0.306  11.764 -10.525  0.00  0.00    +0.000 A 
ATOM     58  C   UNL     1      -0.858  11.574  -9.273  0.00  0.00    +0.000 A 
ATOM     59  C   UNL     1      -1.234  10.315  -8.865  0.00  0.00    +0.000 A 
BRANCH  57  60
ATOM     60  O   UNL     1       0.072  13.045 -10.762  0.00  0.00    +0.000 OA
ATOM     61  H   UNL     1       0.708  13.413 -11.375  0.00  0.00    +0.000 HD
ENDBRANCH  57  60
ENDBRANCH  53  54
ENDBRANCH   5  53
ENDBRANCH   2   5
BRANCH   1  62
ATOM     62  C   UNL     1      -1.173   4.734 -10.066  0.00  0.00    +0.000 C 
BRANCH  62  64
ATOM     63  N   UNL     1      -0.594   2.165 -10.151  0.00  0.00    +0.000 N 
ATOM     64  C   UNL     1      -0.344   3.470 -10.481  0.00  0.00    +0.000 C 
ATOM     65  O   UNL     1       0.694   3.684 -11.097  0.00  0.00    +0.000 OA
ATOM     66  H   UNL     1       0.133   1.482 -10.401  0.00  0.00    +0.000 HD
BRANCH  63  67
ATOM     67  C   UNL     1      -1.779   1.634  -9.519  0.00  0.00    +0.000 C 
BRANCH  67  68
ATOM     68  C   UNL     1      -1.650   0.136  -9.278  0.00  0.00    +0.000 C 
ATOM     69  O   UNL     1      -1.713  -0.233  -8.114  0.00  0.00    +0.000 OA
ATOM     70  N   UNL     1      -1.508  -0.817 -10.273  0.00  0.00    +0.000 N 
ATOM     71  H   UNL     1      -1.436  -1.784  -9.944  0.00  0.00    +0.000 HD
BRANCH  70  72
ATOM     72  C   UNL     1      -1.352  -0.549 -11.722  0.00  0.00    +0.000 C 
BRANCH  72  73
ATOM     73  C   UNL     1      -2.475  -1.040 -12.756  0.00  0.00    +0.000 C 
ATOM     74  O   UNL     1      -2.389  -0.476 -13.839  0.00  0.00    +0.000 OA
ATOM     75  N   UNL     1      -3.512  -1.990 -12.617  0.00  0.00    +0.000 N 
ATOM     76  C   UNL     1      -3.759  -2.878 -11.485  0.00  0.00    +0.000 C 
ATOM     77  C   UNL     1      -3.559  -4.276 -12.042  0.00  0.00    +0.000 C 
ATOM     78  C   UNL     1      -4.135  -4.137 -13.447  0.00  0.00    +0.000 C 
ATOM     79  C   UNL     1      -4.059  -2.633 -13.830  0.00  0.00    +0.000 C 
BRANCH  79  80
ATOM     80  C   UNL     1      -5.436  -2.334 -14.486  0.00  0.00    +0.000 C 
ATOM     81  O   UNL     1      -5.641  -2.956 -15.516  0.00  0.00    +0.000 OA
ATOM     82  N   UNL     1      -6.486  -1.601 -14.006  0.00  0.00    +0.000 N 
ATOM     83  H   UNL     1      -7.381  -1.654 -14.528  0.00  0.00    +0.000 HD
BRANCH  82  84
ATOM     84  C   UNL     1      -6.481  -0.693 -12.908  0.00  0.00    +0.000 C 
BRANCH  84  85
ATOM     85  C   UNL     1      -7.015   0.630 -13.403  0.00  0.00    +0.000 C 
ATOM     86  N   UNL     1      -7.920   1.334 -12.688  0.00  0.00    +0.000 N 
ATOM     87  O   UNL     1      -6.584   1.095 -14.450  0.00  0.00    +0.000 OA
ATOM     88  H   UNL     1      -8.239   2.255 -13.027  0.00  0.00    +0.000 HD
ATOM     89  H   UNL     1      -8.263   0.991 -11.780  0.00  0.00    +0.000 HD
ENDBRANCH  84  85
ENDBRANCH  82  84
ENDBRANCH  79  80
ENDBRANCH  72  73
BRANCH  72  90
ATOM     90  C   UNL     1       0.053  -0.933 -12.154  0.00  0.00    +0.000 C 
BRANCH  90  91
ATOM     91  C   UNL     1       0.278  -2.439 -12.230  0.00  0.00    +0.000 C 
BRANCH  91  92
ATOM     92  C   UNL     1      -0.523  -3.170 -13.309  0.00  0.00    +0.000 C 
BRANCH  92  93
ATOM     93  N   UNL     1      -0.469  -2.617 -14.650  0.00  0.00    +0.000 N 
ATOM     94  C   UNL     1      -1.043  -3.328 -15.753  0.00  0.00    +0.000 C 
ATOM     95  N   UNL     1      -1.284  -2.716 -16.859  0.00  0.00    +0.000 NA
ATOM     96  N   UNL     1      -1.393  -4.702 -15.647  0.00  0.00    +0.000 N 
ATOM     97  H   UNL     1      -0.473  -1.593 -14.762  0.00  0.00    +0.000 HD
ATOM     98  H   UNL     1      -1.080  -1.715 -16.990  0.00  0.00    +0.000 HD
ATOM     99  H   UNL     1      -1.319  -5.229 -14.768  0.00  0.00    +0.000 HD
ATOM    100  H   UNL     1      -1.773  -5.200 -16.462  0.00  0.00    +0.000 HD
ENDBRANCH  92  93
ENDBRANCH  91  92
ENDBRANCH  90  91
ENDBRANCH  72  90
ENDBRANCH  70  72
ENDBRANCH  67  68
BRANCH  67 101
ATOM    101  C   UNL     1      -2.990   1.976 -10.373  0.00  0.00    +0.000 C 
BRANCH 101 103
ATOM    102  C   UNL     1      -4.724   0.039 -10.066  0.00  0.00    +0.000 C 
ATOM    103  C   UNL     1      -3.930   1.008 -11.011  0.00  0.00    +0.000 C 
ATOM    104  C   UNL     1      -4.209   1.445 -12.486  0.00  0.00    +0.000 C 
ENDBRANCH 101 103
ENDBRANCH  67 101
ENDBRANCH  63  67
ENDBRANCH  62  64
BRANCH  62 105
ATOM    105  C   UNL     1      -2.663   5.148 -10.532  0.00  0.00    +0.000 C 
BRANCH 105 106
ATOM    106  C   UNL     1      -3.973   4.620  -9.843  0.00  0.00    +0.000 A 
ATOM    107  C   UNL     1      -4.919   4.193 -10.783  0.00  0.00    +0.000 A 
ATOM    108  C   UNL     1      -5.934   3.312 -10.425  0.00  0.00    +0.000 A 
ATOM    109  C   UNL     1      -5.982   2.765  -9.140  0.00  0.00    +0.000 A 
ATOM    110  C   UNL     1      -5.081   3.176  -8.148  0.00  0.00    +0.000 A 
ATOM    111  C   UNL     1      -4.977   2.479  -6.912  0.00  0.00    +0.000 A 
ATOM    112  C   UNL     1      -4.100   2.918  -5.918  0.00  0.00    +0.000 A 
ATOM    113  C   UNL     1      -3.407   4.102  -6.114  0.00  0.00    +0.000 A 
ATOM    114  C   UNL     1      -3.459   4.734  -7.364  0.00  0.00    +0.000 A 
ATOM    115  C   UNL     1      -4.167   4.227  -8.445  0.00  0.00    +0.000 A 
ENDBRANCH 105 106
ENDBRANCH  62 105
ENDBRANCH   1  62
TORSDOF 35
