REMARK  Name = 
REMARK  6 active torsions:
REMARK  status: ('A' for Active; 'I' for Inactive)
REMARK    1  A    between atoms: C_1  and  C_2
REMARK    2  A    between atoms: C_5  and  C_6
REMARK    3  A    between atoms: C_12  and  C_13
REMARK    4  A    between atoms: C_16  and  C_17
REMARK    5  A    between atoms: C_18  and  C_19
REMARK    6  A    between atoms: N_26  and  C_27
REMARK                            x       y       z     vdW  Elec       q    Type
REMARK                         _______ _______ _______ _____ _____    ______ ____
ROOT
ATOM      1  C   UNL     1      -3.173  -0.237  -0.156  0.00  0.00    +0.000 C 
ATOM      2  C   UNL     1      -3.576   0.571  -1.458  0.00  0.00    +0.000 C 
ATOM      3  C   UNL     1      -5.117   0.838  -1.637  0.00  0.00    +0.000 C 
ATOM      4  C   UNL     1      -5.770   2.109  -1.082  0.00  0.00    +0.000 C 
ATOM      5  C   UNL     1      -5.938   1.878   0.428  0.00  0.00    +0.000 C 
ATOM      6  C   UNL     1      -5.490   0.407   0.594  0.00  0.00    +0.000 C 
ATOM      7  C   UNL     1      -3.889   0.498   0.976  0.00  0.00    +0.000 C 
ATOM      8  N   UNL     1      -5.814  -0.104  -0.810  0.00  0.00    +0.000 NA
ATOM      9  C   UNL     1      -5.926  -1.413  -1.497  0.00  0.00    +0.000 C 
ENDROOT
BRANCH   1  14
ATOM     10  C   UNL     1      -4.972  -5.862  -0.269  0.00  0.00    +0.000 C 
ATOM     11  C   UNL     1      -4.366  -4.496  -0.164  0.00  0.00    +0.000 A 
ATOM     12  C   UNL     1      -3.381  -4.029  -1.059  0.00  0.00    +0.000 A 
ATOM     13  C   UNL     1      -2.941  -2.685  -1.017  0.00  0.00    +0.000 A 
ATOM     14  C   UNL     1      -3.499  -1.781  -0.088  0.00  0.00    +0.000 A 
ATOM     15  C   UNL     1      -4.418  -2.343   0.859  0.00  0.00    +0.000 A 
ATOM     16  C   UNL     1      -4.839  -3.649   0.817  0.00  0.00    +0.000 A 
ENDBRANCH   1  14
BRANCH   7  17
ATOM     17  C   UNL     1      -3.326  -0.039   2.323  0.00  0.00    +0.000 A 
ATOM     18  O   UNL     1      -4.000  -0.676   3.271  0.00  0.00    +0.000 OA
ATOM     19  N   UNL     1      -3.206  -1.253   4.121  0.00  0.00    +0.000 NA
ATOM     20  C   UNL     1      -1.940  -1.002   3.744  0.00  0.00    +0.000 A 
ATOM     21  C   UNL     1      -0.735  -1.569   4.435  0.00  0.00    +0.000 C 
ATOM     22  C   UNL     1      -1.966  -0.173   2.643  0.00  0.00    +0.000 A 
BRANCH  22  23
ATOM     23  C   UNL     1      -0.805   0.383   1.915  0.00  0.00    +0.000 A 
ATOM     24  C   UNL     1       0.198  -0.450   1.391  0.00  0.00    +0.000 A 
ATOM     25  C   UNL     1       1.270   0.106   0.686  0.00  0.00    +0.000 A 
ATOM     26  C   UNL     1       1.364   1.491   0.527  0.00  0.00    +0.000 A 
ATOM     27  F   UNL     1       2.411   2.029  -0.146  0.00  0.00    +0.000 F 
ATOM     28  C   UNL     1       0.379   2.323   1.064  0.00  0.00    +0.000 A 
ATOM     29  C   UNL     1      -0.712   1.773   1.742  0.00  0.00    +0.000 A 
ENDBRANCH  22  23
ENDBRANCH   7  17
TORSDOF 3
