REMARK  Name = 
REMARK  10 active torsions:
REMARK  status: ('A' for Active; 'I' for Inactive)
REMARK    1  A    between atoms: C_1  and  C_2
REMARK    2  A    between atoms: C_2  and  C_3
REMARK    3  A    between atoms: C_2  and  C_4
REMARK    4  A    between atoms: C_2  and  N_5
REMARK    5  A    between atoms: N_5  and  C_6
REMARK    6  A    between atoms: C_6  and  C_7
REMARK    7  A    between atoms: C_7  and  O_8
REMARK    8  A    between atoms: C_7  and  C_9
REMARK    9  A    between atoms: C_12  and  O_13
REMARK   10  A    between atoms: C_14  and  C_15
REMARK                            x       y       z     vdW  Elec       q    Type
REMARK                         _______ _______ _______ _____ _____    ______ ____
ROOT
ATOM      1  C   UNL     1       4.702   2.084   2.049  0.00  0.00    +0.000 A 
ATOM      2  C   UNL     1       5.456   0.900   2.036  0.00  0.00    +0.000 A 
ATOM      3  C   UNL     1       6.843   0.955   1.914  0.00  0.00    +0.000 A 
ATOM      4  C   UNL     1       7.508   2.186   1.816  0.00  0.00    +0.000 A 
ATOM      5  C   UNL     1       6.772   3.398   1.844  0.00  0.00    +0.000 A 
ATOM      6  C   UNL     1       5.368   3.318   1.952  0.00  0.00    +0.000 A 
ENDROOT
BRANCH   5   7
ATOM      7  C   UNL     1       7.466   4.731   1.750  0.00  0.00    +0.000 C 
ATOM      8  N   UNL     1       6.797   5.913   1.775  0.00  0.00    +0.000 N 
ATOM      9  O   UNL     1       8.683   4.766   1.648  0.00  0.00    +0.000 OA
ATOM     10  H   UNL     1       7.319   6.799   1.711  0.00  0.00    +0.000 HD
ATOM     11  H   UNL     1       5.777   5.992   1.857  0.00  0.00    +0.000 HD
ENDBRANCH   5   7
BRANCH   4  12
ATOM     12  O   UNL     1       8.854   2.200   1.693  0.00  0.00    +0.000 OA
ATOM     13  H   UNL     1       9.379   1.388   1.658  0.00  0.00    +0.000 HD
ENDBRANCH   4  12
BRANCH   1  14
ATOM     14  C   UNL     1       3.189   2.134   2.106  0.00  0.00    +0.000 C 
BRANCH  14  15
ATOM     15  O   UNL     1       2.788   2.938   3.190  0.00  0.00    +0.000 OA
ATOM     16  H   UNL     1       2.026   3.492   2.873  0.00  0.00    +0.000 HD
ENDBRANCH  14  15
BRANCH  14  17
ATOM     17  C   UNL     1       2.469   0.773   2.184  0.00  0.00    +0.000 C 
BRANCH  17  18
ATOM     18  N   UNL     1       1.002   0.899   2.058  0.00  0.00    +0.000 NA
ATOM     19  H   UNL     1       0.620   1.597   2.739  0.00  0.00    +0.000 HD
BRANCH  18  21
ATOM     20  C   UNL     1       0.846  -0.090  -0.245  0.00  0.00    +0.000 C 
ATOM     21  C   UNL     1       0.368   1.023   0.712  0.00  0.00    +0.000 C 
ATOM     22  C   UNL     1       0.606   2.400   0.048  0.00  0.00    +0.000 C 
ATOM     23  C   UNL     1      -1.150   0.869   0.914  0.00  0.00    +0.000 C 
ENDBRANCH  18  21
ENDBRANCH  17  18
ENDBRANCH  14  17
ENDBRANCH   1  14
TORSDOF 7
