REMARK  Name = 
REMARK  26 active torsions:
REMARK  status: ('A' for Active; 'I' for Inactive)
REMARK    1  A    between atoms: C_1  and  C_2
REMARK    2  A    between atoms: C_2  and  N_3
REMARK    3  A    between atoms: N_3  and  C_4
REMARK    4  A    between atoms: N_3  and  C_43
REMARK    5  A    between atoms: C_4  and  C_5
REMARK    6  A    between atoms: C_5  and  C_6
REMARK    7  A    between atoms: C_6  and  C_7
REMARK    8  A    between atoms: C_7  and  C_8
REMARK    9  A    between atoms: C_8  and  C_9
REMARK   10  A    between atoms: C_14  and  C_15
REMARK   11  A    between atoms: C_15  and  C_16
REMARK   12  A    between atoms: C_20  and  C_22
REMARK   13  A    between atoms: C_22  and  C_23
REMARK   14  A    between atoms: C_23  and  C_24
REMARK   15  A    between atoms: C_24  and  C_25
REMARK   16  A    between atoms: C_25  and  C_26
REMARK   17  A    between atoms: C_26  and  N_27
REMARK   18  A    between atoms: N_27  and  C_28
REMARK   19  A    between atoms: N_27  and  C_30
REMARK   20  A    between atoms: C_28  and  C_29
REMARK   21  A    between atoms: C_30  and  C_31
REMARK   22  A    between atoms: C_36  and  O_37
REMARK   23  A    between atoms: O_37  and  C_38
REMARK   24  A    between atoms: C_43  and  C_44
REMARK   25  A    between atoms: C_49  and  O_50
REMARK   26  A    between atoms: O_50  and  C_51
REMARK                            x       y       z     vdW  Elec       q    Type
REMARK                         _______ _______ _______ _____ _____    ______ ____
ROOT
ATOM      1  C   UNL     1       2.512  -3.651   7.996  0.00  0.00    +0.000 C 
ENDROOT
BRANCH   1   7
ATOM      2  C   UNL     1       3.102   2.069   7.030  0.00  0.00    +0.000 C 
ATOM      3  O   UNL     1       3.776   2.634   7.894  0.00  0.00    +0.000 OA
ATOM      4  N   UNL     1       3.119   0.678   7.047  0.00  0.00    +0.000 N 
ATOM      5  C   UNL     1       2.628   0.252   8.329  0.00  0.00    +0.000 C 
ATOM      6  C   UNL     1       3.010  -1.181   8.606  0.00  0.00    +0.000 C 
ATOM      7  C   UNL     1       2.488  -2.183   7.495  0.00  0.00    +0.000 C 
ATOM      8  C   UNL     1       3.209  -1.743   6.264  0.00  0.00    +0.000 C 
ATOM      9  C   UNL     1       2.745  -0.274   5.973  0.00  0.00    +0.000 C 
BRANCH   2  10
ATOM     10  C   UNL     1       2.096   3.031   6.372  0.00  0.00    +0.000 C 
BRANCH  10  11
ATOM     11  C   UNL     1       2.288   3.362   4.928  0.00  0.00    +0.000 C 
BRANCH  11  12
ATOM     12  C   UNL     1       1.936   2.207   4.064  0.00  0.00    +0.000 C 
BRANCH  12  13
ATOM     13  C   UNL     1       0.507   1.865   3.718  0.00  0.00    +0.000 C 
BRANCH  13  14
ATOM     14  C   UNL     1       0.269   2.276   2.266  0.00  0.00    +0.000 C 
BRANCH  14  15
ATOM     15  N   UNL     1       1.009   1.404   1.258  0.00  0.00    +0.000 NA
BRANCH  15  17
ATOM     16  C   UNL     1       0.604  -0.389  -0.387  0.00  0.00    +0.000 C 
ATOM     17  C   UNL     1       0.328   0.121   1.023  0.00  0.00    +0.000 C 
ENDBRANCH  15  17
BRANCH  15  18
ATOM     18  C   UNL     1       2.495   1.516   0.998  0.00  0.00    +0.000 C 
BRANCH  18  19
ATOM     19  C   UNL     1       3.462   0.692   1.904  0.00  0.00    +0.000 A 
ATOM     20  C   UNL     1       3.294  -0.727   1.923  0.00  0.00    +0.000 A 
ATOM     21  C   UNL     1       4.075  -1.552   2.728  0.00  0.00    +0.000 A 
ATOM     22  C   UNL     1       5.059  -1.023   3.539  0.00  0.00    +0.000 A 
ATOM     23  C   UNL     1       5.281   0.352   3.538  0.00  0.00    +0.000 A 
ATOM     24  C   UNL     1       4.522   1.226   2.739  0.00  0.00    +0.000 A 
BRANCH  24  25
ATOM     25  O   UNL     1       4.870   2.544   2.917  0.00  0.00    +0.000 OA
ATOM     26  C   UNL     1       4.509   3.743   2.335  0.00  0.00    +0.000 C 
ENDBRANCH  24  25
ENDBRANCH  18  19
ENDBRANCH  15  18
ENDBRANCH  14  15
ENDBRANCH  13  14
ENDBRANCH  12  13
ENDBRANCH  11  12
ENDBRANCH  10  11
ENDBRANCH   2  10
ENDBRANCH   1   7
BRANCH   1  27
ATOM     27  C   UNL     1       1.299  -4.090   8.953  0.00  0.00    +0.000 C 
ATOM     28  C   UNL     1      -0.109  -4.507   8.382  0.00  0.00    +0.000 C 
ATOM     29  C   UNL     1      -1.101  -3.351   8.019  0.00  0.00    +0.000 C 
ATOM     30  N   UNL     1      -1.076  -2.268   9.007  0.00  0.00    +0.000 N 
ATOM     31  C   UNL     1      -2.164  -1.564   9.471  0.00  0.00    +0.000 C 
ATOM     32  O   UNL     1      -3.283  -1.920   9.153  0.00  0.00    +0.000 OA
ATOM     33  C   UNL     1       0.232  -1.861   9.318  0.00  0.00    +0.000 C 
ATOM     34  C   UNL     1       1.001  -3.053  10.018  0.00  0.00    +0.000 C 
BRANCH  31  35
ATOM     35  C   UNL     1      -2.040  -0.204  10.248  0.00  0.00    +0.000 C 
BRANCH  35  36
ATOM     36  C   UNL     1      -1.537  -0.124  11.737  0.00  0.00    +0.000 C 
BRANCH  36  37
ATOM     37  C   UNL     1      -0.084  -0.538  11.971  0.00  0.00    +0.000 C 
BRANCH  37  38
ATOM     38  C   UNL     1       1.073   0.459  11.595  0.00  0.00    +0.000 C 
BRANCH  38  39
ATOM     39  C   UNL     1       1.404   1.576  12.612  0.00  0.00    +0.000 C 
BRANCH  39  40
ATOM     40  N   UNL     1       1.858   1.092  13.951  0.00  0.00    +0.000 NA
BRANCH  40  41
ATOM     41  C   UNL     1       2.552   2.070  14.810  0.00  0.00    +0.000 C 
ATOM     42  C   UNL     1       1.600   2.986  15.586  0.00  0.00    +0.000 C 
ENDBRANCH  40  41
BRANCH  40  43
ATOM     43  C   UNL     1       1.197  -0.047  14.651  0.00  0.00    +0.000 C 
BRANCH  43  44
ATOM     44  C   UNL     1      -0.352   0.035  14.809  0.00  0.00    +0.000 A 
ATOM     45  C   UNL     1      -0.982   1.295  14.677  0.00  0.00    +0.000 A 
ATOM     46  C   UNL     1      -2.341   1.476  14.850  0.00  0.00    +0.000 A 
ATOM     47  C   UNL     1      -3.142   0.397  15.174  0.00  0.00    +0.000 A 
ATOM     48  C   UNL     1      -2.580  -0.864  15.290  0.00  0.00    +0.000 A 
ATOM     49  C   UNL     1      -1.198  -1.092  15.108  0.00  0.00    +0.000 A 
BRANCH  49  50
ATOM     50  O   UNL     1      -0.856  -2.419  15.196  0.00  0.00    +0.000 OA
ATOM     51  C   UNL     1       0.199  -3.124  14.640  0.00  0.00    +0.000 C 
ENDBRANCH  49  50
ENDBRANCH  43  44
ENDBRANCH  40  43
ENDBRANCH  39  40
ENDBRANCH  38  39
ENDBRANCH  37  38
ENDBRANCH  36  37
ENDBRANCH  35  36
ENDBRANCH  31  35
ENDBRANCH   1  27
TORSDOF 22
