REMARK  Name = 
REMARK  10 active torsions:
REMARK  status: ('A' for Active; 'I' for Inactive)
REMARK    1  A    between atoms: C_1  and  O_2
REMARK    2  A    between atoms: O_2  and  C_3
REMARK    3  A    between atoms: C_8  and  N_9
REMARK    4  A    between atoms: N_12  and  C_13
REMARK    5  A    between atoms: C_13  and  C_14
REMARK    6  A    between atoms: C_14  and  C_15
REMARK    7  A    between atoms: C_15  and  C_16
REMARK    8  A    between atoms: C_16  and  N_17
REMARK    9  A    between atoms: C_18  and  C_20
REMARK   10  A    between atoms: C_23  and  C_24
REMARK                            x       y       z     vdW  Elec       q    Type
REMARK                         _______ _______ _______ _____ _____    ______ ____
ROOT
ATOM      1  C   UNL     1       6.302  -0.485   2.001  0.00  0.00    +0.000 C 
ENDROOT
BRANCH   1   2
ATOM      2  C   UNL     1       6.383  -0.460   0.486  0.00  0.00    +0.000 C 
BRANCH   2   3
ATOM      3  C   UNL     1       5.454  -1.501  -0.174  0.00  0.00    +0.000 C 
BRANCH   3   7
ATOM      4  N   UNL     1       2.347   0.734   1.172  0.00  0.00    +0.000 N 
ATOM      5  C   UNL     1       2.841  -0.303   2.053  0.00  0.00    +0.000 C 
ATOM      6  C   UNL     1       3.280  -1.568   1.265  0.00  0.00    +0.000 C 
ATOM      7  N   UNL     1       4.000  -1.257   0.013  0.00  0.00    +0.000 NA
ATOM      8  C   UNL     1       3.319  -0.276  -0.841  0.00  0.00    +0.000 C 
ATOM      9  C   UNL     1       3.061   1.027  -0.069  0.00  0.00    +0.000 C 
BRANCH   4  15
ATOM     10  C   UNL     1       0.287   1.984   1.602  0.00  0.00    +0.000 A 
ATOM     11  C   UNL     1      -0.399   2.942   2.358  0.00  0.00    +0.000 A 
ATOM     12  C   UNL     1       0.250   3.662   3.366  0.00  0.00    +0.000 A 
ATOM     13  C   UNL     1       1.600   3.454   3.616  0.00  0.00    +0.000 A 
ATOM     14  C   UNL     1       2.313   2.521   2.858  0.00  0.00    +0.000 A 
ATOM     15  C   UNL     1       1.660   1.776   1.846  0.00  0.00    +0.000 A 
BRANCH  10  17
ATOM     16  C   UNL     1      -0.245   0.024   0.144  0.00  0.00    +0.000 C 
ATOM     17  O   UNL     1      -0.453   1.281   0.691  0.00  0.00    +0.000 OA
ENDBRANCH  10  17
ENDBRANCH   4  15
ENDBRANCH   3   7
ENDBRANCH   2   3
ENDBRANCH   1   2
BRANCH   1  18
ATOM     18  C   UNL     1       6.792  -1.746   2.705  0.00  0.00    +0.000 C 
BRANCH  18  19
ATOM     19  N   UNL     1       8.193  -1.551   3.002  0.00  0.00    +0.000 N 
ATOM     20  C   UNL     1       8.651  -1.179   4.231  0.00  0.00    +0.000 C 
ATOM     21  O   UNL     1       9.788  -0.737   4.325  0.00  0.00    +0.000 OA
ATOM     22  H   UNL     1       8.843  -1.493   2.201  0.00  0.00    +0.000 HD
BRANCH  20  23
ATOM     23  C   UNL     1       7.834  -1.220   5.474  0.00  0.00    +0.000 A 
ATOM     24  C   UNL     1       6.954  -2.221   5.869  0.00  0.00    +0.000 A 
ATOM     25  C   UNL     1       6.547  -1.889   7.136  0.00  0.00    +0.000 A 
ATOM     26  C   UNL     1       7.179  -0.699   7.434  0.00  0.00    +0.000 A 
ATOM     27  O   UNL     1       7.941  -0.327   6.430  0.00  0.00    +0.000 OA
BRANCH  26  28
ATOM     28  C   UNL     1       7.114   0.005   8.714  0.00  0.00    +0.000 A 
ATOM     29  C   UNL     1       7.021   1.405   8.776  0.00  0.00    +0.000 A 
ATOM     30  C   UNL     1       6.996   2.048  10.020  0.00  0.00    +0.000 A 
ATOM     31  C   UNL     1       7.103   1.298  11.199  0.00  0.00    +0.000 A 
ATOM     32 CL   UNL     1       7.120   2.099  12.757  0.00  0.00    +0.000 Cl
ATOM     33  C   UNL     1       7.206  -0.095  11.134  0.00  0.00    +0.000 A 
ATOM     34  C   UNL     1       7.191  -0.739   9.899  0.00  0.00    +0.000 A 
ENDBRANCH  26  28
ENDBRANCH  20  23
ENDBRANCH  18  19
ENDBRANCH   1  18
TORSDOF 9
