REMARK  Name = 
REMARK  5 active torsions:
REMARK  status: ('A' for Active; 'I' for Inactive)
REMARK    1  A    between atoms: C_1  and  N_2
REMARK    2  A    between atoms: C_7  and  C_8
REMARK    3  A    between atoms: C_10  and  C_11
REMARK    4  A    between atoms: C_11  and  C_12
REMARK    5  A    between atoms: C_21  and  C_22
REMARK                            x       y       z     vdW  Elec       q    Type
REMARK                         _______ _______ _______ _____ _____    ______ ____
ROOT
ATOM      1  C   UNL     1      -0.806  -0.132  -1.345  0.00  0.00    +0.000 C 
ATOM      2  N   UNL     1      -0.013  -0.357  -2.569  0.00  0.00    +0.000 NA
ATOM      3  C   UNL     1       1.417  -0.424  -2.395  0.00  0.00    +0.000 C 
ATOM      4  C   UNL     1       1.773  -1.270  -3.604  0.00  0.00    +0.000 C 
ATOM      5  C   UNL     1       0.862  -0.742  -4.715  0.00  0.00    +0.000 C 
ATOM      6  C   UNL     1      -0.169   0.146  -3.963  0.00  0.00    +0.000 C 
ATOM      7  C   UNL     1       0.291   1.656  -4.181  0.00  0.00    +0.000 C 
ATOM      8  C   UNL     1       1.693   1.978  -3.472  0.00  0.00    +0.000 C 
ATOM      9  C   UNL     1       1.924   1.031  -2.258  0.00  0.00    +0.000 C 
ENDROOT
BRANCH   8  10
ATOM     10  C   UNL     1       1.922   3.467  -3.052  0.00  0.00    +0.000 A 
ATOM     11  C   UNL     1       2.114   3.860  -1.689  0.00  0.00    +0.000 A 
ATOM     12  C   UNL     1       2.167   5.196  -1.310  0.00  0.00    +0.000 A 
ATOM     13  C   UNL     1       2.025   6.198  -2.262  0.00  0.00    +0.000 A 
ATOM     14 CL   UNL     1       1.989   7.878  -1.752  0.00  0.00    +0.000 Cl
ATOM     15  C   UNL     1       1.909   5.856  -3.609  0.00  0.00    +0.000 A 
ATOM     16  C   UNL     1       1.894   4.502  -3.997  0.00  0.00    +0.000 A 
ENDBRANCH   8  10
BRANCH   7  17
ATOM     17  C   UNL     1      -0.842   2.679  -4.113  0.00  0.00    +0.000 A 
ATOM     18  C   UNL     1      -0.908   3.911  -4.767  0.00  0.00    +0.000 A 
ATOM     19  C   UNL     1      -2.072   4.483  -4.334  0.00  0.00    +0.000 A 
ATOM     20  N   UNL     1      -2.708   3.601  -3.535  0.00  0.00    +0.000 NA
ATOM     21  O   UNL     1      -1.964   2.531  -3.447  0.00  0.00    +0.000 OA
BRANCH  19  22
ATOM     22  C   UNL     1      -2.476   5.936  -4.496  0.00  0.00    +0.000 C 
BRANCH  22  23
ATOM     23  C   UNL     1      -2.985   6.446  -5.809  0.00  0.00    +0.000 A 
ATOM     24  C   UNL     1      -4.177   5.957  -6.370  0.00  0.00    +0.000 A 
ATOM     25  C   UNL     1      -4.734   6.505  -7.529  0.00  0.00    +0.000 A 
ATOM     26  C   UNL     1      -4.108   7.589  -8.148  0.00  0.00    +0.000 A 
ATOM     27 CL   UNL     1      -4.834   8.331  -9.564  0.00  0.00    +0.000 Cl
ATOM     28  C   UNL     1      -2.912   8.093  -7.630  0.00  0.00    +0.000 A 
ATOM     29  C   UNL     1      -2.353   7.529  -6.473  0.00  0.00    +0.000 A 
ENDBRANCH  22  23
ENDBRANCH  19  22
ENDBRANCH   7  17
TORSDOF 4
