REMARK  Name = 
REMARK  3 active torsions:
REMARK  status: ('A' for Active; 'I' for Inactive)
REMARK    1  A    between atoms: N_1  and  C_2
REMARK    2  A    between atoms: C_6  and  N_7
REMARK    3  A    between atoms: C_12  and  C_13
REMARK                            x       y       z     vdW  Elec       q    Type
REMARK                         _______ _______ _______ _____ _____    ______ ____
ROOT
ATOM      1  N   UNL     1      -1.867   2.484  -0.042  0.00  0.00    +0.000 N 
ATOM      2  C   UNL     1      -3.283   2.564   0.048  0.00  0.00    +0.000 A 
ATOM      3  N   UNL     1      -3.988   3.184  -0.932  0.00  0.00    +0.000 NA
ATOM      4  C   UNL     1      -5.346   3.126  -0.951  0.00  0.00    +0.000 A 
ATOM      5  C   UNL     1      -6.032   2.431   0.048  0.00  0.00    +0.000 A 
ATOM      6  C   UNL     1      -5.296   1.861   1.088  0.00  0.00    +0.000 A 
ATOM      7  N   UNL     1      -3.942   1.937   1.060  0.00  0.00    +0.000 NA
ATOM      8  H   UNL     1      -1.362   3.282  -0.459  0.00  0.00    +0.000 HD
ENDROOT
BRANCH   1  13
ATOM      9  C   UNL     1       0.962   0.032   0.044  0.00  0.00    +0.000 A 
ATOM     10  C   UNL     1       0.268  -1.186   0.083  0.00  0.00    +0.000 A 
ATOM     11  C   UNL     1      -1.125  -1.197   0.114  0.00  0.00    +0.000 A 
ATOM     12  C   UNL     1      -1.837   0.002   0.107  0.00  0.00    +0.000 A 
ATOM     13  C   UNL     1      -1.161   1.243   0.060  0.00  0.00    +0.000 A 
ATOM     14  C   UNL     1       0.244   1.241   0.026  0.00  0.00    +0.000 A 
BRANCH   9  15
ATOM     15  N   UNL     1       2.375   0.037   0.007  0.00  0.00    +0.000 N 
ATOM     16  H   UNL     1       2.905  -0.849   0.008  0.00  0.00    +0.000 HD
ATOM     17  H   UNL     1       2.901   0.926  -0.021  0.00  0.00    +0.000 HD
ENDBRANCH   9  15
ENDBRANCH   1  13
BRANCH   6  18
ATOM     18  C   UNL     1      -5.950   1.169   2.221  0.00  0.00    +0.000 A 
ATOM     19  C   UNL     1      -7.009   0.276   2.013  0.00  0.00    +0.000 A 
ATOM     20  C   UNL     1      -7.591  -0.378   3.100  0.00  0.00    +0.000 A 
ATOM     21  C   UNL     1      -7.131  -0.106   4.390  0.00  0.00    +0.000 A 
ATOM     22  N   UNL     1      -6.112   0.773   4.578  0.00  0.00    +0.000 NA
ATOM     23  C   UNL     1      -5.509   1.400   3.534  0.00  0.00    +0.000 A 
ENDBRANCH   6  18
TORSDOF 3
