REMARK  Name = 
REMARK  9 active torsions:
REMARK  status: ('A' for Active; 'I' for Inactive)
REMARK    1  A    between atoms: C_1  and  O_2
REMARK    2  A    between atoms: O_2  and  C_3
REMARK    3  A    between atoms: C_7  and  C_8
REMARK    4  A    between atoms: C_8  and  C_10
REMARK    5  A    between atoms: C_10  and  C_11
REMARK    6  A    between atoms: C_11  and  C_12
REMARK    7  A    between atoms: N_15  and  C_16
REMARK    8  A    between atoms: C_22  and  O_23
REMARK    9  A    between atoms: O_23  and  C_24
REMARK                            x       y       z     vdW  Elec       q    Type
REMARK                         _______ _______ _______ _____ _____    ______ ____
ROOT
ATOM      1  C   UNL     1       0.457  -0.722   2.005  0.00  0.00    +0.000 A 
ATOM      2  C   UNL     1      -0.526  -1.272   2.871  0.00  0.00    +0.000 A 
ATOM      3  C   UNL     1      -0.166  -1.850   4.080  0.00  0.00    +0.000 A 
ATOM      4  C   UNL     1      -0.984  -2.619   4.938  0.00  0.00    +0.000 A 
ATOM      5  C   UNL     1      -0.254  -3.211   5.987  0.00  0.00    +0.000 A 
ATOM      6  S   UNL     1       1.280  -2.519   5.950  0.00  0.00    +0.000 S 
ATOM      7  C   UNL     1       1.134  -1.779   4.488  0.00  0.00    +0.000 A 
ATOM      8  C   UNL     1       2.144  -1.258   3.705  0.00  0.00    +0.000 A 
ATOM      9  C   UNL     1       1.857  -0.770   2.425  0.00  0.00    +0.000 A 
ENDROOT
BRANCH   1  11
ATOM     10  C   UNL     1       0.372   0.182  -0.361  0.00  0.00    +0.000 C 
ATOM     11  O   UNL     1      -0.097  -0.237   0.858  0.00  0.00    +0.000 OA
ENDBRANCH   1  11
BRANCH   5  12
ATOM     12  C   UNL     1      -0.751  -4.329   6.872  0.00  0.00    +0.000 C 
ATOM     13  O   UNL     1      -1.964  -4.461   6.948  0.00  0.00    +0.000 OA
BRANCH  12  14
ATOM     14  C   UNL     1       0.109  -5.378   7.640  0.00  0.00    +0.000 C 
BRANCH  14  15
ATOM     15  C   UNL     1       0.737  -6.590   6.818  0.00  0.00    +0.000 C 
BRANCH  15  16
ATOM     16  C   UNL     1       1.893  -6.302   5.866  0.00  0.00    +0.000 A 
ATOM     17  C   UNL     1       2.306  -7.187   4.841  0.00  0.00    +0.000 A 
ATOM     18  C   UNL     1       3.277  -6.755   3.909  0.00  0.00    +0.000 A 
ATOM     19  N   UNL     1       3.772  -5.478   3.971  0.00  0.00    +0.000 N 
ATOM     20  C   UNL     1       4.655  -4.924   2.941  0.00  0.00    +0.000 C 
ATOM     21  C   UNL     1       3.447  -4.673   5.012  0.00  0.00    +0.000 A 
ATOM     22  C   UNL     1       2.562  -5.106   5.981  0.00  0.00    +0.000 A 
ENDBRANCH  15  16
ENDBRANCH  14  15
ENDBRANCH  12  14
ENDBRANCH   5  12
BRANCH   9  23
ATOM     23  O   UNL     1       2.995  -0.447   1.742  0.00  0.00    +0.000 OA
ATOM     24  C   UNL     1       3.283  -0.071   0.457  0.00  0.00    +0.000 C 
ENDBRANCH   9  23
TORSDOF 6
