REMARK  Name = 
REMARK  3 active torsions:
REMARK  status: ('A' for Active; 'I' for Inactive)
REMARK    1  A    between atoms: C_11  and  O_12
REMARK    2  A    between atoms: N_18  and  C_19
REMARK    3  A    between atoms: C_19  and  C_20
REMARK                            x       y       z     vdW  Elec       q    Type
REMARK                         _______ _______ _______ _____ _____    ______ ____
ROOT
ATOM      1  O   UNL     1       3.346   0.389  -0.351  0.00  0.00    +0.000 OA
ATOM      2  C   UNL     1       3.553  -0.744  -0.781  0.00  0.00    +0.000 C 
ATOM      3  C   UNL     1       2.972  -1.162  -2.038  0.00  0.00    +0.000 C 
ATOM      4  C   UNL     1       1.766  -2.065  -1.745  0.00  0.00    +0.000 C 
ATOM      5  C   UNL     1       1.822  -2.776  -0.297  0.00  0.00    +0.000 C 
ATOM      6  C   UNL     1       0.812  -3.904  -0.039  0.00  0.00    +0.000 C 
ATOM      7  C   UNL     1       1.000  -4.933  -1.153  0.00  0.00    +0.000 C 
ATOM      8  C   UNL     1       2.325  -5.548  -0.961  0.00  0.00    +0.000 A 
ATOM      9  C   UNL     1       2.329  -6.943  -1.082  0.00  0.00    +0.000 A 
ATOM     10  C   UNL     1       3.406  -7.681  -0.673  0.00  0.00    +0.000 A 
ATOM     11  C   UNL     1       4.536  -7.041  -0.188  0.00  0.00    +0.000 A 
ATOM     12  C   UNL     1       4.607  -5.611  -0.145  0.00  0.00    +0.000 A 
ATOM     13  C   UNL     1       3.459  -4.796  -0.481  0.00  0.00    +0.000 A 
ATOM     14  C   UNL     1       3.258  -3.285   0.117  0.00  0.00    +0.000 C 
ATOM     15  C   UNL     1       3.364  -3.662   1.627  0.00  0.00    +0.000 C 
ATOM     16  C   UNL     1       2.062  -4.061   2.247  0.00  0.00    +0.000 C 
ATOM     17  N   UNL     1       0.989  -4.517   1.333  0.00  0.00    +0.000 NA
ATOM     18  C   UNL     1       4.067  -1.878   0.114  0.00  0.00    +0.000 C 
ENDROOT
BRANCH  11  19
ATOM     19  O   UNL     1       5.529  -7.789   0.327  0.00  0.00    +0.000 OA
ATOM     20  H   UNL     1       5.410  -8.752   0.461  0.00  0.00    +0.000 HD
ENDBRANCH  11  19
BRANCH  17  21
ATOM     21  C   UNL     1      -0.264  -4.647   2.116  0.00  0.00    +0.000 C 
BRANCH  21  22
ATOM     22  C   UNL     1      -0.994  -3.316   2.497  0.00  0.00    +0.000 C 
ATOM     23  C   UNL     1      -0.321  -1.994   2.894  0.00  0.00    +0.000 C 
ATOM     24  C   UNL     1      -1.572  -1.282   2.392  0.00  0.00    +0.000 C 
ATOM     25  C   UNL     1      -1.851  -2.506   1.514  0.00  0.00    +0.000 C 
ENDBRANCH  21  22
ENDBRANCH  17  21
TORSDOF 3
