REMARK  Name = 
REMARK  6 active torsions:
REMARK  status: ('A' for Active; 'I' for Inactive)
REMARK    1  A    between atoms: C_1  and  N_2
REMARK    2  A    between atoms: N_2  and  C_3
REMARK    3  A    between atoms: C_3  and  C_4
REMARK    4  A    between atoms: C_6  and  O_7
REMARK    5  A    between atoms: C_6  and  C_18
REMARK    6  A    between atoms: O_7  and  C_8
REMARK                            x       y       z     vdW  Elec       q    Type
REMARK                         _______ _______ _______ _____ _____    ______ ____
ROOT
ATOM      1  C   UNL     1      -1.469   1.615   0.061  0.00  0.00    +0.000 C 
ATOM      2  C   UNL     1      -2.796   2.353  -0.005  0.00  0.00    +0.000 C 
ATOM      3  C   UNL     1      -1.465   3.118  -0.189  0.00  0.00    +0.000 C 
ENDROOT
BRANCH   3   4
ATOM      4  C   UNL     1      -1.037   4.061   0.907  0.00  0.00    +0.000 A 
ATOM      5  C   UNL     1      -0.894   3.800   2.268  0.00  0.00    +0.000 A 
ATOM      6  C   UNL     1      -0.394   4.894   2.989  0.00  0.00    +0.000 A 
ATOM      7  C   UNL     1      -0.139   6.012   2.207  0.00  0.00    +0.000 A 
ATOM      8  S   UNL     1      -0.539   5.645   0.623  0.00  0.00    +0.000 S 
ENDBRANCH   3   4
BRANCH   1   9
ATOM      9  C   UNL     1      -1.021   0.758  -1.139  0.00  0.00    +0.000 C 
BRANCH   9  11
ATOM     10  C   UNL     1       1.041   0.002  -0.060  0.00  0.00    +0.000 C 
ATOM     11  N   UNL     1       0.445   0.674  -1.220  0.00  0.00    +0.000 NA
ATOM     12  H   UNL     1       0.849   1.636  -1.305  0.00  0.00    +0.000 HD
ENDBRANCH   9  11
ENDBRANCH   1   9
BRANCH   3  13
ATOM     13  O   UNL     1      -1.329   3.597  -1.482  0.00  0.00    +0.000 OA
BRANCH  13  14
ATOM     14  C   UNL     1      -2.061   4.592  -2.065  0.00  0.00    +0.000 A 
ATOM     15  C   UNL     1      -3.329   4.983  -1.573  0.00  0.00    +0.000 A 
ATOM     16  C   UNL     1      -4.048   6.006  -2.189  0.00  0.00    +0.000 A 
ATOM     17  C   UNL     1      -3.522   6.670  -3.293  0.00  0.00    +0.000 A 
ATOM     18  C   UNL     1      -2.260   6.319  -3.790  0.00  0.00    +0.000 A 
ATOM     19  C   UNL     1      -1.717   7.011  -4.883  0.00  0.00    +0.000 A 
ATOM     20  C   UNL     1      -0.449   6.680  -5.363  0.00  0.00    +0.000 A 
ATOM     21  C   UNL     1       0.284   5.655  -4.763  0.00  0.00    +0.000 A 
ATOM     22  C   UNL     1      -0.247   4.950  -3.679  0.00  0.00    +0.000 A 
ATOM     23  C   UNL     1      -1.524   5.272  -3.178  0.00  0.00    +0.000 A 
ENDBRANCH  13  14
ENDBRANCH   3  13
TORSDOF 5
