REMARK  Name = 
REMARK  5 active torsions:
REMARK  status: ('A' for Active; 'I' for Inactive)
REMARK    1  A    between atoms: C_1  and  O_2
REMARK    2  A    between atoms: O_2  and  C_3
REMARK    3  A    between atoms: N_10  and  C_11
REMARK    4  A    between atoms: C_20  and  O_21
REMARK    5  A    between atoms: O_21  and  C_22
REMARK                            x       y       z     vdW  Elec       q    Type
REMARK                         _______ _______ _______ _____ _____    ______ ____
ROOT
ATOM      1  C   UNL     1       1.032  -2.238  -1.016  0.00  0.00    +0.000 A 
ATOM      2  C   UNL     1       0.081  -3.108  -1.590  0.00  0.00    +0.000 A 
ATOM      3  C   UNL     1       0.446  -4.011  -2.603  0.00  0.00    +0.000 A 
ATOM      4  N   UNL     1      -0.478  -4.853  -3.131  0.00  0.00    +0.000 NA
ATOM      5  C   UNL     1      -0.144  -5.755  -4.091  0.00  0.00    +0.000 A 
ATOM      6  N   UNL     1       1.142  -5.842  -4.522  0.00  0.00    +0.000 NA
ATOM      7  C   UNL     1       2.121  -5.034  -4.034  0.00  0.00    +0.000 A 
ATOM      8  N   UNL     1       3.483  -5.264  -4.425  0.00  0.00    +0.000 N 
ATOM      9  C   UNL     1       1.784  -4.070  -3.050  0.00  0.00    +0.000 A 
ATOM     10  C   UNL     1       2.720  -3.183  -2.498  0.00  0.00    +0.000 A 
ATOM     11  C   UNL     1       2.371  -2.268  -1.497  0.00  0.00    +0.000 A 
ATOM     12  H   UNL     1       4.222  -4.990  -3.766  0.00  0.00    +0.000 HD
ENDROOT
BRANCH   8  13
ATOM     13  C   UNL     1       3.874  -6.121  -5.495  0.00  0.00    +0.000 A 
ATOM     14  C   UNL     1       5.013  -6.927  -5.331  0.00  0.00    +0.000 A 
ATOM     15  C   UNL     1       5.430  -7.788  -6.351  0.00  0.00    +0.000 A 
ATOM     16  C   UNL     1       4.732  -7.829  -7.558  0.00  0.00    +0.000 A 
ATOM     17  C   UNL     1       3.614  -7.012  -7.747  0.00  0.00    +0.000 A 
ATOM     18  C   UNL     1       3.177  -6.164  -6.722  0.00  0.00    +0.000 A 
ATOM     19  F   UNL     1       2.109  -5.360  -6.954  0.00  0.00    +0.000 F 
ENDBRANCH   8  13
BRANCH   1  21
ATOM     20  C   UNL     1       0.232  -0.139  -0.051  0.00  0.00    +0.000 C 
ATOM     21  O   UNL     1       0.649  -1.453   0.024  0.00  0.00    +0.000 OA
ENDBRANCH   1  21
BRANCH  11  22
ATOM     22  O   UNL     1       3.393  -1.492  -1.050  0.00  0.00    +0.000 OA
ATOM     23  C   UNL     1       3.355  -0.411  -0.205  0.00  0.00    +0.000 C 
ENDBRANCH  11  22
TORSDOF 3
