REMARK  Name = 
REMARK  11 active torsions:
REMARK  status: ('A' for Active; 'I' for Inactive)
REMARK    1  A    between atoms: C_1  and  O_2
REMARK    2  A    between atoms: O_2  and  C_3
REMARK    3  A    between atoms: C_8  and  O_9
REMARK    4  A    between atoms: O_9  and  C_10
REMARK    5  A    between atoms: C_12  and  C_13
REMARK    6  A    between atoms: C_13  and  C_14
REMARK    7  A    between atoms: N_17  and  C_18
REMARK    8  A    between atoms: C_18  and  C_19
REMARK    9  A    between atoms: C_19  and  C_20
REMARK   10  A    between atoms: C_20  and  N_21
REMARK   11  A    between atoms: N_21  and  C_22
REMARK                            x       y       z     vdW  Elec       q    Type
REMARK                         _______ _______ _______ _____ _____    ______ ____
ROOT
ATOM      1  C   UNL     1       3.958  -5.900   5.692  0.00  0.00    +0.000 C 
ATOM      2  C   UNL     1       5.019  -7.011   5.482  0.00  0.00    +0.000 C 
ATOM      3  C   UNL     1       4.752  -7.916   4.272  0.00  0.00    +0.000 C 
ATOM      4  N   UNL     1       3.380  -8.480   4.237  0.00  0.00    +0.000 NA
ATOM      5  C   UNL     1       2.272  -7.598   4.651  0.00  0.00    +0.000 C 
ATOM      6  C   UNL     1       2.614  -6.653   5.838  0.00  0.00    +0.000 C 
ENDROOT
BRANCH   1   7
ATOM      7  C   UNL     1       4.033  -4.591   4.776  0.00  0.00    +0.000 C 
BRANCH   7  15
ATOM      8  C   UNL     1       0.861  -1.187   1.655  0.00  0.00    +0.000 A 
ATOM      9  C   UNL     1       2.239  -1.574   1.671  0.00  0.00    +0.000 A 
ATOM     10  C   UNL     1       2.590  -2.783   2.276  0.00  0.00    +0.000 A 
ATOM     11  C   UNL     1       1.617  -3.587   2.771  0.00  0.00    +0.000 A 
ATOM     12  C   UNL     1       0.277  -3.254   2.775  0.00  0.00    +0.000 A 
ATOM     13  C   UNL     1      -0.116  -2.041   2.253  0.00  0.00    +0.000 A 
ATOM     14  C   UNL     1       2.112  -4.872   3.169  0.00  0.00    +0.000 C 
ATOM     15  C   UNL     1       3.626  -4.692   3.286  0.00  0.00    +0.000 C 
ATOM     16  C   UNL     1       3.921  -3.456   2.383  0.00  0.00    +0.000 C 
BRANCH   8  18
ATOM     17  C   UNL     1       0.995   0.422  -0.133  0.00  0.00    +0.000 C 
ATOM     18  O   UNL     1       0.459  -0.055   1.040  0.00  0.00    +0.000 OA
ENDBRANCH   8  18
BRANCH  13  19
ATOM     19  O   UNL     1      -1.448  -1.790   2.321  0.00  0.00    +0.000 OA
ATOM     20  C   UNL     1      -2.107  -0.638   1.980  0.00  0.00    +0.000 C 
ENDBRANCH  13  19
ENDBRANCH   7  15
ENDBRANCH   1   7
BRANCH   4  21
ATOM     21  C   UNL     1       3.060  -9.198   2.960  0.00  0.00    +0.000 C 
BRANCH  21  22
ATOM     22  C   UNL     1       3.002  -8.382   1.606  0.00  0.00    +0.000 C 
BRANCH  22  23
ATOM     23  C   UNL     1       4.269  -7.709   1.023  0.00  0.00    +0.000 C 
BRANCH  23  24
ATOM     24  N   UNL     1       5.446  -8.543   1.116  0.00  0.00    +0.000 N 
ATOM     25  H   UNL     1       5.353  -9.404   1.659  0.00  0.00    +0.000 HD
BRANCH  24  26
ATOM     26  C   UNL     1       6.332  -8.592   0.014  0.00  0.00    +0.000 A 
ATOM     27  C   UNL     1       7.098  -7.454  -0.335  0.00  0.00    +0.000 A 
ATOM     28  C   UNL     1       7.960  -7.535  -1.450  0.00  0.00    +0.000 A 
ATOM     29  N   UNL     1       8.064  -8.704  -2.141  0.00  0.00    +0.000 NA
ATOM     30  C   UNL     1       7.343  -9.811  -1.822  0.00  0.00    +0.000 A 
ATOM     31  C   UNL     1       7.464 -10.974  -2.595  0.00  0.00    +0.000 A 
ATOM     32  C   UNL     1       6.702 -12.107  -2.289  0.00  0.00    +0.000 A 
ATOM     33 CL   UNL     1       6.837 -13.556  -3.267  0.00  0.00    +0.000 Cl
ATOM     34  C   UNL     1       5.822 -12.088  -1.210  0.00  0.00    +0.000 A 
ATOM     35  C   UNL     1       5.691 -10.939  -0.435  0.00  0.00    +0.000 A 
ATOM     36  C   UNL     1       6.453  -9.784  -0.729  0.00  0.00    +0.000 A 
ATOM     37  C   UNL     1       8.783  -6.352  -1.906  0.00  0.00    +0.000 C 
ATOM     38  C   UNL     1       8.351  -5.026  -1.259  0.00  0.00    +0.000 C 
ATOM     39  C   UNL     1       8.193  -5.216   0.239  0.00  0.00    +0.000 C 
ATOM     40  C   UNL     1       7.028  -6.180   0.502  0.00  0.00    +0.000 C 
ENDBRANCH  24  26
ENDBRANCH  23  24
ENDBRANCH  22  23
ENDBRANCH  21  22
ENDBRANCH   4  21
TORSDOF 9
