REMARK  Name = 
REMARK  7 active torsions:
REMARK  status: ('A' for Active; 'I' for Inactive)
REMARK    1  A    between atoms: C_1  and  C_2
REMARK    2  A    between atoms: C_2  and  C_3
REMARK    3  A    between atoms: C_2  and  C_4
REMARK    4  A    between atoms: C_12  and  C_13
REMARK    5  A    between atoms: N_15  and  C_16
REMARK    6  A    between atoms: C_16  and  C_17
REMARK    7  A    between atoms: C_17  and  C_18
REMARK                            x       y       z     vdW  Elec       q    Type
REMARK                         _______ _______ _______ _____ _____    ______ ____
ROOT
ATOM      1  C   UNL     1      -0.979   0.676   1.199  0.00  0.00    +0.000 A 
ATOM      2  C   UNL     1      -1.671  -0.555   1.242  0.00  0.00    +0.000 A 
ATOM      3  C   UNL     1      -3.084  -0.595   1.233  0.00  0.00    +0.000 A 
ATOM      4  C   UNL     1      -3.817   0.594   1.169  0.00  0.00    +0.000 A 
ATOM      5  N   UNL     1      -5.179   0.588   1.161  0.00  0.00    +0.000 NA
ATOM      6  C   UNL     1      -5.892   1.753   1.095  0.00  0.00    +0.000 A 
ATOM      7  C   UNL     1      -7.291   1.736   1.108  0.00  0.00    +0.000 A 
ATOM      8  C   UNL     1      -7.993   2.951   1.081  0.00  0.00    +0.000 A 
ATOM      9  C   UNL     1      -7.308   4.188   1.013  0.00  0.00    +0.000 A 
ATOM     10  C   UNL     1      -5.921   4.125   0.933  0.00  0.00    +0.000 A 
ATOM     11  N   UNL     1      -5.234   2.953   1.016  0.00  0.00    +0.000 N 
ATOM     12  C   UNL     1      -3.857   2.996   1.037  0.00  0.00    +0.000 A 
ATOM     13  O   UNL     1      -3.267   4.069   1.001  0.00  0.00    +0.000 OA
ATOM     14  C   UNL     1      -3.129   1.817   1.123  0.00  0.00    +0.000 A 
ATOM     15  C   UNL     1      -1.732   1.853   1.150  0.00  0.00    +0.000 A 
ENDROOT
BRANCH   9  16
ATOM     16  C   UNL     1      -8.079   5.493   1.053  0.00  0.00    +0.000 C 
ATOM     17  O   UNL     1      -9.297   5.394   1.017  0.00  0.00    +0.000 OA
ATOM     18  N   UNL     1      -7.568   6.773   1.176  0.00  0.00    +0.000 N 
ATOM     19  H   UNL     1      -8.268   7.525   1.250  0.00  0.00    +0.000 HD
BRANCH  18  20
ATOM     20  C   UNL     1      -6.189   7.231   1.310  0.00  0.00    +0.000 C 
BRANCH  20  21
ATOM     21  C   UNL     1      -5.597   7.731  -0.035  0.00  0.00    +0.000 C 
BRANCH  21  22
ATOM     22  C   UNL     1      -6.075   9.147  -0.275  0.00  0.00    +0.000 A 
ATOM     23  C   UNL     1      -7.429   9.437  -0.512  0.00  0.00    +0.000 A 
ATOM     24  C   UNL     1      -7.857  10.760  -0.582  0.00  0.00    +0.000 A 
ATOM     25  C   UNL     1      -6.928  11.791  -0.439  0.00  0.00    +0.000 A 
ATOM     26  N   UNL     1      -5.613  11.500  -0.262  0.00  0.00    +0.000 NA
ATOM     27  C   UNL     1      -5.169  10.218  -0.183  0.00  0.00    +0.000 A 
ENDBRANCH  21  22
ENDBRANCH  20  21
ENDBRANCH  18  20
ENDBRANCH   9  16
BRANCH   1  29
ATOM     28  C   UNL     1       1.077   0.021  -0.068  0.00  0.00    +0.000 C 
ATOM     29  C   UNL     1       0.551   0.714   1.194  0.00  0.00    +0.000 C 
ATOM     30  C   UNL     1       1.154   2.137   1.255  0.00  0.00    +0.000 C 
ENDBRANCH   1  29
TORSDOF 5
