REMARK  Name = 
REMARK  7 active torsions:
REMARK  status: ('A' for Active; 'I' for Inactive)
REMARK    1  A    between atoms: C_1  and  C_2
REMARK    2  A    between atoms: C_2  and  O_3
REMARK    3  A    between atoms: O_3  and  C_4
REMARK    4  A    between atoms: C_9  and  C_10
REMARK    5  A    between atoms: C_10  and  C_11
REMARK    6  A    between atoms: C_11  and  C_12
REMARK    7  A    between atoms: C_11  and  N_18
REMARK                            x       y       z     vdW  Elec       q    Type
REMARK                         _______ _______ _______ _____ _____    ______ ____
ROOT
ATOM      1  C   UNL     1       3.136   2.191   0.559  0.00  0.00    +0.000 C 
ENDROOT
BRANCH   1   2
ATOM      2  N   UNL     1       2.432   2.865  -0.601  0.00  0.00    +0.000 NA
ATOM      3  C   UNL     1       0.991   2.513  -0.792  0.00  0.00    +0.000 C 
ATOM      4  C   UNL     1       0.148   3.007   0.395  0.00  0.00    +0.000 C 
ATOM      5  N   UNL     1       0.251   4.472   0.518  0.00  0.00    +0.000 NA
ATOM      6  C   UNL     1       1.654   4.921   0.583  0.00  0.00    +0.000 C 
ATOM      7  C   UNL     1       2.484   4.339  -0.588  0.00  0.00    +0.000 C 
ATOM      8  H   UNL     1      -0.195   4.907  -0.328  0.00  0.00    +0.000 HD
ENDBRANCH   1   2
BRANCH   1   9
ATOM      9  C   UNL     1       4.641   2.523   0.569  0.00  0.00    +0.000 A 
ATOM     10  C   UNL     1       5.630   1.635   0.080  0.00  0.00    +0.000 A 
ATOM     11  C   UNL     1       6.990   1.936   0.219  0.00  0.00    +0.000 A 
ATOM     12  C   UNL     1       7.388   3.134   0.804  0.00  0.00    +0.000 A 
ATOM     13  C   UNL     1       6.429   4.040   1.258  0.00  0.00    +0.000 A 
ATOM     14  C   UNL     1       5.070   3.731   1.151  0.00  0.00    +0.000 A 
ENDBRANCH   1   9
BRANCH   1  15
ATOM     15  C   UNL     1       2.872   0.643   0.594  0.00  0.00    +0.000 C 
BRANCH  15  21
ATOM     16  C   UNL     1       2.251  -1.083   2.368  0.00  0.00    +0.000 A 
ATOM     17  C   UNL     1       2.568  -1.946   3.429  0.00  0.00    +0.000 A 
ATOM     18  C   UNL     1       3.866  -1.968   3.955  0.00  0.00    +0.000 A 
ATOM     19  C   UNL     1       4.837  -1.126   3.433  0.00  0.00    +0.000 A 
ATOM     20  C   UNL     1       4.538  -0.273   2.374  0.00  0.00    +0.000 A 
ATOM     21  C   UNL     1       3.239  -0.224   1.814  0.00  0.00    +0.000 A 
BRANCH  16  22
ATOM     22  O   UNL     1       0.975  -1.037   1.893  0.00  0.00    +0.000 OA
BRANCH  22  24
ATOM     23  C   UNL     1       0.087  -1.147  -0.315  0.00  0.00    +0.000 C 
ATOM     24  C   UNL     1       0.416  -1.910   0.969  0.00  0.00    +0.000 C 
ENDBRANCH  22  24
ENDBRANCH  16  22
ENDBRANCH  15  21
ENDBRANCH   1  15
TORSDOF 6
