REMARK  Name = 
REMARK  9 active torsions:
REMARK  status: ('A' for Active; 'I' for Inactive)
REMARK    1  A    between atoms: N_1  and  C_2
REMARK    2  A    between atoms: C_2  and  C_3
REMARK    3  A    between atoms: C_3  and  C_4
REMARK    4  A    between atoms: C_4  and  C_5
REMARK    5  A    between atoms: C_5  and  C_6
REMARK    6  A    between atoms: C_6  and  C_7
REMARK    7  A    between atoms: C_10  and  N_11
REMARK    8  A    between atoms: N_14  and  C_15
REMARK    9  A    between atoms: C_18  and  N_19
REMARK                            x       y       z     vdW  Elec       q    Type
REMARK                         _______ _______ _______ _____ _____    ______ ____
ROOT
ATOM      1  C   UNL     1       1.079   5.752   5.428  0.00  0.00    +0.000 A 
ATOM      2  C   UNL     1       0.477   4.930   6.407  0.00  0.00    +0.000 A 
ATOM      3  C   UNL     1       0.117   3.566   6.154  0.00  0.00    +0.000 A 
ATOM      4  C   UNL     1       0.437   2.959   4.918  0.00  0.00    +0.000 A 
ATOM      5  C   UNL     1       1.208   3.772   4.035  0.00  0.00    +0.000 A 
ATOM      6  C   UNL     1       1.478   5.140   4.240  0.00  0.00    +0.000 A 
ENDROOT
BRANCH   4   7
ATOM      7  N   UNL     1       0.035   1.611   4.468  0.00  0.00    +0.000 NA
ATOM      8  C   UNL     1      -0.948   0.721   4.621  0.00  0.00    +0.000 A 
ATOM      9  C   UNL     1      -1.126  -0.053   3.433  0.00  0.00    +0.000 A 
ATOM     10  C   UNL     1      -0.236  -1.029   2.950  0.00  0.00    +0.000 A 
ATOM     11  C   UNL     1      -0.634  -1.858   1.878  0.00  0.00    +0.000 A 
ATOM     12  C   UNL     1      -1.887  -1.695   1.269  0.00  0.00    +0.000 A 
ATOM     13  C   UNL     1      -2.724  -0.649   1.673  0.00  0.00    +0.000 A 
ATOM     14  C   UNL     1      -2.351   0.181   2.709  0.00  0.00    +0.000 A 
ATOM     15  N   UNL     1      -3.148   1.244   3.061  0.00  0.00    +0.000 N 
ATOM     16  C   UNL     1      -3.359   1.252   4.356  0.00  0.00    +0.000 A 
ATOM     17  C   UNL     1      -4.698   1.222   4.701  0.00  0.00    +0.000 A 
ATOM     18  C   UNL     1      -5.081   0.581   5.851  0.00  0.00    +0.000 A 
ATOM     19  C   UNL     1      -4.100  -0.056   6.611  0.00  0.00    +0.000 A 
ATOM     20  C   UNL     1      -2.716   0.106   6.309  0.00  0.00    +0.000 A 
ATOM     21  C   UNL     1      -2.269   0.924   5.224  0.00  0.00    +0.000 A 
ATOM     22  H   UNL     1      -2.464   1.999   3.011  0.00  0.00    +0.000 HD
ENDBRANCH   4   7
BRANCH   1  26
ATOM     23  N   UNL     1      -0.032   8.325   3.810  0.00  0.00    +0.000 N 
ATOM     24  C   UNL     1       0.830   8.293   4.901  0.00  0.00    +0.000 C 
ATOM     25  O   UNL     1       1.263   9.375   5.269  0.00  0.00    +0.000 OA
ATOM     26  N   UNL     1       1.257   7.173   5.636  0.00  0.00    +0.000 N 
ATOM     27  H   UNL     1      -0.109   9.229   3.323  0.00  0.00    +0.000 HD
ATOM     28  H   UNL     1       1.794   7.400   6.487  0.00  0.00    +0.000 HD
BRANCH  23  32
ATOM     29  C   UNL     1      -1.606   4.931   1.913  0.00  0.00    +0.000 A 
ATOM     30  C   UNL     1      -1.640   5.021   3.315  0.00  0.00    +0.000 A 
ATOM     31  C   UNL     1      -1.236   6.185   3.945  0.00  0.00    +0.000 A 
ATOM     32  C   UNL     1      -0.738   7.248   3.201  0.00  0.00    +0.000 A 
ATOM     33  C   UNL     1      -0.912   7.239   1.806  0.00  0.00    +0.000 A 
ATOM     34  C   UNL     1      -1.340   6.079   1.162  0.00  0.00    +0.000 A 
BRANCH  29  35
ATOM     35  C   UNL     1      -1.788   3.582   1.285  0.00  0.00    +0.000 C 
BRANCH  35  36
ATOM     36  C   UNL     1      -1.081   3.249  -0.037  0.00  0.00    +0.000 C 
BRANCH  36  37
ATOM     37  C   UNL     1       0.469   3.283   0.043  0.00  0.00    +0.000 C 
BRANCH  37  38
ATOM     38  C   UNL     1       1.138   2.186   0.924  0.00  0.00    +0.000 C 
BRANCH  38  39
ATOM     39  C   UNL     1       0.952   0.722   0.545  0.00  0.00    +0.000 C 
BRANCH  39  40
ATOM     40  N   UNL     1       1.494   0.388  -0.755  0.00  0.00    +0.000 NA
ATOM     41  H   UNL     1       0.977   0.922  -1.487  0.00  0.00    +0.000 HD
ATOM     42  H   UNL     1       2.512   0.624  -0.778  0.00  0.00    +0.000 HD
ENDBRANCH  39  40
ENDBRANCH  38  39
ENDBRANCH  37  38
ENDBRANCH  36  37
ENDBRANCH  35  36
ENDBRANCH  29  35
ENDBRANCH  23  32
ENDBRANCH   1  26
TORSDOF 9
