REMARK  Name = 
REMARK  28 active torsions:
REMARK  status: ('A' for Active; 'I' for Inactive)
REMARK    1  A    between atoms: C_1  and  C_2
REMARK    2  A    between atoms: C_2  and  N_3
REMARK    3  A    between atoms: N_3  and  C_4
REMARK    4  A    between atoms: N_3  and  C_45
REMARK    5  A    between atoms: C_4  and  C_5
REMARK    6  A    between atoms: C_5  and  C_6
REMARK    7  A    between atoms: C_6  and  C_7
REMARK    8  A    between atoms: C_7  and  C_8
REMARK    9  A    between atoms: C_8  and  C_9
REMARK   10  A    between atoms: N_11  and  C_12
REMARK   11  A    between atoms: C_15  and  C_16
REMARK   12  A    between atoms: C_16  and  C_17
REMARK   13  A    between atoms: C_20  and  N_21
REMARK   14  A    between atoms: C_22  and  C_24
REMARK   15  A    between atoms: C_24  and  C_25
REMARK   16  A    between atoms: C_25  and  C_26
REMARK   17  A    between atoms: C_26  and  C_27
REMARK   18  A    between atoms: C_27  and  C_28
REMARK   19  A    between atoms: C_28  and  N_29
REMARK   20  A    between atoms: N_29  and  C_30
REMARK   21  A    between atoms: N_29  and  C_32
REMARK   22  A    between atoms: C_30  and  C_31
REMARK   23  A    between atoms: C_32  and  C_33
REMARK   24  A    between atoms: C_38  and  O_39
REMARK   25  A    between atoms: O_39  and  C_40
REMARK   26  A    between atoms: C_45  and  C_46
REMARK   27  A    between atoms: C_51  and  O_52
REMARK   28  A    between atoms: O_52  and  C_53
REMARK                            x       y       z     vdW  Elec       q    Type
REMARK                         _______ _______ _______ _____ _____    ______ ____
ROOT
ATOM      1  C   UNL     1      -1.102  -4.249   0.217  0.00  0.00    +0.000 C 
ENDROOT
BRANCH   1   5
ATOM      2  C   UNL     1       1.334  -5.592   3.535  0.00  0.00    +0.000 A 
ATOM      3  C   UNL     1      -0.047  -5.900   3.531  0.00  0.00    +0.000 A 
ATOM      4  C   UNL     1      -0.866  -5.499   2.446  0.00  0.00    +0.000 A 
ATOM      5  C   UNL     1      -0.304  -4.798   1.366  0.00  0.00    +0.000 A 
ATOM      6  C   UNL     1       1.056  -4.611   1.356  0.00  0.00    +0.000 A 
ATOM      7  C   UNL     1       1.871  -5.017   2.388  0.00  0.00    +0.000 A 
BRANCH   2  10
ATOM      8  C   UNL     1       2.661  -5.322   5.705  0.00  0.00    +0.000 C 
ATOM      9  O   UNL     1       3.475  -5.905   6.409  0.00  0.00    +0.000 OA
ATOM     10  N   UNL     1       2.225  -5.993   4.576  0.00  0.00    +0.000 N 
ATOM     11  H   UNL     1       2.650  -6.922   4.407  0.00  0.00    +0.000 HD
BRANCH   8  12
ATOM     12  C   UNL     1       2.204  -3.947   6.248  0.00  0.00    +0.000 C 
BRANCH  12  13
ATOM     13  C   UNL     1       2.856  -2.666   5.672  0.00  0.00    +0.000 C 
BRANCH  13  14
ATOM     14  C   UNL     1       2.562  -2.481   4.217  0.00  0.00    +0.000 C 
BRANCH  14  15
ATOM     15  C   UNL     1       1.091  -2.145   3.900  0.00  0.00    +0.000 C 
BRANCH  15  16
ATOM     16  C   UNL     1       0.891  -0.647   3.652  0.00  0.00    +0.000 C 
BRANCH  16  17
ATOM     17  N   UNL     1       1.399  -0.194   2.324  0.00  0.00    +0.000 NA
BRANCH  17  19
ATOM     18  C   UNL     1       0.907   0.124  -0.089  0.00  0.00    +0.000 C 
ATOM     19  C   UNL     1       0.479  -0.507   1.220  0.00  0.00    +0.000 C 
ENDBRANCH  17  19
BRANCH  17  20
ATOM     20  C   UNL     1       2.868  -0.045   2.047  0.00  0.00    +0.000 C 
BRANCH  20  21
ATOM     21  C   UNL     1       3.695  -1.252   1.495  0.00  0.00    +0.000 A 
ATOM     22  C   UNL     1       3.149  -2.248   0.671  0.00  0.00    +0.000 A 
ATOM     23  C   UNL     1       3.885  -3.368   0.270  0.00  0.00    +0.000 A 
ATOM     24  C   UNL     1       5.190  -3.549   0.699  0.00  0.00    +0.000 A 
ATOM     25  C   UNL     1       5.792  -2.557   1.442  0.00  0.00    +0.000 A 
ATOM     26  C   UNL     1       5.085  -1.391   1.808  0.00  0.00    +0.000 A 
BRANCH  26  27
ATOM     27  O   UNL     1       5.772  -0.404   2.428  0.00  0.00    +0.000 OA
ATOM     28  C   UNL     1       5.753   0.899   1.952  0.00  0.00    +0.000 C 
ENDBRANCH  26  27
ENDBRANCH  20  21
ENDBRANCH  17  20
ENDBRANCH  16  17
ENDBRANCH  15  16
ENDBRANCH  14  15
ENDBRANCH  13  14
ENDBRANCH  12  13
ENDBRANCH   8  12
ENDBRANCH   2  10
ENDBRANCH   1   5
BRANCH   1  29
ATOM     29  C   UNL     1      -0.701  -4.845  -1.109  0.00  0.00    +0.000 A 
ATOM     30  C   UNL     1       0.466  -4.468  -1.824  0.00  0.00    +0.000 A 
ATOM     31  C   UNL     1       0.713  -4.982  -3.107  0.00  0.00    +0.000 A 
ATOM     32  C   UNL     1      -0.200  -5.863  -3.695  0.00  0.00    +0.000 A 
ATOM     33  C   UNL     1      -1.302  -6.298  -2.942  0.00  0.00    +0.000 A 
ATOM     34  C   UNL     1      -1.563  -5.776  -1.680  0.00  0.00    +0.000 A 
BRANCH  32  35
ATOM     35  N   UNL     1      -0.124  -6.271  -5.056  0.00  0.00    +0.000 N 
ATOM     36  C   UNL     1       0.156  -5.489  -6.153  0.00  0.00    +0.000 C 
ATOM     37  O   UNL     1       0.140  -6.032  -7.249  0.00  0.00    +0.000 OA
ATOM     38  H   UNL     1      -0.448  -7.229  -5.256  0.00  0.00    +0.000 HD
BRANCH  36  39
ATOM     39  C   UNL     1       0.398  -3.974  -6.165  0.00  0.00    +0.000 C 
BRANCH  39  40
ATOM     40  C   UNL     1      -0.880  -3.121  -6.006  0.00  0.00    +0.000 C 
BRANCH  40  41
ATOM     41  C   UNL     1      -1.519  -3.097  -4.605  0.00  0.00    +0.000 C 
BRANCH  41  42
ATOM     42  C   UNL     1      -0.694  -2.304  -3.554  0.00  0.00    +0.000 C 
BRANCH  42  43
ATOM     43  C   UNL     1      -0.518  -0.788  -3.663  0.00  0.00    +0.000 C 
BRANCH  43  44
ATOM     44  N   UNL     1      -1.571   0.006  -2.985  0.00  0.00    +0.000 NA
BRANCH  44  45
ATOM     45  C   UNL     1      -1.094   1.401  -2.689  0.00  0.00    +0.000 C 
ATOM     46  C   UNL     1      -0.213   2.083  -3.751  0.00  0.00    +0.000 C 
ENDBRANCH  44  45
BRANCH  44  47
ATOM     47  C   UNL     1      -2.937  -0.142  -3.557  0.00  0.00    +0.000 C 
BRANCH  47  48
ATOM     48  C   UNL     1      -3.012   0.551  -4.887  0.00  0.00    +0.000 A 
ATOM     49  C   UNL     1      -2.679  -0.199  -6.026  0.00  0.00    +0.000 A 
ATOM     50  C   UNL     1      -2.370   0.405  -7.235  0.00  0.00    +0.000 A 
ATOM     51  C   UNL     1      -2.412   1.786  -7.332  0.00  0.00    +0.000 A 
ATOM     52  C   UNL     1      -2.848   2.550  -6.241  0.00  0.00    +0.000 A 
ATOM     53  C   UNL     1      -3.184   1.948  -5.016  0.00  0.00    +0.000 A 
BRANCH  53  54
ATOM     54  O   UNL     1      -3.631   2.771  -4.012  0.00  0.00    +0.000 OA
ATOM     55  C   UNL     1      -4.441   2.441  -2.928  0.00  0.00    +0.000 C 
ENDBRANCH  53  54
ENDBRANCH  47  48
ENDBRANCH  44  47
ENDBRANCH  43  44
ENDBRANCH  42  43
ENDBRANCH  41  42
ENDBRANCH  40  41
ENDBRANCH  39  40
ENDBRANCH  36  39
ENDBRANCH  32  35
ENDBRANCH   1  29
TORSDOF 24
