REMARK  Name = 
REMARK  14 active torsions:
REMARK  status: ('A' for Active; 'I' for Inactive)
REMARK    1  A    between atoms: C_1  and  O_2
REMARK    2  A    between atoms: O_2  and  C_3
REMARK    3  A    between atoms: C_8  and  N_9
REMARK    4  A    between atoms: N_12  and  C_13
REMARK    5  A    between atoms: C_13  and  C_14
REMARK    6  A    between atoms: C_14  and  C_15
REMARK    7  A    between atoms: C_15  and  C_16
REMARK    8  A    between atoms: C_16  and  N_17
REMARK    9  A    between atoms: C_18  and  C_20
REMARK   10  A    between atoms: C_21  and  C_22
REMARK   11  A    between atoms: C_26  and  O_27
REMARK   12  A    between atoms: O_27  and  C_28
REMARK   13  A    between atoms: C_29  and  O_30
REMARK   14  A    between atoms: O_30  and  C_31
REMARK                            x       y       z     vdW  Elec       q    Type
REMARK                         _______ _______ _______ _____ _____    ______ ____
ROOT
ATOM      1  C   UNL     1       7.042  -3.158  -0.642  0.00  0.00    +0.000 C 
ENDROOT
BRANCH   1   2
ATOM      2  N   UNL     1       8.346  -3.344  -0.078  0.00  0.00    +0.000 N 
ATOM      3  C   UNL     1       8.640  -4.161   0.984  0.00  0.00    +0.000 C 
ATOM      4  O   UNL     1       9.795  -4.157   1.381  0.00  0.00    +0.000 OA
ATOM      5  H   UNL     1       9.109  -2.796  -0.503  0.00  0.00    +0.000 HD
BRANCH   3   6
ATOM      6  C   UNL     1       7.703  -5.091   1.721  0.00  0.00    +0.000 C 
ATOM      7  C   UNL     1       6.398  -5.419   1.506  0.00  0.00    +0.000 C 
BRANCH   7   8
ATOM      8  C   UNL     1       5.660  -6.416   2.337  0.00  0.00    +0.000 A 
ATOM      9  C   UNL     1       4.503  -7.027   1.824  0.00  0.00    +0.000 A 
ATOM     10  C   UNL     1       3.822  -7.999   2.566  0.00  0.00    +0.000 A 
ATOM     11  I   UNL     1       2.119  -8.920   1.702  0.00  0.00    +0.000 I 
ATOM     12  C   UNL     1       4.261  -8.364   3.851  0.00  0.00    +0.000 A 
ATOM     13  C   UNL     1       5.403  -7.716   4.395  0.00  0.00    +0.000 A 
ATOM     14  C   UNL     1       6.085  -6.762   3.621  0.00  0.00    +0.000 A 
BRANCH  12  15
ATOM     15  O   UNL     1       3.558  -9.333   4.501  0.00  0.00    +0.000 OA
ATOM     16  C   UNL     1       3.837  -9.888   5.733  0.00  0.00    +0.000 C 
ENDBRANCH  12  15
BRANCH  13  17
ATOM     17  O   UNL     1       5.816  -8.000   5.660  0.00  0.00    +0.000 OA
ATOM     18  C   UNL     1       6.817  -7.337   6.342  0.00  0.00    +0.000 C 
ENDBRANCH  13  17
ENDBRANCH   7   8
ENDBRANCH   3   6
ENDBRANCH   1   2
BRANCH   1  19
ATOM     19  C   UNL     1       6.193  -2.350   0.342  0.00  0.00    +0.000 C 
BRANCH  19  20
ATOM     20  C   UNL     1       6.113  -0.835  -0.001  0.00  0.00    +0.000 C 
BRANCH  20  21
ATOM     21  C   UNL     1       5.328  -0.482  -1.292  0.00  0.00    +0.000 C 
BRANCH  21  25
ATOM     22  N   UNL     1       2.302  -0.586   1.172  0.00  0.00    +0.000 N 
ATOM     23  C   UNL     1       3.060  -1.755   0.812  0.00  0.00    +0.000 C 
ATOM     24  C   UNL     1       3.237  -1.796  -0.721  0.00  0.00    +0.000 C 
ATOM     25  N   UNL     1       3.850  -0.553  -1.208  0.00  0.00    +0.000 NA
ATOM     26  C   UNL     1       3.116   0.655  -0.780  0.00  0.00    +0.000 C 
ATOM     27  C   UNL     1       2.864   0.688   0.743  0.00  0.00    +0.000 C 
BRANCH  22  33
ATOM     28  C   UNL     1       0.210  -0.342   2.461  0.00  0.00    +0.000 A 
ATOM     29  C   UNL     1      -0.470  -0.518   3.673  0.00  0.00    +0.000 A 
ATOM     30  C   UNL     1       0.175  -1.045   4.796  0.00  0.00    +0.000 A 
ATOM     31  C   UNL     1       1.520  -1.387   4.733  0.00  0.00    +0.000 A 
ATOM     32  C   UNL     1       2.224  -1.202   3.547  0.00  0.00    +0.000 A 
ATOM     33  C   UNL     1       1.586  -0.678   2.398  0.00  0.00    +0.000 A 
BRANCH  28  35
ATOM     34  C   UNL     1      -0.328  -0.103   0.047  0.00  0.00    +0.000 C 
ATOM     35  O   UNL     1      -0.523   0.108   1.403  0.00  0.00    +0.000 OA
ENDBRANCH  28  35
ENDBRANCH  22  33
ENDBRANCH  21  25
ENDBRANCH  20  21
ENDBRANCH  19  20
ENDBRANCH   1  19
TORSDOF 11
