REMARK  Name = 
REMARK  8 active torsions:
REMARK  status: ('A' for Active; 'I' for Inactive)
REMARK    1  A    between atoms: C_1  and  O_2
REMARK    2  A    between atoms: O_2  and  C_3
REMARK    3  A    between atoms: C_13  and  C_14
REMARK    4  A    between atoms: N_16  and  C_17
REMARK    5  A    between atoms: C_17  and  C_18
REMARK    6  A    between atoms: C_18  and  N_19
REMARK    7  A    between atoms: N_19  and  C_20
REMARK    8  A    between atoms: N_19  and  C_21
REMARK                            x       y       z     vdW  Elec       q    Type
REMARK                         _______ _______ _______ _____ _____    ______ ____
ROOT
ATOM      1  C   UNL     1       1.264  -1.750  -2.130  0.00  0.00    +0.000 A 
ATOM      2  C   UNL     1       2.489  -1.405  -2.725  0.00  0.00    +0.000 A 
ATOM      3  C   UNL     1       2.698  -1.623  -4.087  0.00  0.00    +0.000 A 
ATOM      4  C   UNL     1       1.681  -2.164  -4.880  0.00  0.00    +0.000 A 
ATOM      5  C   UNL     1       0.449  -2.499  -4.312  0.00  0.00    +0.000 A 
ATOM      6  C   UNL     1      -0.618  -2.964  -5.095  0.00  0.00    +0.000 A 
ATOM      7  C   UNL     1      -1.880  -3.186  -4.514  0.00  0.00    +0.000 A 
ATOM      8  C   UNL     1      -2.962  -3.564  -5.313  0.00  0.00    +0.000 A 
ATOM      9  C   UNL     1      -4.219  -3.737  -4.749  0.00  0.00    +0.000 A 
ATOM     10  C   UNL     1      -4.422  -3.511  -3.390  0.00  0.00    +0.000 A 
ATOM     11  C   UNL     1      -3.378  -3.101  -2.528  0.00  0.00    +0.000 A 
ATOM     12  C   UNL     1      -2.060  -2.979  -3.122  0.00  0.00    +0.000 A 
ATOM     13  N   UNL     1      -0.961  -2.627  -2.396  0.00  0.00    +0.000 NA
ATOM     14  C   UNL     1       0.249  -2.327  -2.931  0.00  0.00    +0.000 A 
ENDROOT
BRANCH  11  15
ATOM     15  C   UNL     1      -3.821  -2.776  -1.091  0.00  0.00    +0.000 C 
ATOM     16  O   UNL     1      -4.838  -3.334  -0.685  0.00  0.00    +0.000 OA
ATOM     17  N   UNL     1      -3.228  -1.875  -0.237  0.00  0.00    +0.000 N 
ATOM     18  H   UNL     1      -3.609  -1.787   0.717  0.00  0.00    +0.000 HD
BRANCH  17  19
ATOM     19  C   UNL     1      -2.067  -1.086  -0.587  0.00  0.00    +0.000 C 
BRANCH  19  20
ATOM     20  C   UNL     1      -1.981   0.404  -0.287  0.00  0.00    +0.000 C 
BRANCH  20  21
ATOM     21  N   UNL     1      -1.595   0.754   1.088  0.00  0.00    +0.000 NA
ATOM     22  C   UNL     1      -1.146   2.158   1.079  0.00  0.00    +0.000 C 
ATOM     23  C   UNL     1      -2.715   0.568   2.016  0.00  0.00    +0.000 C 
ENDBRANCH  20  21
ENDBRANCH  19  20
ENDBRANCH  17  19
ENDBRANCH  11  15
BRANCH   1  25
ATOM     24  C   UNL     1       1.620  -0.490  -0.076  0.00  0.00    +0.000 C 
ATOM     25  O   UNL     1       1.009  -1.481  -0.828  0.00  0.00    +0.000 OA
ENDBRANCH   1  25
TORSDOF 5
