REMARK  Name = 
REMARK  1 active torsions:
REMARK  status: ('A' for Active; 'I' for Inactive)
REMARK    1  A    between atoms: C_6  and  N_7
REMARK                            x       y       z     vdW  Elec       q    Type
REMARK                         _______ _______ _______ _____ _____    ______ ____
ROOT
ATOM      1  C   UNL     1      -2.151  -0.634  -0.089  0.00  0.00    +0.000 A 
ATOM      2  C   UNL     1      -0.963  -1.385  -0.064  0.00  0.00    +0.000 A 
ATOM      3  C   UNL     1       0.257  -0.709  -0.039  0.00  0.00    +0.000 A 
ATOM      4  C   UNL     1       0.303   0.665  -0.014  0.00  0.00    +0.000 A 
ATOM      5  C   UNL     1      -0.856   1.426  -0.008  0.00  0.00    +0.000 A 
ATOM      6  C   UNL     1      -2.116   0.781  -0.068  0.00  0.00    +0.000 A 
ATOM      7  C   UNL     1       1.695   1.160   0.126  0.00  0.00    +0.000 C 
ATOM      8  C   UNL     1       2.489  -0.078  -0.292  0.00  0.00    +0.000 C 
ATOM      9  C   UNL     1       1.623  -1.282   0.095  0.00  0.00    +0.000 C 
ENDROOT
BRANCH   6  10
ATOM     10  N   UNL     1      -3.344   1.513  -0.013  0.00  0.00    +0.000 N 
ATOM     11  C   UNL     1      -3.441   2.932  -0.134  0.00  0.00    +0.000 C 
ATOM     12  N   UNL     1      -4.340   3.604   0.473  0.00  0.00    +0.000 NA
ATOM     13  C   UNL     1      -4.159   5.018   0.227  0.00  0.00    +0.000 C 
ATOM     14  C   UNL     1      -2.941   5.104  -0.709  0.00  0.00    +0.000 C 
ATOM     15  N   UNL     1      -2.582   3.731  -0.905  0.00  0.00    +0.000 N 
ATOM     16  H   UNL     1      -4.192   1.001   0.269  0.00  0.00    +0.000 HD
ATOM     17  H   UNL     1      -1.840   3.404  -1.540  0.00  0.00    +0.000 HD
ENDBRANCH   6  10
TORSDOF 1
