REMARK  Name = 
REMARK  25 active torsions:
REMARK  status: ('A' for Active; 'I' for Inactive)
REMARK    1  A    between atoms: C_1  and  C_2
REMARK    2  A    between atoms: C_2  and  C_3
REMARK    3  A    between atoms: C_3  and  C_4
REMARK    4  A    between atoms: C_4  and  C_5
REMARK    5  A    between atoms: C_5  and  C_6
REMARK    6  A    between atoms: C_6  and  N_7
REMARK    7  A    between atoms: N_7  and  C_8
REMARK    8  A    between atoms: N_7  and  C_9
REMARK    9  A    between atoms: C_9  and  C_10
REMARK   10  A    between atoms: C_10  and  C_12
REMARK   11  A    between atoms: C_12  and  C_13
REMARK   12  A    between atoms: C_12  and  N_17
REMARK   13  A    between atoms: C_13  and  C_14
REMARK   14  A    between atoms: C_14  and  O_16
REMARK   15  A    between atoms: C_18  and  C_20
REMARK   16  A    between atoms: C_20  and  C_21
REMARK   17  A    between atoms: C_20  and  N_23
REMARK   18  A    between atoms: C_21  and  C_22
REMARK   19  A    between atoms: C_25  and  C_26
REMARK   20  A    between atoms: C_26  and  C_27
REMARK   21  A    between atoms: C_26  and  C_28
REMARK   22  A    between atoms: C_26  and  C_29
REMARK   23  A    between atoms: N_32  and  C_33
REMARK   24  A    between atoms: C_33  and  C_34
REMARK   25  A    between atoms: C_38  and  C_39
REMARK                            x       y       z     vdW  Elec       q    Type
REMARK                         _______ _______ _______ _____ _____    ______ ____
ROOT
ATOM      1  C   UNL     1      -0.381   6.633   1.862  0.00  0.00    +0.000 C 
ENDROOT
BRANCH   1   2
ATOM      2  N   UNL     1       0.546   7.780   1.785  0.00  0.00    +0.000 N 
ATOM      3  C   UNL     1      -0.043   9.015   1.678  0.00  0.00    +0.000 A 
ATOM      4  C   UNL     1       0.728  10.166   1.472  0.00  0.00    +0.000 A 
ATOM      5  N   UNL     1       2.085  10.018   1.304  0.00  0.00    +0.000 NA
ATOM      6  C   UNL     1       2.679   8.818   1.423  0.00  0.00    +0.000 A 
ATOM      7  N   UNL     1       4.064   8.642   1.157  0.00  0.00    +0.000 N 
ATOM      8  C   UNL     1       1.919   7.703   1.734  0.00  0.00    +0.000 A 
ATOM      9  O   UNL     1       2.492   6.642   1.906  0.00  0.00    +0.000 OA
ATOM     10  H   UNL     1       4.441   7.715   1.315  0.00  0.00    +0.000 HD
BRANCH   4  11
ATOM     11  C   UNL     1       0.082  11.545   1.484  0.00  0.00    +0.000 C 
ATOM     12  C   UNL     1      -1.016  11.665   0.404  0.00  0.00    +0.000 C 
ATOM     13  C   UNL     1      -0.536  11.776   2.881  0.00  0.00    +0.000 C 
ATOM     14  C   UNL     1       1.149  12.628   1.230  0.00  0.00    +0.000 C 
ENDBRANCH   4  11
BRANCH   7  15
ATOM     15  C   UNL     1       4.923   9.649   0.622  0.00  0.00    +0.000 C 
BRANCH  15  16
ATOM     16  C   UNL     1       6.292   9.115   0.226  0.00  0.00    +0.000 A 
ATOM     17  N   UNL     1       7.277   9.987  -0.060  0.00  0.00    +0.000 NA
ATOM     18  O   UNL     1       8.333   9.288  -0.347  0.00  0.00    +0.000 OA
ATOM     19  N   UNL     1       8.136   8.007  -0.289  0.00  0.00    +0.000 NA
ATOM     20  C   UNL     1       6.850   7.822   0.057  0.00  0.00    +0.000 A 
ATOM     21  C   UNL     1       6.325   6.402   0.141  0.00  0.00    +0.000 C 
ENDBRANCH  15  16
ENDBRANCH   7  15
ENDBRANCH   1   2
BRANCH   1  23
ATOM     22  N   UNL     1      -0.748   6.610  -0.730  0.00  0.00    +0.000 N 
ATOM     23  C   UNL     1      -1.228   6.637   0.574  0.00  0.00    +0.000 C 
ATOM     24  O   UNL     1      -2.427   6.806   0.727  0.00  0.00    +0.000 OA
ATOM     25  H   UNL     1      -1.441   6.878  -1.427  0.00  0.00    +0.000 HD
BRANCH  22  26
ATOM     26  C   UNL     1       0.625   6.482  -1.239  0.00  0.00    +0.000 C 
BRANCH  26  27
ATOM     27  C   UNL     1       0.981   5.118  -1.891  0.00  0.00    +0.000 C 
ATOM     28  O   UNL     1       1.995   4.601  -1.441  0.00  0.00    +0.000 OA
BRANCH  27  29
ATOM     29  C   UNL     1       0.403   4.371  -3.119  0.00  0.00    +0.000 C 
BRANCH  29  30
ATOM     30  N   UNL     1      -0.996   3.873  -3.127  0.00  0.00    +0.000 NA
ATOM     31  C   UNL     1      -1.976   4.932  -3.395  0.00  0.00    +0.000 C 
BRANCH  30  32
ATOM     32  C   UNL     1      -1.429   2.978  -2.031  0.00  0.00    +0.000 C 
BRANCH  32  33
ATOM     33  C   UNL     1      -1.033   1.489  -2.225  0.00  0.00    +0.000 C 
BRANCH  33  34
ATOM     34  C   UNL     1       0.463   1.123  -2.138  0.00  0.00    +0.000 C 
BRANCH  34  35
ATOM     35  C   UNL     1       1.130   1.593  -0.836  0.00  0.00    +0.000 C 
BRANCH  35  37
ATOM     36  C   UNL     1       1.057  -0.576   0.441  0.00  0.00    +0.000 C 
ATOM     37  C   UNL     1       0.635   0.884   0.431  0.00  0.00    +0.000 C 
ENDBRANCH  35  37
ENDBRANCH  34  35
ENDBRANCH  33  34
ENDBRANCH  32  33
ENDBRANCH  30  32
ENDBRANCH  29  30
ENDBRANCH  27  29
ENDBRANCH  26  27
BRANCH  26  38
ATOM     38  C   UNL     1       1.029   7.687  -2.128  0.00  0.00    +0.000 C 
BRANCH  38  39
ATOM     39  C   UNL     1       0.413   7.727  -3.502  0.00  0.00    +0.000 C 
ATOM     40  O   UNL     1      -0.483   8.517  -3.752  0.00  0.00    +0.000 OA
BRANCH  39  41
ATOM     41  O   UNL     1       0.959   7.001  -4.499  0.00  0.00    +0.000 OA
ATOM     42  H   UNL     1       0.575   6.957  -5.386  0.00  0.00    +0.000 HD
ENDBRANCH  39  41
ENDBRANCH  38  39
ENDBRANCH  26  38
ENDBRANCH  22  26
ENDBRANCH   1  23
BRANCH   1  43
ATOM     43  C   UNL     1       0.168   5.250   2.329  0.00  0.00    +0.000 C 
ATOM     44  C   UNL     1       0.879   4.394   1.308  0.00  0.00    +0.000 C 
ENDBRANCH   1  43
TORSDOF 18
