REMARK  Name = 
REMARK  6 active torsions:
REMARK  status: ('A' for Active; 'I' for Inactive)
REMARK    1  A    between atoms: C_1  and  N_2
REMARK    2  A    between atoms: N_2  and  C_3
REMARK    3  A    between atoms: N_2  and  C_15
REMARK    4  A    between atoms: C_3  and  C_5
REMARK    5  A    between atoms: C_5  and  C_6
REMARK    6  A    between atoms: C_20  and  N_21
REMARK                            x       y       z     vdW  Elec       q    Type
REMARK                         _______ _______ _______ _____ _____    ______ ____
ROOT
ATOM      1  C   UNL     1       0.976  -0.028   0.428  0.00  0.00    +0.000 C 
ATOM      2  N   UNL     1       0.320   0.793  -0.600  0.00  0.00    +0.000 N 
ENDROOT
BRANCH   2   3
ATOM      3  C   UNL     1       0.798   2.216  -0.783  0.00  0.00    +0.000 C 
ATOM      4  C   UNL     1       0.996   2.827   0.638  0.00  0.00    +0.000 C 
ATOM      5  C   UNL     1       1.602   4.218   0.635  0.00  0.00    +0.000 C 
ATOM      6  C   UNL     1       0.636   5.166  -0.039  0.00  0.00    +0.000 C 
ATOM      7  C   UNL     1       0.483   4.745  -1.492  0.00  0.00    +0.000 C 
ATOM      8  C   UNL     1      -0.017   3.273  -1.721  0.00  0.00    +0.000 C 
BRANCH   8   9
ATOM      9  N   UNL     1       0.035   3.124  -3.222  0.00  0.00    +0.000 NA
ATOM     10  C   UNL     1      -0.674   2.027  -3.869  0.00  0.00    +0.000 C 
ATOM     11  C   UNL     1       0.398   0.990  -4.087  0.00  0.00    +0.000 C 
ATOM     12  C   UNL     1       1.507   1.832  -4.650  0.00  0.00    +0.000 C 
ATOM     13  C   UNL     1       1.389   3.118  -3.832  0.00  0.00    +0.000 C 
ENDBRANCH   8   9
ENDBRANCH   2   3
BRANCH   2  14
ATOM     14  C   UNL     1      -0.788   0.161  -1.274  0.00  0.00    +0.000 C 
ATOM     15  S   UNL     1      -2.098   0.738  -1.072  0.00  0.00    +0.000 S 
BRANCH  14  16
ATOM     16  C   UNL     1      -0.776  -1.361  -1.608  0.00  0.00    +0.000 C 
BRANCH  16  17
ATOM     17  C   UNL     1       0.537  -2.131  -1.894  0.00  0.00    +0.000 A 
ATOM     18  C   UNL     1       1.824  -1.532  -2.021  0.00  0.00    +0.000 A 
ATOM     19  C   UNL     1       2.987  -2.296  -2.234  0.00  0.00    +0.000 A 
ATOM     20  C   UNL     1       2.918  -3.682  -2.331  0.00  0.00    +0.000 A 
ATOM     21  C   UNL     1       1.667  -4.279  -2.222  0.00  0.00    +0.000 A 
ATOM     22  S   UNL     1       1.324  -5.920  -2.299  0.00  0.00    +0.000 S 
ATOM     23  C   UNL     1      -0.335  -5.733  -2.070  0.00  0.00    +0.000 A 
ATOM     24  C   UNL     1      -0.636  -4.378  -1.931  0.00  0.00    +0.000 A 
ATOM     25  C   UNL     1       0.498  -3.541  -2.022  0.00  0.00    +0.000 A 
ENDBRANCH  16  17
ENDBRANCH  14  16
ENDBRANCH   2  14
TORSDOF 5
