REMARK  Name = 
REMARK  13 active torsions:
REMARK  status: ('A' for Active; 'I' for Inactive)
REMARK    1  A    between atoms: C_1  and  O_2
REMARK    2  A    between atoms: O_2  and  C_3
REMARK    3  A    between atoms: C_7  and  C_8
REMARK    4  A    between atoms: C_8  and  C_10
REMARK    5  A    between atoms: C_10  and  C_11
REMARK    6  A    between atoms: C_11  and  C_12
REMARK    7  A    between atoms: C_12  and  C_13
REMARK    8  A    between atoms: C_13  and  C_14
REMARK    9  A    between atoms: N_17  and  C_18
REMARK   10  A    between atoms: N_17  and  C_19
REMARK   11  A    between atoms: C_19  and  C_20
REMARK   12  A    between atoms: C_31  and  O_32
REMARK   13  A    between atoms: O_32  and  C_33
REMARK                            x       y       z     vdW  Elec       q    Type
REMARK                         _______ _______ _______ _____ _____    ______ ____
ROOT
ATOM      1  C   UNL     1       0.916   8.769  -3.014  0.00  0.00    +0.000 C 
ENDROOT
BRANCH   1   2
ATOM      2  C   UNL     1       0.147   8.058  -4.181  0.00  0.00    +0.000 C 
BRANCH   2   3
ATOM      3  C   UNL     1      -0.650   6.785  -3.909  0.00  0.00    +0.000 C 
ATOM      4  O   UNL     1      -1.867   6.856  -3.994  0.00  0.00    +0.000 OA
BRANCH   3   9
ATOM      5  C   UNL     1       0.711   1.211  -1.657  0.00  0.00    +0.000 A 
ATOM      6  C   UNL     1      -0.299   2.091  -2.112  0.00  0.00    +0.000 A 
ATOM      7  C   UNL     1       0.074   3.293  -2.713  0.00  0.00    +0.000 A 
ATOM      8  C   UNL     1      -0.774   4.339  -3.130  0.00  0.00    +0.000 A 
ATOM      9  C   UNL     1      -0.061   5.461  -3.574  0.00  0.00    +0.000 A 
ATOM     10  S   UNL     1       1.566   5.057  -3.570  0.00  0.00    +0.000 S 
ATOM     11  C   UNL     1       1.409   3.574  -2.886  0.00  0.00    +0.000 A 
ATOM     12  C   UNL     1       2.426   2.734  -2.486  0.00  0.00    +0.000 A 
ATOM     13  C   UNL     1       2.091   1.526  -1.866  0.00  0.00    +0.000 A 
BRANCH   5  15
ATOM     14  C   UNL     1       0.287   0.156   0.410  0.00  0.00    +0.000 C 
ATOM     15  O   UNL     1       0.359   0.114  -0.967  0.00  0.00    +0.000 OA
ENDBRANCH   5  15
BRANCH  13  16
ATOM     16  O   UNL     1       3.140   0.745  -1.485  0.00  0.00    +0.000 OA
ATOM     17  C   UNL     1       3.145  -0.611  -1.249  0.00  0.00    +0.000 C 
ENDBRANCH  13  16
ENDBRANCH   3   9
ENDBRANCH   2   3
ENDBRANCH   1   2
BRANCH   1  18
ATOM     18  C   UNL     1       2.142   8.053  -2.418  0.00  0.00    +0.000 C 
BRANCH  18  19
ATOM     19  C   UNL     1       3.185   7.604  -3.464  0.00  0.00    +0.000 C 
BRANCH  19  20
ATOM     20  C   UNL     1       4.301   8.503  -4.044  0.00  0.00    +0.000 C 
ATOM     21  C   UNL     1       3.951   9.927  -4.508  0.00  0.00    +0.000 C 
ATOM     22  C   UNL     1       3.075   9.954  -5.777  0.00  0.00    +0.000 C 
ATOM     23  N   UNL     1       3.630   9.179  -6.928  0.00  0.00    +0.000 N 
ATOM     24  C   UNL     1       4.860   9.836  -7.455  0.00  0.00    +0.000 C 
ATOM     25  C   UNL     1       3.975   7.786  -6.500  0.00  0.00    +0.000 C 
ATOM     26  C   UNL     1       4.920   7.747  -5.248  0.00  0.00    +0.000 C 
BRANCH  23  27
ATOM     27  C   UNL     1       2.665   9.147  -8.087  0.00  0.00    +0.000 C 
BRANCH  27  28
ATOM     28  C   UNL     1       1.235   8.662  -7.834  0.00  0.00    +0.000 A 
ATOM     29  C   UNL     1       0.818   7.409  -8.325  0.00  0.00    +0.000 A 
ATOM     30  C   UNL     1      -0.500   6.973  -8.146  0.00  0.00    +0.000 A 
ATOM     31  C   UNL     1      -1.427   7.783  -7.488  0.00  0.00    +0.000 A 
ATOM     32  C   UNL     1      -1.039   9.039  -7.020  0.00  0.00    +0.000 A 
ATOM     33  C   UNL     1       0.279   9.480  -7.192  0.00  0.00    +0.000 A 
ENDBRANCH  27  28
ENDBRANCH  23  27
ENDBRANCH  19  20
ENDBRANCH  18  19
ENDBRANCH   1  18
TORSDOF 10
