REMARK  Name = 
REMARK  6 active torsions:
REMARK  status: ('A' for Active; 'I' for Inactive)
REMARK    1  A    between atoms: C_1  and  N_2
REMARK    2  A    between atoms: N_2  and  C_3
REMARK    3  A    between atoms: N_2  and  C_4
REMARK    4  A    between atoms: C_7  and  C_8
REMARK    5  A    between atoms: C_9  and  C_10
REMARK    6  A    between atoms: N_19  and  C_20
REMARK                            x       y       z     vdW  Elec       q    Type
REMARK                         _______ _______ _______ _____ _____    ______ ____
ROOT
ATOM      1  C   UNL     1       1.493  -4.340  -4.788  0.00  0.00    +0.000 C 
ATOM      2  C   UNL     1       0.691  -5.004  -5.612  0.00  0.00    +0.000 C 
ENDROOT
BRANCH   2   3
ATOM      3  C   UNL     1       1.488  -5.542  -6.735  0.00  0.00    +0.000 A 
ATOM      4  C   UNL     1       2.401  -5.959  -6.968  0.00  0.00    +0.000 A 
ATOM      5  C   UNL     1       3.397  -5.219  -6.594  0.00  0.00    +0.000 A 
ATOM      6  C   UNL     1       4.171  -5.198  -7.322  0.00  0.00    +0.000 A 
ATOM      7  C   UNL     1       5.662  -5.151  -6.735  0.00  0.00    +0.000 A 
ATOM      8  C   UNL     1       6.951  -4.876  -7.270  0.00  0.00    +0.000 A 
ATOM      9  C   UNL     1       6.859  -4.634  -8.622  0.00  0.00    +0.000 A 
ATOM     10  C   UNL     1       5.375  -4.510  -9.512  0.00  0.00    +0.000 A 
ATOM     11  C   UNL     1       3.533  -4.993  -8.629  0.00  0.00    +0.000 A 
ATOM     12  N   UNL     1       1.147  -5.426  -7.924  0.00  0.00    +0.000 N 
ATOM     13  C   UNL     1      -0.795  -6.002  -7.651  0.00  0.00    +0.000 C 
ENDBRANCH   2   3
BRANCH   1  17
ATOM     14  C   UNL     1       0.856  -2.181  -1.343  0.00  0.00    +0.000 A 
ATOM     15  C   UNL     1      -0.153  -2.856  -2.009  0.00  0.00    +0.000 A 
ATOM     16  C   UNL     1       0.138  -3.664  -3.061  0.00  0.00    +0.000 A 
ATOM     17  C   UNL     1       1.356  -3.677  -3.590  0.00  0.00    +0.000 A 
ATOM     18  C   UNL     1       2.432  -3.004  -2.969  0.00  0.00    +0.000 A 
ATOM     19  C   UNL     1       2.162  -2.258  -1.834  0.00  0.00    +0.000 A 
BRANCH  14  21
ATOM     20  C   UNL     1       1.042  -0.112   0.000  0.00  0.00    +0.000 C 
ATOM     21  N   UNL     1       0.545  -1.454  -0.168  0.00  0.00    +0.000 N 
ATOM     22  C   UNL     1      -0.292  -2.056   0.858  0.00  0.00    +0.000 C 
ENDBRANCH  14  21
ENDBRANCH   1  17
TORSDOF 3
