REMARK  Name = 
REMARK  19 active torsions:
REMARK  status: ('A' for Active; 'I' for Inactive)
REMARK    1  A    between atoms: O_1  and  C_2
REMARK    2  A    between atoms: C_2  and  C_3
REMARK    3  A    between atoms: C_5  and  C_6
REMARK    4  A    between atoms: C_6  and  O_7
REMARK    5  A    between atoms: C_6  and  C_8
REMARK    6  A    between atoms: C_8  and  N_9
REMARK    7  A    between atoms: N_9  and  C_10
REMARK    8  A    between atoms: C_10  and  C_11
REMARK    9  A    between atoms: C_11  and  C_12
REMARK   10  A    between atoms: C_12  and  C_13
REMARK   11  A    between atoms: C_13  and  C_14
REMARK   12  A    between atoms: C_14  and  C_15
REMARK   13  A    between atoms: C_15  and  O_16
REMARK   14  A    between atoms: O_16  and  C_17
REMARK   15  A    between atoms: C_17  and  C_18
REMARK   16  A    between atoms: C_18  and  O_19
REMARK   17  A    between atoms: O_19  and  C_20
REMARK   18  A    between atoms: C_20  and  C_21
REMARK   19  A    between atoms: C_31  and  O_32
REMARK                            x       y       z     vdW  Elec       q    Type
REMARK                         _______ _______ _______ _____ _____    ______ ____
ROOT
ATOM      1  C   UNL     1       6.519   3.796  -1.761  0.00  0.00    +0.000 C 
ENDROOT
BRANCH   1   2
ATOM      2  N   UNL     1       5.456   4.411  -0.935  0.00  0.00    +0.000 NA
ATOM      3  H   UNL     1       4.613   4.632  -1.508  0.00  0.00    +0.000 HD
BRANCH   2   4
ATOM      4  C   UNL     1       5.137   3.652   0.290  0.00  0.00    +0.000 C 
BRANCH   4   5
ATOM      5  C   UNL     1       3.889   4.200   1.005  0.00  0.00    +0.000 C 
BRANCH   5   8
ATOM      6  C   UNL     1       0.942   2.320  -0.625  0.00  0.00    +0.000 A 
ATOM      7  C   UNL     1       2.149   2.591   0.055  0.00  0.00    +0.000 A 
ATOM      8  C   UNL     1       2.602   3.915   0.238  0.00  0.00    +0.000 A 
ATOM      9  C   UNL     1       1.826   4.971  -0.262  0.00  0.00    +0.000 A 
ATOM     10  C   UNL     1       0.637   4.713  -0.949  0.00  0.00    +0.000 A 
ATOM     11  C   UNL     1       0.193   3.394  -1.141  0.00  0.00    +0.000 A 
BRANCH  11  12
ATOM     12  O   UNL     1      -0.968   3.162  -1.791  0.00  0.00    +0.000 OA
ATOM     13  H   UNL     1      -1.522   3.878  -2.136  0.00  0.00    +0.000 HD
ENDBRANCH  11  12
BRANCH   6  14
ATOM     14  C   UNL     1       0.425   0.903  -0.784  0.00  0.00    +0.000 C 
BRANCH  14  15
ATOM     15  O   UNL     1       0.994   0.022   0.147  0.00  0.00    +0.000 OA
ATOM     16  H   UNL     1       1.834  -0.326  -0.249  0.00  0.00    +0.000 HD
ENDBRANCH  14  15
ENDBRANCH   6  14
ENDBRANCH   5   8
BRANCH   5  17
ATOM     17  O   UNL     1       3.805   3.601   2.272  0.00  0.00    +0.000 OA
ATOM     18  H   UNL     1       3.129   4.112   2.788  0.00  0.00    +0.000 HD
ENDBRANCH   5  17
ENDBRANCH   4   5
ENDBRANCH   2   4
ENDBRANCH   1   2
BRANCH   1  19
ATOM     19  C   UNL     1       6.149   2.404  -2.323  0.00  0.00    +0.000 C 
BRANCH  19  20
ATOM     20  C   UNL     1       4.855   2.432  -3.135  0.00  0.00    +0.000 C 
BRANCH  20  21
ATOM     21  C   UNL     1       4.959   3.073  -4.530  0.00  0.00    +0.000 C 
BRANCH  21  22
ATOM     22  C   UNL     1       5.670   2.245  -5.648  0.00  0.00    +0.000 C 
BRANCH  22  23
ATOM     23  C   UNL     1       5.428   0.727  -6.026  0.00  0.00    +0.000 C 
BRANCH  23  24
ATOM     24  O   UNL     1       4.175   0.007  -5.986  0.00  0.00    +0.000 OA
BRANCH  24  25
ATOM     25  C   UNL     1       3.122   0.490  -5.162  0.00  0.00    +0.000 C 
BRANCH  25  26
ATOM     26  C   UNL     1       2.722  -0.278  -3.835  0.00  0.00    +0.000 C 
BRANCH  26  27
ATOM     27  O   UNL     1       3.644  -0.715  -2.842  0.00  0.00    +0.000 OA
BRANCH  27  28
ATOM     28  C   UNL     1       4.898  -1.149  -3.304  0.00  0.00    +0.000 C 
BRANCH  28  29
ATOM     29  C   UNL     1       5.020  -2.616  -3.736  0.00  0.00    +0.000 A 
ATOM     30  C   UNL     1       4.180  -3.277  -4.702  0.00  0.00    +0.000 A 
ATOM     31 CL   UNL     1       2.904  -2.599  -5.698  0.00  0.00    +0.000 Cl
ATOM     32  C   UNL     1       4.343  -4.629  -4.963  0.00  0.00    +0.000 A 
ATOM     33  C   UNL     1       5.352  -5.367  -4.354  0.00  0.00    +0.000 A 
ATOM     34  C   UNL     1       6.228  -4.736  -3.478  0.00  0.00    +0.000 A 
ATOM     35  C   UNL     1       6.080  -3.387  -3.170  0.00  0.00    +0.000 A 
ATOM     36 CL   UNL     1       7.311  -2.723  -2.087  0.00  0.00    +0.000 Cl
ENDBRANCH  28  29
ENDBRANCH  27  28
ENDBRANCH  26  27
ENDBRANCH  25  26
ENDBRANCH  24  25
ENDBRANCH  23  24
ENDBRANCH  22  23
ENDBRANCH  21  22
ENDBRANCH  20  21
ENDBRANCH  19  20
ENDBRANCH   1  19
TORSDOF 19
