REMARK  Name = 
REMARK  1 active torsions:
REMARK  status: ('A' for Active; 'I' for Inactive)
REMARK    1  A    between atoms: C_7  and  C_8
REMARK                            x       y       z     vdW  Elec       q    Type
REMARK                         _______ _______ _______ _____ _____    ______ ____
ROOT
ATOM      1  C   UNL     1      -0.676   2.384   0.045  0.00  0.00    +0.000 C 
ATOM      2  C   UNL     1      -0.988   2.605  -1.481  0.00  0.00    +0.000 C 
ATOM      3  C   UNL     1      -2.477   2.717  -1.771  0.00  0.00    +0.000 C 
ATOM      4  C   UNL     1      -2.976   3.795  -0.878  0.00  0.00    +0.000 C 
ATOM      5  C   UNL     1      -2.763   3.763   0.425  0.00  0.00    +0.000 C 
ATOM      6  C   UNL     1      -1.919   2.638   1.013  0.00  0.00    +0.000 C 
ATOM      7  C   UNL     1      -3.541   4.915   0.898  0.00  0.00    +0.000 C 
ATOM      8  C   UNL     1      -4.079   5.165   2.085  0.00  0.00    +0.000 C 
ATOM      9  N   UNL     1      -5.011   6.189   2.320  0.00  0.00    +0.000 NA
ATOM     10  N   UNL     1      -5.483   5.937   3.443  0.00  0.00    +0.000 NA
ATOM     11  N   UNL     1      -4.905   4.812   3.981  0.00  0.00    +0.000 NA
ATOM     12  N   UNL     1      -4.045   4.335   3.215  0.00  0.00    +0.000 NA
ATOM     13  N   UNL     1      -3.940   5.636  -0.246  0.00  0.00    +0.000 NA
ATOM     14  N   UNL     1      -3.657   4.973  -1.260  0.00  0.00    +0.000 NA
ENDROOT
BRANCH   1  21
ATOM     15  F   UNL     1      -2.026  -0.238  -0.054  0.00  0.00    +0.000 F 
ATOM     16  C   UNL     1      -0.678  -0.196   0.061  0.00  0.00    +0.000 A 
ATOM     17  N   UNL     1       0.008  -1.370   0.040  0.00  0.00    +0.000 NA
ATOM     18  C   UNL     1       1.364  -1.417   0.090  0.00  0.00    +0.000 A 
ATOM     19  C   UNL     1       2.097  -0.236   0.177  0.00  0.00    +0.000 A 
ATOM     20  C   UNL     1       1.423   0.986   0.221  0.00  0.00    +0.000 A 
ATOM     21  C   UNL     1       0.011   1.026   0.169  0.00  0.00    +0.000 A 
ENDBRANCH   1  21
TORSDOF 1
