REMARK  Name = 
REMARK  1 active torsions:
REMARK  status: ('A' for Active; 'I' for Inactive)
REMARK    1  A    between atoms: C_1  and  N_2
REMARK                            x       y       z     vdW  Elec       q    Type
REMARK                         _______ _______ _______ _____ _____    ______ ____
ROOT
ATOM      1  C   UNL     1       0.998  -0.254   0.074  0.00  0.00    +0.000 C 
ATOM      2  N   UNL     1       0.567   1.143   0.256  0.00  0.00    +0.000 N 
ATOM      3  C   UNL     1       1.339   2.242  -0.123  0.00  0.00    +0.000 A 
ATOM      4  C   UNL     1       2.589   2.116  -0.790  0.00  0.00    +0.000 A 
ATOM      5  C   UNL     1       3.328   3.241  -1.160  0.00  0.00    +0.000 A 
ATOM      6  C   UNL     1       2.858   4.519  -0.882  0.00  0.00    +0.000 A 
ATOM      7  C   UNL     1       1.638   4.690  -0.237  0.00  0.00    +0.000 A 
ATOM      8  C   UNL     1       0.872   3.576   0.141  0.00  0.00    +0.000 A 
ATOM      9  C   UNL     1      -0.360   3.778   0.777  0.00  0.00    +0.000 A 
ATOM     10  C   UNL     1      -1.100   2.664   1.120  0.00  0.00    +0.000 A 
ATOM     11  N   UNL     1      -2.299   2.657   1.734  0.00  0.00    +0.000 N 
ATOM     12  C   UNL     1      -2.629   1.358   1.865  0.00  0.00    +0.000 A 
ATOM     13  C   UNL     1      -3.788   0.854   2.453  0.00  0.00    +0.000 A 
ATOM     14  C   UNL     1      -3.957  -0.540   2.494  0.00  0.00    +0.000 A 
ATOM     15 CL   UNL     1      -5.394  -1.225   3.231  0.00  0.00    +0.000 Cl
ATOM     16  C   UNL     1      -2.976  -1.391   1.945  0.00  0.00    +0.000 A 
ATOM     17  C   UNL     1      -1.813  -0.863   1.358  0.00  0.00    +0.000 A 
ATOM     18  C   UNL     1      -1.652   0.531   1.333  0.00  0.00    +0.000 A 
ATOM     19  C   UNL     1      -0.650   1.389   0.856  0.00  0.00    +0.000 A 
ATOM     20  H   UNL     1      -2.856   3.485   2.046  0.00  0.00    +0.000 HD
ENDROOT
TORSDOF 0
