REMARK  Name = 
REMARK  16 active torsions:
REMARK  status: ('A' for Active; 'I' for Inactive)
REMARK    1  A    between atoms: C_1  and  O_2
REMARK    2  A    between atoms: O_2  and  C_3
REMARK    3  A    between atoms: C_7  and  C_8
REMARK    4  A    between atoms: C_8  and  C_10
REMARK    5  A    between atoms: C_10  and  C_11
REMARK    6  A    between atoms: C_11  and  C_12
REMARK    7  A    between atoms: N_15  and  C_16
REMARK    8  A    between atoms: N_15  and  C_17
REMARK    9  A    between atoms: C_17  and  C_18
REMARK   10  A    between atoms: C_18  and  O_20
REMARK   11  A    between atoms: O_20  and  C_21
REMARK   12  A    between atoms: C_21  and  C_22
REMARK   13  A    between atoms: C_21  and  C_23
REMARK   14  A    between atoms: C_21  and  C_24
REMARK   15  A    between atoms: C_30  and  O_31
REMARK   16  A    between atoms: O_31  and  C_32
REMARK                            x       y       z     vdW  Elec       q    Type
REMARK                         _______ _______ _______ _____ _____    ______ ____
ROOT
ATOM      1  C   UNL     1      -0.533  -4.123  -7.689  0.00  0.00    +0.000 C 
ENDROOT
BRANCH   1   2
ATOM      2  C   UNL     1      -1.297  -3.571  -6.465  0.00  0.00    +0.000 C 
ATOM      3  O   UNL     1      -2.515  -3.681  -6.477  0.00  0.00    +0.000 OA
BRANCH   2   8
ATOM      4  C   UNL     1       0.742  -1.728  -0.891  0.00  0.00    +0.000 A 
ATOM      5  C   UNL     1      -0.381  -2.233  -1.604  0.00  0.00    +0.000 A 
ATOM      6  C   UNL     1      -0.233  -2.514  -2.961  0.00  0.00    +0.000 A 
ATOM      7  C   UNL     1      -1.200  -2.989  -3.898  0.00  0.00    +0.000 A 
ATOM      8  C   UNL     1      -0.664  -3.098  -5.199  0.00  0.00    +0.000 A 
ATOM      9  S   UNL     1       0.884  -2.553  -5.085  0.00  0.00    +0.000 S 
ATOM     10  C   UNL     1       0.999  -2.285  -3.522  0.00  0.00    +0.000 A 
ATOM     11  C   UNL     1       2.128  -1.882  -2.862  0.00  0.00    +0.000 A 
ATOM     12  C   UNL     1       2.027  -1.616  -1.511  0.00  0.00    +0.000 A 
BRANCH   4  14
ATOM     13  C   UNL     1       0.391   0.153   0.384  0.00  0.00    +0.000 C 
ATOM     14  O   UNL     1       0.549  -1.223   0.333  0.00  0.00    +0.000 OA
ENDBRANCH   4  14
BRANCH  12  15
ATOM     15  O   UNL     1       3.179  -1.254  -0.885  0.00  0.00    +0.000 OA
ATOM     16  C   UNL     1       3.418  -1.207   0.469  0.00  0.00    +0.000 C 
ENDBRANCH  12  15
ENDBRANCH   2   8
ENDBRANCH   1   2
BRANCH   1  17
ATOM     17  C   UNL     1       0.568  -3.361  -8.512  0.00  0.00    +0.000 C 
BRANCH  17  18
ATOM     18  C   UNL     1       1.930  -3.049  -7.815  0.00  0.00    +0.000 C 
ATOM     19  C   UNL     1       3.092  -2.699  -8.752  0.00  0.00    +0.000 C 
ATOM     20  C   UNL     1       3.574  -3.937  -9.531  0.00  0.00    +0.000 C 
ATOM     21  N   UNL     1       3.894  -5.127  -8.669  0.00  0.00    +0.000 N 
ATOM     22  C   UNL     1       5.182  -4.905  -7.949  0.00  0.00    +0.000 C 
ATOM     23  C   UNL     1       2.840  -5.407  -7.659  0.00  0.00    +0.000 C 
ATOM     24  C   UNL     1       2.442  -4.191  -6.882  0.00  0.00    +0.000 C 
BRANCH  21  25
ATOM     25  C   UNL     1       4.033  -6.348  -9.530  0.00  0.00    +0.000 C 
BRANCH  25  26
ATOM     26  C   UNL     1       2.805  -6.698 -10.395  0.00  0.00    +0.000 C 
ATOM     27  O   UNL     1       2.933  -6.656 -11.604  0.00  0.00    +0.000 OA
BRANCH  26  28
ATOM     28  O   UNL     1       1.606  -7.030  -9.832  0.00  0.00    +0.000 OA
BRANCH  28  29
ATOM     29  C   UNL     1       0.394  -7.330 -10.452  0.00  0.00    +0.000 C 
ATOM     30  C   UNL     1      -0.122  -6.143 -11.293  0.00  0.00    +0.000 C 
ATOM     31  C   UNL     1       0.548  -8.580 -11.329  0.00  0.00    +0.000 C 
ATOM     32  C   UNL     1      -0.658  -7.638  -9.364  0.00  0.00    +0.000 C 
ENDBRANCH  28  29
ENDBRANCH  26  28
ENDBRANCH  25  26
ENDBRANCH  21  25
ENDBRANCH  17  18
ENDBRANCH   1  17
TORSDOF 10
