REMARK  Name = 
REMARK  13 active torsions:
REMARK  status: ('A' for Active; 'I' for Inactive)
REMARK    1  A    between atoms: C_2  and  O_3
REMARK    2  A    between atoms: C_2  and  C_4
REMARK    3  A    between atoms: N_9  and  C_10
REMARK    4  A    between atoms: C_10  and  C_11
REMARK    5  A    between atoms: C_11  and  C_12
REMARK    6  A    between atoms: C_13  and  C_14
REMARK    7  A    between atoms: C_13  and  C_27
REMARK    8  A    between atoms: C_18  and  C_19
REMARK    9  A    between atoms: C_19  and  O_20
REMARK   10  A    between atoms: O_20  and  C_21
REMARK   11  A    between atoms: C_31  and  C_32
REMARK   12  A    between atoms: C_32  and  O_33
REMARK   13  A    between atoms: O_33  and  C_34
REMARK                            x       y       z     vdW  Elec       q    Type
REMARK                         _______ _______ _______ _____ _____    ______ ____
ROOT
ATOM      1  C   UNL     1       4.534   1.062  -1.235  0.00  0.00    +0.000 C 
ATOM      2  C   UNL     1       5.014   0.354  -2.302  0.00  0.00    +0.000 C 
ENDROOT
BRANCH   2   3
ATOM      3  C   UNL     1       5.612  -1.033  -2.092  0.00  0.00    +0.000 A 
ATOM      4  S   UNL     1       6.871  -1.635  -3.030  0.00  0.00    +0.000 S 
ATOM      5  C   UNL     1       7.171  -3.051  -2.195  0.00  0.00    +0.000 A 
ATOM      6  C   UNL     1       6.228  -3.147  -1.201  0.00  0.00    +0.000 A 
ATOM      7  C   UNL     1       5.335  -2.066  -1.152  0.00  0.00    +0.000 A 
BRANCH   7   8
ATOM      8  C   UNL     1       4.166  -2.165  -0.219  0.00  0.00    +0.000 C 
BRANCH   8   9
ATOM      9  O   UNL     1       2.922  -2.591  -0.788  0.00  0.00    +0.000 OA
BRANCH   9  10
ATOM     10  C   UNL     1       2.761  -2.690  -2.213  0.00  0.00    +0.000 C 
ATOM     11  C   UNL     1       1.803  -3.864  -2.487  0.00  0.00    +0.000 C 
ATOM     12  C   UNL     1       1.437  -3.977  -3.980  0.00  0.00    +0.000 C 
ATOM     13  C   UNL     1       0.812  -2.667  -4.489  0.00  0.00    +0.000 C 
ATOM     14  C   UNL     1       1.802  -1.538  -4.294  0.00  0.00    +0.000 C 
ATOM     15  C   UNL     1       2.124  -1.408  -2.812  0.00  0.00    +0.000 C 
ENDBRANCH   9  10
ENDBRANCH   8   9
ENDBRANCH   7   8
ENDBRANCH   2   3
BRANCH   2  16
ATOM     16  C   UNL     1       5.015   0.949  -3.681  0.00  0.00    +0.000 A 
ATOM     17  S   UNL     1       4.579   0.112  -5.069  0.00  0.00    +0.000 S 
ATOM     18  C   UNL     1       4.768   1.366  -6.160  0.00  0.00    +0.000 A 
ATOM     19  C   UNL     1       5.243   2.467  -5.469  0.00  0.00    +0.000 A 
ATOM     20  C   UNL     1       5.419   2.241  -4.093  0.00  0.00    +0.000 A 
BRANCH  20  21
ATOM     21  C   UNL     1       6.089   3.284  -3.224  0.00  0.00    +0.000 C 
BRANCH  21  22
ATOM     22  O   UNL     1       7.333   3.674  -3.793  0.00  0.00    +0.000 OA
BRANCH  22  23
ATOM     23  C   UNL     1       8.445   2.823  -3.493  0.00  0.00    +0.000 C 
ATOM     24  C   UNL     1       9.083   3.159  -2.126  0.00  0.00    +0.000 C 
ATOM     25  C   UNL     1      10.317   2.271  -1.863  0.00  0.00    +0.000 C 
ATOM     26  C   UNL     1       9.958   0.783  -1.953  0.00  0.00    +0.000 C 
ATOM     27  C   UNL     1       9.422   0.484  -3.351  0.00  0.00    +0.000 C 
ATOM     28  C   UNL     1       8.159   1.309  -3.588  0.00  0.00    +0.000 C 
ENDBRANCH  22  23
ENDBRANCH  21  22
ENDBRANCH  20  21
ENDBRANCH   2  16
BRANCH   1  29
ATOM     29  C   UNL     1       3.813   2.428  -1.268  0.00  0.00    +0.000 C 
BRANCH  29  30
ATOM     30  C   UNL     1       2.382   2.568  -0.633  0.00  0.00    +0.000 C 
BRANCH  30  36
ATOM     31  C   UNL     1       2.371   1.149   1.418  0.00  0.00    +0.000 C 
ATOM     32  C   UNL     1       2.422   1.049   2.944  0.00  0.00    +0.000 C 
ATOM     33  C   UNL     1       3.420   2.044   3.505  0.00  0.00    +0.000 C 
ATOM     34  C   UNL     1       2.990   3.438   3.054  0.00  0.00    +0.000 C 
ATOM     35  C   UNL     1       3.096   3.524   1.530  0.00  0.00    +0.000 C 
ATOM     36  N   UNL     1       2.244   2.516   0.866  0.00  0.00    +0.000 NA
BRANCH  31  38
ATOM     37  O   UNL     1       0.094   0.462   1.351  0.00  0.00    +0.000 OA
ATOM     38  C   UNL     1       1.232   0.310   0.923  0.00  0.00    +0.000 C 
BRANCH  38  39
ATOM     39  O   UNL     1       1.429  -0.507  -0.100  0.00  0.00    +0.000 OA
ATOM     40  H   UNL     1       2.279  -0.407  -0.545  0.00  0.00    +0.000 HD
ENDBRANCH  38  39
ENDBRANCH  31  38
ENDBRANCH  30  36
ENDBRANCH  29  30
ENDBRANCH   1  29
TORSDOF 13
