REMARK  Name = 
REMARK  11 active torsions:
REMARK  status: ('A' for Active; 'I' for Inactive)
REMARK    1  A    between atoms: C_1  and  O_2
REMARK    2  A    between atoms: O_2  and  C_3
REMARK    3  A    between atoms: C_8  and  N_9
REMARK    4  A    between atoms: N_12  and  C_13
REMARK    5  A    between atoms: C_13  and  C_14
REMARK    6  A    between atoms: C_14  and  C_15
REMARK    7  A    between atoms: C_15  and  C_16
REMARK    8  A    between atoms: C_16  and  N_17
REMARK    9  A    between atoms: C_18  and  C_20
REMARK   10  A    between atoms: C_20  and  C_21
REMARK   11  A    between atoms: C_21  and  C_22
REMARK                            x       y       z     vdW  Elec       q    Type
REMARK                         _______ _______ _______ _____ _____    ______ ____
ROOT
ATOM      1  C   UNL     1       5.656   0.526   0.353  0.00  0.00    +0.000 C 
ENDROOT
BRANCH   1   5
ATOM      2  N   UNL     1       2.093  -1.277   0.070  0.00  0.00    +0.000 N 
ATOM      3  C   UNL     1       2.737  -0.508  -0.952  0.00  0.00    +0.000 C 
ATOM      4  C   UNL     1       3.240   0.833  -0.448  0.00  0.00    +0.000 C 
ATOM      5  N   UNL     1       4.182   0.565   0.635  0.00  0.00    +0.000 NA
ATOM      6  C   UNL     1       3.546  -0.186   1.734  0.00  0.00    +0.000 C 
ATOM      7  C   UNL     1       2.918  -1.522   1.243  0.00  0.00    +0.000 C 
BRANCH   2  13
ATOM      8  C   UNL     1      -0.154  -2.229  -0.385  0.00  0.00    +0.000 A 
ATOM      9  C   UNL     1      -0.943  -3.211  -0.971  0.00  0.00    +0.000 A 
ATOM     10  C   UNL     1      -0.387  -4.271  -1.686  0.00  0.00    +0.000 A 
ATOM     11  C   UNL     1       0.994  -4.367  -1.822  0.00  0.00    +0.000 A 
ATOM     12  C   UNL     1       1.816  -3.417  -1.210  0.00  0.00    +0.000 A 
ATOM     13  C   UNL     1       1.256  -2.329  -0.481  0.00  0.00    +0.000 A 
BRANCH   8  15
ATOM     14  C   UNL     1      -0.322   0.131   0.263  0.00  0.00    +0.000 C 
ATOM     15  O   UNL     1      -0.783  -1.174   0.186  0.00  0.00    +0.000 OA
ENDBRANCH   8  15
ENDBRANCH   2  13
ENDBRANCH   1   5
BRANCH   1  16
ATOM     16  C   UNL     1       6.464  -0.826   0.345  0.00  0.00    +0.000 C 
BRANCH  16  17
ATOM     17  C   UNL     1       7.100  -1.551  -0.912  0.00  0.00    +0.000 C 
BRANCH  17  18
ATOM     18  C   UNL     1       7.859  -0.774  -2.056  0.00  0.00    +0.000 C 
BRANCH  18  19
ATOM     19  N   UNL     1       8.907  -1.637  -2.612  0.00  0.00    +0.000 N 
ATOM     20  C   UNL     1       9.226  -2.132  -3.872  0.00  0.00    +0.000 C 
ATOM     21  O   UNL     1      10.244  -2.786  -3.934  0.00  0.00    +0.000 OA
ATOM     22  H   UNL     1       9.595  -1.896  -1.892  0.00  0.00    +0.000 HD
BRANCH  20  23
ATOM     23  C   UNL     1       8.563  -1.938  -5.256  0.00  0.00    +0.000 C 
BRANCH  23  24
ATOM     24  C   UNL     1       7.292  -2.751  -5.634  0.00  0.00    +0.000 C 
BRANCH  24  25
ATOM     25  C   UNL     1       6.202  -2.081  -4.953  0.00  0.00    +0.000 A 
ATOM     26  C   UNL     1       5.962  -0.729  -5.262  0.00  0.00    +0.000 A 
ATOM     27  C   UNL     1       5.210   0.034  -4.413  0.00  0.00    +0.000 A 
ATOM     28  C   UNL     1       4.670  -0.571  -3.315  0.00  0.00    +0.000 A 
ATOM     29  C   UNL     1       4.784  -1.960  -3.089  0.00  0.00    +0.000 A 
ATOM     30  C   UNL     1       5.556  -2.727  -3.915  0.00  0.00    +0.000 A 
ENDBRANCH  24  25
ENDBRANCH  23  24
ENDBRANCH  20  23
ENDBRANCH  18  19
ENDBRANCH  17  18
ENDBRANCH  16  17
ENDBRANCH   1  16
TORSDOF 10
