REMARK  Name = 
REMARK  5 active torsions:
REMARK  status: ('A' for Active; 'I' for Inactive)
REMARK    1  A    between atoms: O_1  and  C_2
REMARK    2  A    between atoms: C_2  and  C_3
REMARK    3  A    between atoms: C_3  and  N_4
REMARK    4  A    between atoms: N_7  and  C_8
REMARK    5  A    between atoms: C_10  and  C_11
REMARK                            x       y       z     vdW  Elec       q    Type
REMARK                         _______ _______ _______ _____ _____    ______ ____
ROOT
ATOM      1  C   UNL     1       4.799   2.515  -0.220  0.00  0.00    +0.000 C 
ATOM      2  C   UNL     1       5.508   1.670  -1.303  0.00  0.00    +0.000 C 
ATOM      3  C   UNL     1       6.450   0.641  -0.613  0.00  0.00    +0.000 C 
ATOM      4  C   UNL     1       6.143   0.852   0.848  0.00  0.00    +0.000 A 
ATOM      5  C   UNL     1       6.604   0.106   1.947  0.00  0.00    +0.000 A 
ATOM      6  C   UNL     1       6.256   0.500   3.246  0.00  0.00    +0.000 A 
ATOM      7  F   UNL     1       6.704  -0.212   4.310  0.00  0.00    +0.000 F 
ATOM      8  C   UNL     1       5.454   1.630   3.446  0.00  0.00    +0.000 A 
ATOM      9  C   UNL     1       4.964   2.345   2.347  0.00  0.00    +0.000 A 
ATOM     10  C   UNL     1       5.300   1.925   1.053  0.00  0.00    +0.000 A 
ENDROOT
BRANCH   3  11
ATOM     11  C   UNL     1       7.933   0.811  -0.945  0.00  0.00    +0.000 A 
ATOM     12  C   UNL     1       8.867  -0.081  -0.382  0.00  0.00    +0.000 A 
ATOM     13  C   UNL     1      10.231   0.041  -0.645  0.00  0.00    +0.000 A 
ATOM     14  C   UNL     1      10.692   1.039  -1.500  0.00  0.00    +0.000 A 
ATOM     15  F   UNL     1      12.017   1.154  -1.756  0.00  0.00    +0.000 F 
ATOM     16  C   UNL     1       9.788   1.912  -2.096  0.00  0.00    +0.000 A 
ATOM     17  C   UNL     1       8.425   1.808  -1.823  0.00  0.00    +0.000 A 
ENDBRANCH   3  11
BRANCH   1  21
ATOM     18  N   UNL     1       1.995   0.583  -2.057  0.00  0.00    +0.000 NA
ATOM     19  C   UNL     1       2.520   1.872  -2.597  0.00  0.00    +0.000 C 
ATOM     20  C   UNL     1       2.653   2.977  -1.515  0.00  0.00    +0.000 C 
ATOM     21  N   UNL     1       3.297   2.500  -0.273  0.00  0.00    +0.000 NA
ATOM     22  C   UNL     1       2.584   1.311   0.244  0.00  0.00    +0.000 C 
ATOM     23  C   UNL     1       2.603   0.171  -0.766  0.00  0.00    +0.000 C 
BRANCH  18  24
ATOM     24  C   UNL     1       0.515   0.540  -2.138  0.00  0.00    +0.000 C 
BRANCH  24  25
ATOM     25  C   UNL     1      -0.153  -0.613  -1.369  0.00  0.00    +0.000 C 
BRANCH  25  26
ATOM     26  O   UNL     1      -0.167  -0.336   0.011  0.00  0.00    +0.000 OA
ATOM     27  H   UNL     1       0.131  -1.153   0.487  0.00  0.00    +0.000 HD
ENDBRANCH  25  26
ENDBRANCH  24  25
ENDBRANCH  18  24
ENDBRANCH   1  21
TORSDOF 5
