REMARK  Name = 
REMARK  24 active torsions:
REMARK  status: ('A' for Active; 'I' for Inactive)
REMARK    1  A    between atoms: C_1  and  C_2
REMARK    2  A    between atoms: C_2  and  C_3
REMARK    3  A    between atoms: C_3  and  C_4
REMARK    4  A    between atoms: C_4  and  C_5
REMARK    5  A    between atoms: C_5  and  N_6
REMARK    6  A    between atoms: N_6  and  C_7
REMARK    7  A    between atoms: N_6  and  C_8
REMARK    8  A    between atoms: C_8  and  C_9
REMARK    9  A    between atoms: C_9  and  C_11
REMARK   10  A    between atoms: C_11  and  C_12
REMARK   11  A    between atoms: C_11  and  N_16
REMARK   12  A    between atoms: C_12  and  C_13
REMARK   13  A    between atoms: C_13  and  O_15
REMARK   14  A    between atoms: C_17  and  C_19
REMARK   15  A    between atoms: C_19  and  C_20
REMARK   16  A    between atoms: C_19  and  N_22
REMARK   17  A    between atoms: C_20  and  C_21
REMARK   18  A    between atoms: C_24  and  C_25
REMARK   19  A    between atoms: C_25  and  C_26
REMARK   20  A    between atoms: C_25  and  C_27
REMARK   21  A    between atoms: C_25  and  C_28
REMARK   22  A    between atoms: N_31  and  C_32
REMARK   23  A    between atoms: C_32  and  C_33
REMARK   24  A    between atoms: C_37  and  C_38
REMARK                            x       y       z     vdW  Elec       q    Type
REMARK                         _______ _______ _______ _____ _____    ______ ____
ROOT
ATOM      1  C   UNL     1      -4.567  -0.845  -0.142  0.00  0.00    +0.000 C 
ENDROOT
BRANCH   1   2
ATOM      2  N   UNL     1      -5.238  -2.035   0.448  0.00  0.00    +0.000 N 
ATOM      3  C   UNL     1      -4.778  -3.299   0.210  0.00  0.00    +0.000 A 
ATOM      4  C   UNL     1      -5.321  -4.404   0.868  0.00  0.00    +0.000 A 
ATOM      5  N   UNL     1      -6.324  -4.209   1.769  0.00  0.00    +0.000 NA
ATOM      6  C   UNL     1      -6.833  -2.970   2.003  0.00  0.00    +0.000 A 
ATOM      7  N   UNL     1      -7.815  -2.768   3.016  0.00  0.00    +0.000 N 
ATOM      8  C   UNL     1      -6.319  -1.876   1.306  0.00  0.00    +0.000 A 
ATOM      9  O   UNL     1      -6.800  -0.771   1.510  0.00  0.00    +0.000 OA
ATOM     10  H   UNL     1      -8.070  -1.812   3.217  0.00  0.00    +0.000 HD
BRANCH   4  11
ATOM     11  C   UNL     1      -4.760  -5.790   0.597  0.00  0.00    +0.000 C 
ATOM     12  C   UNL     1      -4.975  -6.141  -0.891  0.00  0.00    +0.000 C 
ATOM     13  C   UNL     1      -3.250  -5.815   0.932  0.00  0.00    +0.000 C 
ATOM     14  C   UNL     1      -5.473  -6.843   1.469  0.00  0.00    +0.000 C 
ENDBRANCH   4  11
BRANCH   7  15
ATOM     15  C   UNL     1      -8.340  -3.842   3.820  0.00  0.00    +0.000 C 
BRANCH  15  16
ATOM     16  C   UNL     1      -9.291  -3.430   4.940  0.00  0.00    +0.000 A 
ATOM     17  N   UNL     1      -9.755  -4.397   5.754  0.00  0.00    +0.000 NA
ATOM     18  O   UNL     1     -10.531  -3.833   6.633  0.00  0.00    +0.000 OA
ATOM     19  N   UNL     1     -10.619  -2.540   6.469  0.00  0.00    +0.000 NA
ATOM     20  C   UNL     1      -9.863  -2.225   5.405  0.00  0.00    +0.000 A 
ATOM     21  C   UNL     1      -9.787  -0.778   4.989  0.00  0.00    +0.000 C 
ENDBRANCH  15  16
ENDBRANCH   7  15
ENDBRANCH   1   2
BRANCH   1  23
ATOM     22  N   UNL     1      -4.062   0.125   2.220  0.00  0.00    +0.000 N 
ATOM     23  C   UNL     1      -4.476   0.269   0.911  0.00  0.00    +0.000 C 
ATOM     24  O   UNL     1      -4.997   1.333   0.600  0.00  0.00    +0.000 OA
ATOM     25  H   UNL     1      -4.402   0.877   2.809  0.00  0.00    +0.000 HD
BRANCH  22  26
ATOM     26  C   UNL     1      -3.471  -1.021   2.922  0.00  0.00    +0.000 C 
BRANCH  26  27
ATOM     27  C   UNL     1      -1.959  -0.871   3.213  0.00  0.00    +0.000 C 
ATOM     28  O   UNL     1      -1.274  -1.794   2.794  0.00  0.00    +0.000 OA
BRANCH  27  29
ATOM     29  C   UNL     1      -1.177   0.173   4.050  0.00  0.00    +0.000 C 
BRANCH  29  30
ATOM     30  N   UNL     1      -1.183   1.610   3.668  0.00  0.00    +0.000 NA
ATOM     31  C   UNL     1      -2.332   2.360   4.203  0.00  0.00    +0.000 C 
BRANCH  30  32
ATOM     32  C   UNL     1      -0.811   1.971   2.281  0.00  0.00    +0.000 C 
BRANCH  32  33
ATOM     33  C   UNL     1       0.724   2.119   2.069  0.00  0.00    +0.000 C 
BRANCH  33  34
ATOM     34  C   UNL     1       1.590   0.843   2.137  0.00  0.00    +0.000 C 
BRANCH  34  36
ATOM     35  C   UNL     1       1.264   0.073  -0.283  0.00  0.00    +0.000 C 
ATOM     36  C   UNL     1       1.123  -0.273   1.195  0.00  0.00    +0.000 C 
ENDBRANCH  34  36
ENDBRANCH  33  34
ENDBRANCH  32  33
ENDBRANCH  30  32
ENDBRANCH  29  30
ENDBRANCH  27  29
ENDBRANCH  26  27
BRANCH  26  37
ATOM     37  C   UNL     1      -4.296  -1.434   4.173  0.00  0.00    +0.000 C 
BRANCH  37  38
ATOM     38  C   UNL     1      -4.262  -0.502   5.353  0.00  0.00    +0.000 C 
ATOM     39  O   UNL     1      -5.248   0.159   5.628  0.00  0.00    +0.000 OA
BRANCH  38  40
ATOM     40  O   UNL     1      -3.212  -0.517   6.199  0.00  0.00    +0.000 OA
ATOM     41  H   UNL     1      -3.151   0.070   6.964  0.00  0.00    +0.000 HD
ENDBRANCH  38  40
ENDBRANCH  37  38
ENDBRANCH  26  37
ENDBRANCH  22  26
ENDBRANCH   1  23
BRANCH   1  42
ATOM     42  C   UNL     1      -3.239  -1.095  -0.921  0.00  0.00    +0.000 C 
ATOM     43  C   UNL     1      -2.081  -1.571  -0.064  0.00  0.00    +0.000 C 
ENDBRANCH   1  42
TORSDOF 17
