REMARK  Name = 
REMARK  12 active torsions:
REMARK  status: ('A' for Active; 'I' for Inactive)
REMARK    1  A    between atoms: C_1  and  C_2
REMARK    2  A    between atoms: C_2  and  C_3
REMARK    3  A    between atoms: C_3  and  C_4
REMARK    4  A    between atoms: N_7  and  C_8
REMARK    5  A    between atoms: C_8  and  C_9
REMARK    6  A    between atoms: C_9  and  N_10
REMARK    7  A    between atoms: N_10  and  C_11
REMARK    8  A    between atoms: N_10  and  C_12
REMARK    9  A    between atoms: C_17  and  C_18
REMARK   10  A    between atoms: C_24  and  C_25
REMARK   11  A    between atoms: C_28  and  O_29
REMARK   12  A    between atoms: O_29  and  C_30
REMARK                            x       y       z     vdW  Elec       q    Type
REMARK                         _______ _______ _______ _____ _____    ______ ____
ROOT
ATOM      1  C   UNL     1       0.642  -1.976  -2.157  0.00  0.00    +0.000 C 
ATOM      2  C   UNL     1       0.992  -3.431  -2.438  0.00  0.00    +0.000 C 
ATOM      3  O   UNL     1       1.744  -3.529  -3.406  0.00  0.00    +0.000 OA
ATOM      4  N   UNL     1       0.001  -4.374  -2.296  0.00  0.00    +0.000 N 
ATOM      5  C   UNL     1      -0.623  -4.715  -3.503  0.00  0.00    +0.000 A 
ATOM      6  C   UNL     1      -0.390  -5.951  -4.116  0.00  0.00    +0.000 A 
ATOM      7  C   UNL     1      -1.045  -6.261  -5.301  0.00  0.00    +0.000 A 
ATOM      8  C   UNL     1      -1.936  -5.349  -5.867  0.00  0.00    +0.000 A 
ATOM      9  C   UNL     1      -2.184  -4.096  -5.267  0.00  0.00    +0.000 A 
ATOM     10  C   UNL     1      -1.488  -3.759  -4.064  0.00  0.00    +0.000 A 
ATOM     11  C   UNL     1      -1.717  -2.440  -3.310  0.00  0.00    +0.000 C 
ATOM     12  C   UNL     1      -0.477  -1.498  -3.185  0.00  0.00    +0.000 C 
ENDROOT
BRANCH  12  13
ATOM     13  C   UNL     1      -0.909  -0.019  -3.044  0.00  0.00    +0.000 A 
ATOM     14  C   UNL     1       0.028   1.011  -3.259  0.00  0.00    +0.000 A 
ATOM     15  C   UNL     1      -0.364   2.362  -3.243  0.00  0.00    +0.000 A 
ATOM     16  C   UNL     1      -1.702   2.718  -3.017  0.00  0.00    +0.000 A 
ATOM     17  C   UNL     1      -2.643   1.705  -2.799  0.00  0.00    +0.000 A 
ATOM     18  C   UNL     1      -2.254   0.365  -2.801  0.00  0.00    +0.000 A 
BRANCH  16  19
ATOM     19  O   UNL     1      -2.046   4.034  -3.003  0.00  0.00    +0.000 OA
ATOM     20  C   UNL     1      -3.324   4.519  -2.788  0.00  0.00    +0.000 C 
ENDBRANCH  16  19
ENDBRANCH  12  13
BRANCH   9  21
ATOM     21  C   UNL     1      -3.213  -3.170  -5.899  0.00  0.00    +0.000 C 
ATOM     22  F   UNL     1      -4.247  -2.943  -5.002  0.00  0.00    +0.000 F 
ATOM     23  F   UNL     1      -2.618  -1.969  -6.238  0.00  0.00    +0.000 F 
ATOM     24  F   UNL     1      -3.766  -3.711  -7.044  0.00  0.00    +0.000 F 
ENDBRANCH   9  21
BRANCH   1  25
ATOM     25  C   UNL     1       0.396  -1.733  -0.652  0.00  0.00    +0.000 C 
BRANCH  25  27
ATOM     26  C   UNL     1       2.910  -1.511  -0.005  0.00  0.00    +0.000 C 
ATOM     27  C   UNL     1       1.579  -2.221   0.237  0.00  0.00    +0.000 C 
ENDBRANCH  25  27
ENDBRANCH   1  25
BRANCH   4  28
ATOM     28  C   UNL     1      -0.261  -5.140  -1.060  0.00  0.00    +0.000 C 
BRANCH  28  29
ATOM     29  C   UNL     1      -1.651  -4.929  -0.354  0.00  0.00    +0.000 C 
BRANCH  29  30
ATOM     30  N   UNL     1      -2.822  -5.752  -0.777  0.00  0.00    +0.000 NA
ATOM     31  C   UNL     1      -3.993  -5.391   0.049  0.00  0.00    +0.000 C 
ATOM     32  C   UNL     1      -3.203  -5.616  -2.180  0.00  0.00    +0.000 C 
ENDBRANCH  29  30
ENDBRANCH  28  29
ENDBRANCH   4  28
TORSDOF 8
