REMARK  Name = 
REMARK  6 active torsions:
REMARK  status: ('A' for Active; 'I' for Inactive)
REMARK    1  A    between atoms: C_1  and  C_2
REMARK    2  A    between atoms: C_5  and  C_6
REMARK    3  A    between atoms: C_7  and  C_8
REMARK    4  A    between atoms: C_11  and  C_12
REMARK    5  A    between atoms: C_18  and  C_19
REMARK    6  A    between atoms: N_26  and  C_27
REMARK                            x       y       z     vdW  Elec       q    Type
REMARK                         _______ _______ _______ _____ _____    ______ ____
ROOT
ATOM      1  C   UNL     1      -3.296  -2.884   1.952  0.00  0.00    +0.000 C 
ATOM      2  C   UNL     1      -3.041  -4.477   2.595  0.00  0.00    +0.000 C 
ATOM      3  C   UNL     1      -3.844  -5.888   2.247  0.00  0.00    +0.000 C 
ATOM      4  C   UNL     1      -5.273  -5.637   2.743  0.00  0.00    +0.000 C 
ATOM      5  C   UNL     1      -5.007  -4.489   3.735  0.00  0.00    +0.000 C 
ATOM      6  C   UNL     1      -5.378  -3.232   2.939  0.00  0.00    +0.000 C 
ATOM      7  C   UNL     1      -4.652  -3.300   1.457  0.00  0.00    +0.000 C 
ATOM      8  N   UNL     1      -3.540  -4.351   3.953  0.00  0.00    +0.000 NA
ATOM      9  C   UNL     1      -2.925  -5.217   4.995  0.00  0.00    +0.000 C 
ENDROOT
BRANCH   7  10
ATOM     10  C   UNL     1      -4.231  -3.942   0.018  0.00  0.00    +0.000 A 
ATOM     11  C   UNL     1      -4.730  -5.134  -0.563  0.00  0.00    +0.000 A 
ATOM     12  C   UNL     1      -4.056  -5.749  -1.648  0.00  0.00    +0.000 A 
ATOM     13  C   UNL     1      -2.911  -5.179  -2.212  0.00  0.00    +0.000 A 
ATOM     14 CL   UNL     1      -1.963  -5.990  -3.444  0.00  0.00    +0.000 Cl
ATOM     15  C   UNL     1      -2.491  -3.953  -1.775  0.00  0.00    +0.000 A 
ATOM     16  C   UNL     1      -3.141  -3.359  -0.723  0.00  0.00    +0.000 A 
ENDBRANCH   7  10
BRANCH   1  22
ATOM     17  C   UNL     1      -2.846  -0.426   0.636  0.00  0.00    +0.000 A 
ATOM     18  C   UNL     1      -3.817   0.358  -0.022  0.00  0.00    +0.000 A 
ATOM     19  C   UNL     1      -3.679   1.205  -1.274  0.00  0.00    +0.000 C 
ATOM     20  N   UNL     1      -5.012   0.087   0.484  0.00  0.00    +0.000 NA
ATOM     21  O   UNL     1      -4.847  -0.856   1.323  0.00  0.00    +0.000 OA
ATOM     22  C   UNL     1      -3.620  -1.373   1.350  0.00  0.00    +0.000 A 
BRANCH  17  27
ATOM     23  C   UNL     1       2.805   0.242  -0.119  0.00  0.00    +0.000 C 
ATOM     24  C   UNL     1       1.336   0.075   0.047  0.00  0.00    +0.000 A 
ATOM     25  C   UNL     1       0.823  -1.201   0.310  0.00  0.00    +0.000 A 
ATOM     26  C   UNL     1      -0.537  -1.383   0.514  0.00  0.00    +0.000 A 
ATOM     27  C   UNL     1      -1.411  -0.300   0.403  0.00  0.00    +0.000 A 
ATOM     28  C   UNL     1      -0.892   0.986   0.141  0.00  0.00    +0.000 A 
ATOM     29  C   UNL     1       0.472   1.173  -0.033  0.00  0.00    +0.000 A 
ENDBRANCH  17  27
ENDBRANCH   1  22
TORSDOF 3
