REMARK  Name = 
REMARK  9 active torsions:
REMARK  status: ('A' for Active; 'I' for Inactive)
REMARK    1  A    between atoms: C_1  and  O_2
REMARK    2  A    between atoms: O_2  and  C_3
REMARK    3  A    between atoms: C_6  and  C_7
REMARK    4  A    between atoms: C_13  and  C_14
REMARK    5  A    between atoms: C_14  and  O_16
REMARK    6  A    between atoms: O_16  and  C_17
REMARK    7  A    between atoms: C_17  and  C_18
REMARK    8  A    between atoms: C_17  and  C_19
REMARK    9  A    between atoms: N_20  and  C_21
REMARK                            x       y       z     vdW  Elec       q    Type
REMARK                         _______ _______ _______ _____ _____    ______ ____
ROOT
ATOM      1  C   UNL     1       0.225  -1.253  -0.824  0.00  0.00    +0.000 C 
ATOM      2  C   UNL     1       1.026  -2.409  -0.155  0.00  0.00    +0.000 C 
ATOM      3  C   UNL     1       0.234  -3.617   0.126  0.00  0.00    +0.000 C 
ATOM      4  C   UNL     1      -0.225  -3.948   1.558  0.00  0.00    +0.000 C 
ATOM      5  C   UNL     1      -1.548  -3.114   1.716  0.00  0.00    +0.000 C 
ATOM      6  C   UNL     1      -1.251  -2.167   0.745  0.00  0.00    +0.000 C 
ATOM      7  C   UNL     1      -1.164  -1.127  -0.171  0.00  0.00    +0.000 C 
ATOM      8  N   UNL     1      -1.064  -3.211  -0.266  0.00  0.00    +0.000 NA
ATOM      9  C   UNL     1      -2.066  -4.143  -0.402  0.00  0.00    +0.000 C 
ENDROOT
BRANCH   1  13
ATOM     10  C   UNL     1       2.549   2.337  -0.694  0.00  0.00    +0.000 A 
ATOM     11  C   UNL     1       2.131   1.824  -1.903  0.00  0.00    +0.000 A 
ATOM     12  C   UNL     1       1.369   0.663  -1.999  0.00  0.00    +0.000 A 
ATOM     13  C   UNL     1       1.000  -0.027  -0.844  0.00  0.00    +0.000 A 
ATOM     14  C   UNL     1       1.427   0.499   0.381  0.00  0.00    +0.000 A 
ATOM     15  C   UNL     1       2.181   1.653   0.440  0.00  0.00    +0.000 A 
BRANCH  10  17
ATOM     16  C   UNL     1       3.707   3.977   0.643  0.00  0.00    +0.000 C 
ATOM     17  O   UNL     1       3.308   3.498  -0.630  0.00  0.00    +0.000 OA
ENDBRANCH  10  17
ENDBRANCH   1  13
BRANCH   7  18
ATOM     18  C   UNL     1      -1.361   0.223   0.448  0.00  0.00    +0.000 C 
ATOM     19  O   UNL     1      -1.538   0.336   1.708  0.00  0.00    +0.000 OA
BRANCH  18  20
ATOM     20  O   UNL     1      -1.363   1.394  -0.297  0.00  0.00    +0.000 OA
BRANCH  20  21
ATOM     21  C   UNL     1      -1.557   2.668   0.297  0.00  0.00    +0.000 C 
ATOM     22  C   UNL     1      -0.507   3.672  -0.032  0.00  0.00    +0.000 C 
ATOM     23  C   UNL     1      -2.856   3.188  -0.349  0.00  0.00    +0.000 C 
ENDBRANCH  20  21
ENDBRANCH  18  20
ENDBRANCH   7  18
TORSDOF 5
