REMARK  Name = 
REMARK  5 active torsions:
REMARK  status: ('A' for Active; 'I' for Inactive)
REMARK    1  A    between atoms: C_1  and  N_2
REMARK    2  A    between atoms: N_2  and  C_15
REMARK    3  A    between atoms: C_3  and  C_5
REMARK    4  A    between atoms: C_5  and  C_6
REMARK    5  A    between atoms: C_20  and  N_21
REMARK                            x       y       z     vdW  Elec       q    Type
REMARK                         _______ _______ _______ _____ _____    ______ ____
ROOT
ATOM      1  C   UNL     1       0.587  -0.183   0.679  0.00  0.00    +0.000 C 
ATOM      2  N   UNL     1       0.212  -1.590   0.531  0.00  0.00    +0.000 N 
ATOM      3  C   UNL     1      -0.524  -2.045   1.663  0.00  0.00    +0.000 C 
ATOM      4  O   UNL     1      -0.962  -3.179   1.720  0.00  0.00    +0.000 OA
ENDROOT
BRANCH   2   5
ATOM      5  C   UNL     1       0.583  -2.443  -0.719  0.00  0.00    +0.000 C 
ATOM      6  C   UNL     1       0.105  -3.924  -0.487  0.00  0.00    +0.000 C 
ATOM      7  C   UNL     1       0.428  -4.952  -1.557  0.00  0.00    +0.000 C 
ATOM      8  C   UNL     1       1.935  -5.095  -1.651  0.00  0.00    +0.000 C 
ATOM      9  C   UNL     1       2.492  -3.769  -2.121  0.00  0.00    +0.000 C 
ATOM     10  C   UNL     1       2.154  -2.511  -1.223  0.00  0.00    +0.000 C 
BRANCH  10  11
ATOM     11  N   UNL     1       2.785  -1.341  -1.980  0.00  0.00    +0.000 NA
ATOM     12  C   UNL     1       2.648  -0.017  -1.430  0.00  0.00    +0.000 C 
ATOM     13  C   UNL     1       1.435   0.537  -2.197  0.00  0.00    +0.000 C 
ATOM     14  C   UNL     1       1.826   0.246  -3.588  0.00  0.00    +0.000 C 
ATOM     15  C   UNL     1       2.469  -1.131  -3.436  0.00  0.00    +0.000 C 
ENDBRANCH  10  11
ENDBRANCH   2   5
BRANCH   3  16
ATOM     16  C   UNL     1      -0.852  -1.179   2.899  0.00  0.00    +0.000 C 
BRANCH  16  17
ATOM     17  C   UNL     1       0.392  -0.569   3.511  0.00  0.00    +0.000 A 
ATOM     18  C   UNL     1       0.508   0.844   3.673  0.00  0.00    +0.000 A 
ATOM     19  C   UNL     1       1.711   1.427   4.107  0.00  0.00    +0.000 A 
ATOM     20  C   UNL     1       2.823   0.624   4.397  0.00  0.00    +0.000 A 
ATOM     21  C   UNL     1       2.695  -0.754   4.253  0.00  0.00    +0.000 A 
ATOM     22  S   UNL     1       3.868  -1.927   4.495  0.00  0.00    +0.000 S 
ATOM     23  C   UNL     1       2.880  -3.225   4.061  0.00  0.00    +0.000 A 
ATOM     24  C   UNL     1       1.621  -2.749   3.732  0.00  0.00    +0.000 A 
ATOM     25  C   UNL     1       1.515  -1.354   3.832  0.00  0.00    +0.000 A 
ENDBRANCH  16  17
ENDBRANCH   3  16
TORSDOF 4
