REMARK  Name = 
REMARK  4 active torsions:
REMARK  status: ('A' for Active; 'I' for Inactive)
REMARK    1  A    between atoms: C_5  and  C_6
REMARK    2  A    between atoms: C_8  and  C_9
REMARK    3  A    between atoms: C_9  and  N_10
REMARK    4  A    between atoms: N_13  and  C_14
REMARK                            x       y       z     vdW  Elec       q    Type
REMARK                         _______ _______ _______ _____ _____    ______ ____
ROOT
ATOM      1  N   UNL     1      -4.176   3.394  -0.468  0.00  0.00    +0.000 NA
ATOM      2  C   UNL     1      -3.861   3.521  -1.902  0.00  0.00    +0.000 C 
ATOM      3  C   UNL     1      -4.415   2.352  -2.701  0.00  0.00    +0.000 C 
ATOM      4  N   UNL     1      -5.807   2.072  -2.346  0.00  0.00    +0.000 N 
ATOM      5  C   UNL     1      -6.366   2.345  -1.015  0.00  0.00    +0.000 C 
ATOM      6  C   UNL     1      -5.630   3.460  -0.268  0.00  0.00    +0.000 C 
ENDROOT
BRANCH   4   7
ATOM      7  C   UNL     1      -6.645   1.420  -3.285  0.00  0.00    +0.000 A 
ATOM      8  C   UNL     1      -7.810   2.077  -3.680  0.00  0.00    +0.000 A 
ATOM      9  C   UNL     1      -8.665   1.507  -4.614  0.00  0.00    +0.000 A 
ATOM     10  C   UNL     1      -8.375   0.251  -5.149  0.00  0.00    +0.000 A 
ATOM     11  C   UNL     1      -7.214  -0.429  -4.755  0.00  0.00    +0.000 A 
ATOM     12 CL   UNL     1      -6.879  -2.017  -5.416  0.00  0.00    +0.000 Cl
ATOM     13  C   UNL     1      -6.334   0.158  -3.831  0.00  0.00    +0.000 A 
ENDBRANCH   4   7
BRANCH   1  14
ATOM     14  C   UNL     1      -3.384   2.394   0.294  0.00  0.00    +0.000 C 
BRANCH  14  17
ATOM     15  C   UNL     1      -3.014  -0.146   0.472  0.00  0.00    +0.000 C 
ATOM     16  C   UNL     1      -4.095   0.014  -0.626  0.00  0.00    +0.000 C 
ATOM     17  C   UNL     1      -4.017   0.994   0.524  0.00  0.00    +0.000 C 
BRANCH  15  22
ATOM     18  F   UNL     1      -3.748  -5.393   2.420  0.00  0.00    +0.000 F 
ATOM     19  C   UNL     1      -3.571  -4.130   1.963  0.00  0.00    +0.000 A 
ATOM     20  C   UNL     1      -3.185  -3.933   0.628  0.00  0.00    +0.000 A 
ATOM     21  C   UNL     1      -3.003  -2.640   0.149  0.00  0.00    +0.000 A 
ATOM     22  C   UNL     1      -3.208  -1.536   1.001  0.00  0.00    +0.000 A 
ATOM     23  C   UNL     1      -3.585  -1.738   2.331  0.00  0.00    +0.000 A 
ATOM     24  C   UNL     1      -3.778  -3.041   2.815  0.00  0.00    +0.000 A 
ENDBRANCH  15  22
ENDBRANCH  14  17
ENDBRANCH   1  14
TORSDOF 4
