REMARK  Name = 
REMARK  7 active torsions:
REMARK  status: ('A' for Active; 'I' for Inactive)
REMARK    1  A    between atoms: C_1  and  C_2
REMARK    2  A    between atoms: C_2  and  C_3
REMARK    3  A    between atoms: C_2  and  C_4
REMARK    4  A    between atoms: C_4  and  N_5
REMARK    5  A    between atoms: N_5  and  C_6
REMARK    6  A    between atoms: N_5  and  C_15
REMARK    7  A    between atoms: C_6  and  C_7
REMARK                            x       y       z     vdW  Elec       q    Type
REMARK                         _______ _______ _______ _____ _____    ______ ____
ROOT
ATOM      1  N   UNL     1      -1.588   0.872   0.126  0.00  0.00    +0.000 NA
ENDROOT
BRANCH   1   2
ATOM      2  C   UNL     1      -1.178  -0.011   1.314  0.00  0.00    +0.000 C 
ATOM      3  C   UNL     1       0.316  -0.145   1.452  0.00  0.00    +0.000 C 
ATOM      4  C   UNL     1       0.873  -1.187   0.447  0.00  0.00    +0.000 C 
ATOM      5  N   UNL     1       0.444  -2.526   0.846  0.00  0.00    +0.000 NA
ATOM      6  C   UNL     1      -1.013  -2.644   0.796  0.00  0.00    +0.000 C 
ATOM      7  C   UNL     1      -1.718  -1.476   1.571  0.00  0.00    +0.000 C 
ATOM      8  H   UNL     1       0.856  -3.217   0.170  0.00  0.00    +0.000 HD
ENDBRANCH   1   2
BRANCH   1   9
ATOM      9  C   UNL     1      -0.763   1.032  -1.149  0.00  0.00    +0.000 C 
BRANCH   9  11
ATOM     10  C   UNL     1       2.055   1.533  -0.484  0.00  0.00    +0.000 C 
ATOM     11  C   UNL     1       0.718   1.696  -1.302  0.00  0.00    +0.000 C 
ATOM     12  C   UNL     1       1.163   1.218  -2.707  0.00  0.00    +0.000 C 
ENDBRANCH   9  11
ENDBRANCH   1   9
BRANCH   1  13
ATOM     13  C   UNL     1      -3.062   1.143  -0.067  0.00  0.00    +0.000 C 
BRANCH  13  14
ATOM     14  C   UNL     1      -3.930  -0.038  -0.504  0.00  0.00    +0.000 A 
ATOM     15  C   UNL     1      -3.310  -1.236  -0.850  0.00  0.00    +0.000 A 
ATOM     16  C   UNL     1      -4.035  -2.410  -1.055  0.00  0.00    +0.000 A 
ATOM     17  C   UNL     1      -5.418  -2.410  -0.981  0.00  0.00    +0.000 A 
ATOM     18 CL   UNL     1      -6.297  -3.925  -1.181  0.00  0.00    +0.000 Cl
ATOM     19  C   UNL     1      -6.081  -1.204  -0.749  0.00  0.00    +0.000 A 
ATOM     20  C   UNL     1      -5.361  -0.022  -0.508  0.00  0.00    +0.000 A 
ATOM     21 CL   UNL     1      -6.252   1.463  -0.203  0.00  0.00    +0.000 Cl
ENDBRANCH  13  14
ENDBRANCH   1  13
TORSDOF 5
