REMARK  Name = 
REMARK  3 active torsions:
REMARK  status: ('A' for Active; 'I' for Inactive)
REMARK    1  A    between atoms: C_3  and  N_4
REMARK    2  A    between atoms: C_9  and  C_10
REMARK    3  A    between atoms: C_18  and  N_19
REMARK                            x       y       z     vdW  Elec       q    Type
REMARK                         _______ _______ _______ _____ _____    ______ ____
ROOT
ATOM      1  N   UNL     1      -1.093   2.622   0.223  0.00  0.00    +0.000 N 
ATOM      2  C   UNL     1      -0.257   3.755   0.375  0.00  0.00    +0.000 A 
ATOM      3  N   UNL     1      -0.197   4.399   1.568  0.00  0.00    +0.000 NA
ATOM      4  C   UNL     1       0.729   5.371   1.787  0.00  0.00    +0.000 A 
ATOM      5  C   UNL     1       1.629   5.720   0.778  0.00  0.00    +0.000 A 
ATOM      6  C   UNL     1       1.511   5.092  -0.467  0.00  0.00    +0.000 A 
ATOM      7  N   UNL     1       0.582   4.115  -0.632  0.00  0.00    +0.000 NA
ATOM      8  H   UNL     1      -2.038   2.670   0.633  0.00  0.00    +0.000 HD
ENDROOT
BRANCH   1  11
ATOM      9  C   UNL     1       1.362  -0.215   0.024  0.00  0.00    +0.000 A 
ATOM     10  C   UNL     1       0.855   1.086   0.031  0.00  0.00    +0.000 A 
ATOM     11  C   UNL     1      -0.538   1.316   0.055  0.00  0.00    +0.000 A 
ATOM     12  C   UNL     1      -1.403   0.207   0.013  0.00  0.00    +0.000 A 
ATOM     13  C   UNL     1      -0.893  -1.102   0.021  0.00  0.00    +0.000 A 
ATOM     14  C   UNL     1       0.494  -1.306   0.046  0.00  0.00    +0.000 A 
BRANCH  13  15
ATOM     15  N   UNL     1      -1.791  -2.217   0.058  0.00  0.00    +0.000 N 
ATOM     16  C   UNL     1      -1.699  -3.294   0.857  0.00  0.00    +0.000 A 
ATOM     17  C   UNL     1      -2.785  -4.101   0.602  0.00  0.00    +0.000 A 
ATOM     18  N   UNL     1      -3.539  -3.540  -0.366  0.00  0.00    +0.000 NA
ATOM     19  C   UNL     1      -2.911  -2.387  -0.671  0.00  0.00    +0.000 A 
ENDBRANCH  13  15
ENDBRANCH   1  11
BRANCH   6  20
ATOM     20  C   UNL     1       2.362   5.461  -1.611  0.00  0.00    +0.000 A 
ATOM     21  C   UNL     1       3.743   5.654  -1.465  0.00  0.00    +0.000 A 
ATOM     22  C   UNL     1       4.510   5.986  -2.586  0.00  0.00    +0.000 A 
ATOM     23  N   UNL     1       3.913   6.159  -3.796  0.00  0.00    +0.000 NA
ATOM     24  C   UNL     1       2.574   5.999  -3.959  0.00  0.00    +0.000 A 
ATOM     25  C   UNL     1       1.777   5.627  -2.875  0.00  0.00    +0.000 A 
ENDBRANCH   6  20
TORSDOF 3
