REMARK  Name = 
REMARK  9 active torsions:
REMARK  status: ('A' for Active; 'I' for Inactive)
REMARK    1  A    between atoms: C_1  and  O_2
REMARK    2  A    between atoms: O_2  and  C_3
REMARK    3  A    between atoms: C_9  and  C_10
REMARK    4  A    between atoms: C_10  and  N_11
REMARK    5  A    between atoms: N_11  and  C_12
REMARK    6  A    between atoms: N_11  and  C_16
REMARK    7  A    between atoms: C_12  and  C_13
REMARK    8  A    between atoms: C_13  and  C_14
REMARK    9  A    between atoms: C_13  and  C_15
REMARK                            x       y       z     vdW  Elec       q    Type
REMARK                         _______ _______ _______ _____ _____    ______ ____
ROOT
ATOM      1  N   UNL     1      -2.349   1.631   2.457  0.00  0.00    +0.000 NA
ENDROOT
BRANCH   1   2
ATOM      2  C   UNL     1      -1.791   0.252   2.903  0.00  0.00    +0.000 C 
ATOM      3  C   UNL     1      -0.510   0.005   2.163  0.00  0.00    +0.000 C 
ATOM      4  C   UNL     1      -0.972  -0.017   0.653  0.00  0.00    +0.000 C 
ATOM      5  N   UNL     1      -1.225  -1.415   0.397  0.00  0.00    +0.000 NA
ATOM      6  C   UNL     1      -2.422  -1.804   1.185  0.00  0.00    +0.000 C 
ATOM      7  C   UNL     1      -2.444  -1.194   2.655  0.00  0.00    +0.000 C 
ATOM      8  H   UNL     1      -1.410  -1.528  -0.632  0.00  0.00    +0.000 HD
ENDBRANCH   1   2
BRANCH   1   9
ATOM      9  C   UNL     1      -1.425   2.778   1.947  0.00  0.00    +0.000 C 
BRANCH   9  16
ATOM     10  C   UNL     1       1.249   2.444   1.672  0.00  0.00    +0.000 A 
ATOM     11  C   UNL     1       2.519   2.426   2.291  0.00  0.00    +0.000 A 
ATOM     12  C   UNL     1       2.676   2.852   3.600  0.00  0.00    +0.000 A 
ATOM     13  C   UNL     1       1.589   3.345   4.313  0.00  0.00    +0.000 A 
ATOM     14  F   UNL     1       1.779   3.778   5.581  0.00  0.00    +0.000 F 
ATOM     15  C   UNL     1       0.301   3.365   3.745  0.00  0.00    +0.000 A 
ATOM     16  C   UNL     1       0.077   2.894   2.426  0.00  0.00    +0.000 A 
BRANCH  10  18
ATOM     17  C   UNL     1       1.947   0.848  -0.048  0.00  0.00    +0.000 C 
ATOM     18  O   UNL     1       1.148   1.908   0.428  0.00  0.00    +0.000 OA
ENDBRANCH  10  18
ENDBRANCH   9  16
ENDBRANCH   1   9
BRANCH   1  19
ATOM     19  C   UNL     1      -3.818   2.020   2.528  0.00  0.00    +0.000 C 
BRANCH  19  20
ATOM     20  C   UNL     1      -4.707   1.572   1.304  0.00  0.00    +0.000 C 
ATOM     21  C   UNL     1      -5.199   0.153   1.474  0.00  0.00    +0.000 C 
ATOM     22  C   UNL     1      -6.009   2.368   1.094  0.00  0.00    +0.000 C 
ENDBRANCH  19  20
ENDBRANCH   1  19
TORSDOF 6
