REMARK  Name = 
REMARK  15 active torsions:
REMARK  status: ('A' for Active; 'I' for Inactive)
REMARK    1  A    between atoms: C_1  and  C_2
REMARK    2  A    between atoms: C_2  and  C_3
REMARK    3  A    between atoms: C_2  and  C_4
REMARK    4  A    between atoms: C_2  and  N_14
REMARK    5  A    between atoms: C_4  and  C_5
REMARK    6  A    between atoms: N_14  and  C_15
REMARK    7  A    between atoms: C_15  and  C_16
REMARK    8  A    between atoms: C_16  and  O_17
REMARK    9  A    between atoms: C_16  and  C_18
REMARK   10  A    between atoms: C_18  and  O_19
REMARK   11  A    between atoms: O_19  and  C_20
REMARK   12  A    between atoms: C_22  and  C_23
REMARK   13  A    between atoms: C_23  and  C_24
REMARK   14  A    between atoms: C_24  and  C_25
REMARK   15  A    between atoms: C_25  and  O_27
REMARK                            x       y       z     vdW  Elec       q    Type
REMARK                         _______ _______ _______ _____ _____    ______ ____
ROOT
ATOM      1  C   UNL     1       3.268  -3.008   0.190  0.00  0.00    +0.000 C 
ENDROOT
BRANCH   1   2
ATOM      2  O   UNL     1       3.373  -4.339   0.645  0.00  0.00    +0.000 OA
ATOM      3  H   UNL     1       2.458  -4.721   0.716  0.00  0.00    +0.000 HD
ENDBRANCH   1   2
BRANCH   1   4
ATOM      4  C   UNL     1       2.262  -2.966  -0.987  0.00  0.00    +0.000 C 
BRANCH   4   5
ATOM      5  N   UNL     1       0.869  -2.449  -0.772  0.00  0.00    +0.000 NA
ATOM      6  H   UNL     1       0.214  -3.222  -1.038  0.00  0.00    +0.000 HD
BRANCH   5   8
ATOM      7  C   UNL     1       1.021  -0.375   0.734  0.00  0.00    +0.000 C 
ATOM      8  C   UNL     1       0.289  -1.694   0.392  0.00  0.00    +0.000 C 
ATOM      9  C   UNL     1       0.285  -2.592   1.651  0.00  0.00    +0.000 C 
BRANCH   8  10
ATOM     10  C   UNL     1      -1.235  -1.376   0.079  0.00  0.00    +0.000 C 
BRANCH  10  11
ATOM     11  C   UNL     1      -1.647  -0.353  -1.027  0.00  0.00    +0.000 C 
ATOM     12  C   UNL     1      -3.155  -0.447  -1.378  0.00  0.00    +0.000 C 
ATOM     13  C   UNL     1      -3.400   0.871  -2.029  0.00  0.00    +0.000 A 
ATOM     14  C   UNL     1      -4.483   1.261  -2.825  0.00  0.00    +0.000 A 
ATOM     15  C   UNL     1      -4.520   2.579  -3.313  0.00  0.00    +0.000 A 
ATOM     16  C   UNL     1      -3.492   3.485  -2.988  0.00  0.00    +0.000 A 
ATOM     17  C   UNL     1      -2.433   3.082  -2.159  0.00  0.00    +0.000 A 
ATOM     18  C   UNL     1      -2.412   1.766  -1.692  0.00  0.00    +0.000 A 
ATOM     19  C   UNL     1      -1.453   1.152  -0.737  0.00  0.00    +0.000 C 
ENDBRANCH  10  11
ENDBRANCH   8  10
ENDBRANCH   5   8
ENDBRANCH   4   5
ENDBRANCH   1   4
BRANCH   1  20
ATOM     20  C   UNL     1       4.696  -2.555  -0.220  0.00  0.00    +0.000 C 
BRANCH  20  21
ATOM     21  O   UNL     1       4.940  -1.166  -0.239  0.00  0.00    +0.000 OA
BRANCH  21  22
ATOM     22  C   UNL     1       4.610  -0.223  -1.172  0.00  0.00    +0.000 A 
ATOM     23  C   UNL     1       3.327  -0.080  -1.715  0.00  0.00    +0.000 A 
ATOM     24  C   UNL     1       3.020   0.860  -2.685  0.00  0.00    +0.000 A 
ATOM     25  C   UNL     1       4.029   1.747  -3.100  0.00  0.00    +0.000 A 
ATOM     26  C   UNL     1       5.315   1.658  -2.545  0.00  0.00    +0.000 A 
ATOM     27  F   UNL     1       6.281   2.529  -2.936  0.00  0.00    +0.000 F 
ATOM     28  C   UNL     1       5.603   0.676  -1.587  0.00  0.00    +0.000 A 
ATOM     29  F   UNL     1       6.853   0.593  -1.059  0.00  0.00    +0.000 F 
BRANCH  24  30
ATOM     30  C   UNL     1       1.608   0.935  -3.249  0.00  0.00    +0.000 C 
BRANCH  30  31
ATOM     31  C   UNL     1       1.241  -0.127  -4.316  0.00  0.00    +0.000 C 
BRANCH  31  32
ATOM     32  C   UNL     1       1.131  -1.568  -3.890  0.00  0.00    +0.000 C 
ATOM     33  O   UNL     1       0.118  -1.973  -3.344  0.00  0.00    +0.000 OA
BRANCH  32  34
ATOM     34  O   UNL     1       2.064  -2.459  -4.296  0.00  0.00    +0.000 OA
ATOM     35  H   UNL     1       1.979  -3.404  -4.095  0.00  0.00    +0.000 HD
ENDBRANCH  32  34
ENDBRANCH  31  32
ENDBRANCH  30  31
ENDBRANCH  24  30
ENDBRANCH  21  22
ENDBRANCH  20  21
ENDBRANCH   1  20
TORSDOF 13
