REMARK  Name = 
REMARK  6 active torsions:
REMARK  status: ('A' for Active; 'I' for Inactive)
REMARK    1  A    between atoms: C_1  and  C_2
REMARK    2  A    between atoms: C_2  and  N_3
REMARK    3  A    between atoms: C_8  and  C_9
REMARK    4  A    between atoms: C_12  and  O_13
REMARK    5  A    between atoms: C_24  and  O_25
REMARK    6  A    between atoms: C_26  and  O_27
REMARK                            x       y       z     vdW  Elec       q    Type
REMARK                         _______ _______ _______ _____ _____    ______ ____
ROOT
ATOM      1  N   UNL     1       2.010   0.736  -3.454  0.00  0.00    +0.000 NA
ATOM      2  C   UNL     1       2.752  -0.438  -2.885  0.00  0.00    +0.000 C 
ATOM      3  C   UNL     1       3.706  -0.025  -1.700  0.00  0.00    +0.000 C 
ATOM      4  C   UNL     1       3.185   1.268  -1.100  0.00  0.00    +0.000 A 
ATOM      5  C   UNL     1       2.683   1.364   0.183  0.00  0.00    +0.000 A 
ATOM      6  C   UNL     1       1.872   2.491   0.481  0.00  0.00    +0.000 A 
ATOM      7  C   UNL     1       1.852   3.606  -0.365  0.00  0.00    +0.000 A 
ATOM      8  C   UNL     1       2.501   3.563  -1.606  0.00  0.00    +0.000 A 
ATOM      9  C   UNL     1       3.017   2.339  -1.984  0.00  0.00    +0.000 A 
ATOM     10  C   UNL     1       3.030   1.906  -3.415  0.00  0.00    +0.000 C 
ATOM     11  C   UNL     1       3.100   3.105  -4.437  0.00  0.00    +0.000 C 
ATOM     12  C   UNL     1       3.092   4.507  -3.837  0.00  0.00    +0.000 A 
ATOM     13  C   UNL     1       3.616   5.578  -4.589  0.00  0.00    +0.000 A 
ATOM     14  C   UNL     1       3.687   6.864  -4.055  0.00  0.00    +0.000 A 
ATOM     15  C   UNL     1       3.179   7.129  -2.791  0.00  0.00    +0.000 A 
ATOM     16  C   UNL     1       2.646   6.082  -2.015  0.00  0.00    +0.000 A 
ATOM     17  C   UNL     1       2.664   4.746  -2.511  0.00  0.00    +0.000 A 
ENDROOT
BRANCH   6  18
ATOM     18  C   UNL     1       0.851   2.400   1.572  0.00  0.00    +0.000 A 
ATOM     19  C   UNL     1      -0.414   2.994   1.354  0.00  0.00    +0.000 A 
ATOM     20  C   UNL     1      -1.459   2.823   2.262  0.00  0.00    +0.000 A 
ATOM     21  C   UNL     1      -1.252   2.054   3.401  0.00  0.00    +0.000 A 
ATOM     22  C   UNL     1      -0.007   1.453   3.626  0.00  0.00    +0.000 A 
ATOM     23  C   UNL     1       1.039   1.610   2.712  0.00  0.00    +0.000 A 
BRANCH  21  24
ATOM     24  O   UNL     1      -2.272   1.880   4.265  0.00  0.00    +0.000 OA
ATOM     25  H   UNL     1      -2.168   1.345   5.063  0.00  0.00    +0.000 HD
ENDBRANCH  21  24
ENDBRANCH   6  18
BRANCH   1  27
ATOM     26  C   UNL     1       0.283  -0.065  -1.505  0.00  0.00    +0.000 C 
ATOM     27  C   UNL     1       0.663   0.921  -2.697  0.00  0.00    +0.000 C 
ENDBRANCH   1  27
BRANCH  15  28
ATOM     28  O   UNL     1       3.242   8.375  -2.270  0.00  0.00    +0.000 OA
ATOM     29  H   UNL     1       3.676   9.111  -2.721  0.00  0.00    +0.000 HD
ENDBRANCH  15  28
BRANCH  16  30
ATOM     30  O   UNL     1       2.215   6.363  -0.763  0.00  0.00    +0.000 OA
ATOM     31  H   UNL     1       2.144   7.256  -0.401  0.00  0.00    +0.000 HD
ENDBRANCH  16  30
TORSDOF 5
