REMARK  Name = 
REMARK  13 active torsions:
REMARK  status: ('A' for Active; 'I' for Inactive)
REMARK    1  A    between atoms: C_1  and  O_2
REMARK    2  A    between atoms: O_2  and  C_3
REMARK    3  A    between atoms: C_6  and  C_7
REMARK    4  A    between atoms: C_9  and  C_10
REMARK    5  A    between atoms: C_10  and  C_11
REMARK    6  A    between atoms: C_11  and  C_12
REMARK    7  A    between atoms: C_12  and  C_13
REMARK    8  A    between atoms: C_13  and  N_14
REMARK    9  A    between atoms: N_17  and  C_18
REMARK   10  A    between atoms: C_23  and  O_24
REMARK   11  A    between atoms: O_24  and  C_25
REMARK   12  A    between atoms: C_30  and  O_31
REMARK   13  A    between atoms: O_31  and  C_32
REMARK                            x       y       z     vdW  Elec       q    Type
REMARK                         _______ _______ _______ _____ _____    ______ ____
ROOT
ATOM      1  C   UNL     1       3.528   8.069  -6.576  0.00  0.00    +0.000 C 
ENDROOT
BRANCH   1   2
ATOM      2  C   UNL     1       4.167   7.135  -5.525  0.00  0.00    +0.000 C 
BRANCH   2   5
ATOM      3  C   UNL     1       2.065   4.984  -3.592  0.00  0.00    +0.000 A 
ATOM      4  C   UNL     1       3.153   5.125  -4.410  0.00  0.00    +0.000 A 
ATOM      5  C   UNL     1       3.167   6.460  -4.685  0.00  0.00    +0.000 A 
ATOM      6  O   UNL     1       2.177   7.046  -4.058  0.00  0.00    +0.000 OA
ATOM      7  N   UNL     1       1.466   6.176  -3.407  0.00  0.00    +0.000 NA
BRANCH   3  11
ATOM      8  C   UNL     1       0.677   1.436  -1.731  0.00  0.00    +0.000 A 
ATOM      9  C   UNL     1      -0.213   2.301  -2.370  0.00  0.00    +0.000 A 
ATOM     10  C   UNL     1       0.250   3.464  -2.968  0.00  0.00    +0.000 A 
ATOM     11  C   UNL     1       1.617   3.750  -2.975  0.00  0.00    +0.000 A 
ATOM     12  C   UNL     1       2.542   2.878  -2.368  0.00  0.00    +0.000 A 
ATOM     13  C   UNL     1       2.057   1.726  -1.730  0.00  0.00    +0.000 A 
BRANCH   8  15
ATOM     14  C   UNL     1       0.729  -0.233   0.017  0.00  0.00    +0.000 C 
ATOM     15  O   UNL     1       0.164   0.355  -1.094  0.00  0.00    +0.000 OA
ENDBRANCH   8  15
BRANCH  12  16
ATOM     16  O   UNL     1       3.864   3.209  -2.364  0.00  0.00    +0.000 OA
ATOM     17  C   UNL     1       4.882   2.510  -1.745  0.00  0.00    +0.000 C 
ENDBRANCH  12  16
ENDBRANCH   3  11
ENDBRANCH   2   5
ENDBRANCH   1   2
BRANCH   1  18
ATOM     18  C   UNL     1       2.814   9.300  -5.974  0.00  0.00    +0.000 C 
BRANCH  18  19
ATOM     19  C   UNL     1       3.660  10.171  -5.011  0.00  0.00    +0.000 C 
BRANCH  19  20
ATOM     20  N   UNL     1       4.843  10.756  -5.683  0.00  0.00    +0.000 NA
ATOM     21  C   UNL     1       5.186  12.122  -5.210  0.00  0.00    +0.000 C 
ATOM     22  C   UNL     1       5.855  12.101  -3.825  0.00  0.00    +0.000 C 
ATOM     23  N   UNL     1       7.037  11.251  -3.894  0.00  0.00    +0.000 N 
ATOM     24  C   UNL     1       6.770   9.889  -4.304  0.00  0.00    +0.000 C 
ATOM     25  C   UNL     1       6.060   9.911  -5.681  0.00  0.00    +0.000 C 
BRANCH  23  26
ATOM     26  C   UNL     1       8.311  11.697  -3.381  0.00  0.00    +0.000 A 
ATOM     27  C   UNL     1       8.291  12.359  -2.136  0.00  0.00    +0.000 A 
ATOM     28  C   UNL     1       9.452  12.824  -1.524  0.00  0.00    +0.000 A 
ATOM     29  C   UNL     1      10.682  12.654  -2.143  0.00  0.00    +0.000 A 
ATOM     30  C   UNL     1      10.748  12.010  -3.367  0.00  0.00    +0.000 A 
ATOM     31  C   UNL     1       9.609  11.513  -4.015  0.00  0.00    +0.000 A 
BRANCH  31  32
ATOM     32  O   UNL     1       9.908  10.978  -5.225  0.00  0.00    +0.000 OA
ATOM     33  C   UNL     1       9.105  10.600  -6.262  0.00  0.00    +0.000 C 
ENDBRANCH  31  32
ENDBRANCH  23  26
ENDBRANCH  19  20
ENDBRANCH  18  19
ENDBRANCH   1  18
TORSDOF 10
