REMARK  Name = 
REMARK  8 active torsions:
REMARK  status: ('A' for Active; 'I' for Inactive)
REMARK    1  A    between atoms: C_1  and  O_2
REMARK    2  A    between atoms: O_2  and  C_3
REMARK    3  A    between atoms: C_9  and  C_10
REMARK    4  A    between atoms: N_12  and  C_13
REMARK    5  A    between atoms: C_13  and  C_14
REMARK    6  A    between atoms: C_14  and  N_15
REMARK    7  A    between atoms: N_15  and  C_16
REMARK    8  A    between atoms: N_15  and  C_17
REMARK                            x       y       z     vdW  Elec       q    Type
REMARK                         _______ _______ _______ _____ _____    ______ ____
ROOT
ATOM      1  C   UNL     1       0.552  -0.369  -2.278  0.00  0.00    +0.000 A 
ATOM      2  C   UNL     1       1.817   0.176  -2.571  0.00  0.00    +0.000 A 
ATOM      3  C   UNL     1       2.109   0.614  -3.846  0.00  0.00    +0.000 A 
ATOM      4  C   UNL     1       1.163   0.514  -4.856  0.00  0.00    +0.000 A 
ATOM      5  N   UNL     1       1.484   0.921  -6.095  0.00  0.00    +0.000 NA
ATOM      6  C   UNL     1       0.720   0.734  -7.188  0.00  0.00    +0.000 A 
ATOM      7  C   UNL     1       1.240   0.987  -8.500  0.00  0.00    +0.000 A 
ATOM      8  C   UNL     1       0.322   0.881  -9.569  0.00  0.00    +0.000 A 
ATOM      9  C   UNL     1      -1.000   0.476  -9.367  0.00  0.00    +0.000 A 
ATOM     10  C   UNL     1      -1.453   0.133  -8.093  0.00  0.00    +0.000 A 
ATOM     11  C   UNL     1      -0.597   0.250  -6.994  0.00  0.00    +0.000 A 
ATOM     12  C   UNL     1      -1.006  -0.142  -5.695  0.00  0.00    +0.000 A 
ATOM     13  C   UNL     1      -0.104  -0.050  -4.613  0.00  0.00    +0.000 A 
ATOM     14  C   UNL     1      -0.404  -0.495  -3.310  0.00  0.00    +0.000 A 
ENDROOT
BRANCH   7  15
ATOM     15  C   UNL     1       2.699   1.306  -8.884  0.00  0.00    +0.000 C 
ATOM     16  O   UNL     1       2.867   1.864  -9.962  0.00  0.00    +0.000 OA
ATOM     17  N   UNL     1       3.847   0.960  -8.184  0.00  0.00    +0.000 N 
ATOM     18  H   UNL     1       4.745   1.286  -8.548  0.00  0.00    +0.000 HD
BRANCH  17  19
ATOM     19  C   UNL     1       3.860   0.225  -6.918  0.00  0.00    +0.000 C 
BRANCH  19  20
ATOM     20  C   UNL     1       4.789  -0.960  -6.655  0.00  0.00    +0.000 C 
BRANCH  20  21
ATOM     21  N   UNL     1       6.198  -0.655  -6.362  0.00  0.00    +0.000 NA
ATOM     22  C   UNL     1       6.802  -1.881  -5.800  0.00  0.00    +0.000 C 
ATOM     23  C   UNL     1       6.909  -0.251  -7.580  0.00  0.00    +0.000 C 
ENDBRANCH  20  21
ENDBRANCH  19  20
ENDBRANCH  17  19
ENDBRANCH   7  15
BRANCH   1  25
ATOM     24  C   UNL     1       0.882  -0.288   0.113  0.00  0.00    +0.000 C 
ATOM     25  O   UNL     1       0.230  -0.751  -1.017  0.00  0.00    +0.000 OA
ENDBRANCH   1  25
TORSDOF 5
