REMARK  Name = 
REMARK  6 active torsions:
REMARK  status: ('A' for Active; 'I' for Inactive)
REMARK    1  A    between atoms: C_1  and  O_2
REMARK    2  A    between atoms: O_2  and  C_3
REMARK    3  A    between atoms: C_6  and  C_7
REMARK    4  A    between atoms: C_9  and  C_10
REMARK    5  A    between atoms: C_16  and  C_17
REMARK    6  A    between atoms: N_24  and  C_25
REMARK                            x       y       z     vdW  Elec       q    Type
REMARK                         _______ _______ _______ _____ _____    ______ ____
ROOT
ATOM      1  C   UNL     1       4.020   5.808   7.320  0.00  0.00    +0.000 C 
ATOM      2  C   UNL     1       3.576   7.316   7.059  0.00  0.00    +0.000 C 
ATOM      3  C   UNL     1       4.188   8.548   7.851  0.00  0.00    +0.000 C 
ATOM      4  C   UNL     1       5.334   9.089   6.965  0.00  0.00    +0.000 C 
ATOM      5  C   UNL     1       5.538   7.920   6.063  0.00  0.00    +0.000 C 
ATOM      6  C   UNL     1       6.263   6.813   6.992  0.00  0.00    +0.000 C 
ATOM      7  C   UNL     1       5.525   5.488   6.785  0.00  0.00    +0.000 C 
ATOM      8  N   UNL     1       4.133   7.485   5.764  0.00  0.00    +0.000 NA
ATOM      9  C   UNL     1       3.183   7.942   4.741  0.00  0.00    +0.000 C 
ENDROOT
BRANCH   7  10
ATOM     10  C   UNL     1       5.971   5.163   5.329  0.00  0.00    +0.000 A 
ATOM     11  C   UNL     1       7.317   4.753   5.163  0.00  0.00    +0.000 A 
ATOM     12  C   UNL     1       7.876   4.586   3.895  0.00  0.00    +0.000 A 
ATOM     13  C   UNL     1       7.110   4.833   2.757  0.00  0.00    +0.000 A 
ATOM     14 CL   UNL     1       7.825   4.690   1.163  0.00  0.00    +0.000 Cl
ATOM     15  C   UNL     1       5.775   5.211   2.890  0.00  0.00    +0.000 A 
ATOM     16  C   UNL     1       5.207   5.362   4.156  0.00  0.00    +0.000 A 
ENDBRANCH   7  10
BRANCH   1  19
ATOM     17  C   UNL     1       1.819   3.677   5.292  0.00  0.00    +0.000 A 
ATOM     18  C   UNL     1       3.101   3.925   5.732  0.00  0.00    +0.000 A 
ATOM     19  C   UNL     1       2.960   4.921   6.681  0.00  0.00    +0.000 A 
ATOM     20  O   UNL     1       1.670   5.123   6.857  0.00  0.00    +0.000 OA
ATOM     21  N   UNL     1       0.953   4.409   6.029  0.00  0.00    +0.000 NA
BRANCH  17  25
ATOM     22  C   UNL     1       0.731   1.586   1.689  0.00  0.00    +0.000 A 
ATOM     23  C   UNL     1      -0.218   2.320   2.414  0.00  0.00    +0.000 A 
ATOM     24  C   UNL     1       0.133   2.965   3.606  0.00  0.00    +0.000 A 
ATOM     25  C   UNL     1       1.442   2.895   4.091  0.00  0.00    +0.000 A 
ATOM     26  C   UNL     1       2.400   2.148   3.367  0.00  0.00    +0.000 A 
ATOM     27  C   UNL     1       2.043   1.493   2.184  0.00  0.00    +0.000 A 
BRANCH  22  29
ATOM     28  C   UNL     1       0.974  -0.042  -0.106  0.00  0.00    +0.000 C 
ATOM     29  O   UNL     1       0.327   0.985   0.543  0.00  0.00    +0.000 OA
ENDBRANCH  22  29
ENDBRANCH  17  25
ENDBRANCH   1  19
TORSDOF 4
