REMARK  Name = 
REMARK  8 active torsions:
REMARK  status: ('A' for Active; 'I' for Inactive)
REMARK    1  A    between atoms: C_1  and  C_2
REMARK    2  A    between atoms: C_2  and  C_3
REMARK    3  A    between atoms: C_2  and  C_4
REMARK    4  A    between atoms: C_4  and  N_5
REMARK    5  A    between atoms: N_5  and  C_6
REMARK    6  A    between atoms: N_5  and  C_15
REMARK    7  A    between atoms: C_6  and  C_7
REMARK    8  A    between atoms: C_11  and  C_12
REMARK                            x       y       z     vdW  Elec       q    Type
REMARK                         _______ _______ _______ _____ _____    ______ ____
ROOT
ATOM      1  N   UNL     1      -1.458   1.343  -0.493  0.00  0.00    +0.000 NA
ENDROOT
BRANCH   1   2
ATOM      2  C   UNL     1      -0.980   1.042   0.969  0.00  0.00    +0.000 C 
ATOM      3  C   UNL     1       0.356   1.723   1.494  0.00  0.00    +0.000 C 
ATOM      4  C   UNL     1       1.672   0.936   1.309  0.00  0.00    +0.000 C 
ATOM      5  N   UNL     1       1.474  -0.599   1.367  0.00  0.00    +0.000 NA
ATOM      6  C   UNL     1       0.139  -1.268   1.004  0.00  0.00    +0.000 C 
ATOM      7  C   UNL     1      -1.010  -0.440   1.517  0.00  0.00    +0.000 C 
ATOM      8  H   UNL     1       2.273  -1.118   0.918  0.00  0.00    +0.000 HD
ENDBRANCH   1   2
BRANCH   1   9
ATOM      9  C   UNL     1      -0.966   0.707  -1.808  0.00  0.00    +0.000 C 
BRANCH   9  11
ATOM     10  C   UNL     1       1.389  -0.003  -1.258  0.00  0.00    +0.000 C 
ATOM     11  C   UNL     1       0.561   0.606  -2.270  0.00  0.00    +0.000 C 
ATOM     12  C   UNL     1       0.894  -0.474  -3.330  0.00  0.00    +0.000 C 
ENDBRANCH   9  11
ENDBRANCH   1   9
BRANCH   1  13
ATOM     13  C   UNL     1      -2.975   1.320  -0.560  0.00  0.00    +0.000 C 
BRANCH  13  14
ATOM     14  C   UNL     1      -3.596  -0.069  -0.257  0.00  0.00    +0.000 A 
ATOM     15  C   UNL     1      -3.126  -1.298  -0.818  0.00  0.00    +0.000 A 
ATOM     16  C   UNL     1      -3.500  -2.521  -0.328  0.00  0.00    +0.000 A 
ATOM     17  C   UNL     1      -4.485  -2.607   0.616  0.00  0.00    +0.000 A 
ATOM     18  C   UNL     1      -5.113  -1.448   1.072  0.00  0.00    +0.000 A 
ATOM     19  C   UNL     1      -4.652  -0.176   0.674  0.00  0.00    +0.000 A 
BRANCH  18  20
ATOM     20  C   UNL     1      -6.228  -1.616   1.948  0.00  0.00    +0.000 C 
ATOM     21  N   UNL     1      -7.111  -1.833   2.660  0.00  0.00    +0.000 NA
ENDBRANCH  18  20
ENDBRANCH  13  14
ENDBRANCH   1  13
TORSDOF 6
