REMARK  Name = 
REMARK  6 active torsions:
REMARK  status: ('A' for Active; 'I' for Inactive)
REMARK    1  A    between atoms: CB_1  and  CA_2
REMARK    2  A    between atoms: CA_2  and  C_3
REMARK    3  A    between atoms: CA_2  and  N_5
REMARK    4  A    between atoms: C_3  and  O_4
REMARK    5  A    between atoms: C_6  and  C_8
REMARK    6  A    between atoms: N_22  and  C_23
REMARK                            x       y       z     vdW  Elec       q    Type
REMARK                         _______ _______ _______ _____ _____    ______ ____
ROOT
ATOM      1  C   UNK A   0      -0.890   2.501  -2.398  0.00  0.00    +0.000 C 
ATOM      2  C   UNK A   0      -0.440   3.212  -1.126  0.00  0.00    +0.000 C 
ATOM      3  C   UNK A   0       0.700   2.892  -0.474  0.00  0.00    +0.000 C 
ATOM      4  C   UNK A   0       1.204   3.689   0.683  0.00  0.00    +0.000 A 
ATOM      5  C   UNK A   0       0.830   5.005   1.044  0.00  0.00    +0.000 A 
ATOM      6  C   UNK A   0       1.459   5.641   2.149  0.00  0.00    +0.000 A 
ATOM      7  C   UNK A   0       2.451   4.968   2.903  0.00  0.00    +0.000 A 
ATOM      8  C   UNK A   0       2.772   3.664   2.528  0.00  0.00    +0.000 A 
ATOM      9  N   UNK A   0       3.648   2.802   3.085  0.00  0.00    +0.000 N 
ATOM     10  C   UNK A   0       3.559   1.651   2.365  0.00  0.00    +0.000 A 
ATOM     11  C   UNK A   0       2.633   1.816   1.340  0.00  0.00    +0.000 A 
ATOM     12  C   UNK A   0       2.163   3.082   1.468  0.00  0.00    +0.000 A 
ATOM     13  C   UNK A   0       2.088   0.876   0.307  0.00  0.00    +0.000 C 
ATOM     14  C   UNK A   0       1.577   1.696  -0.922  0.00  0.00    +0.000 C 
ATOM     15  N   UNK A   0       0.855   0.844  -1.901  0.00  0.00    +0.000 NA
ATOM     16  C   UNK A   0       1.703  -0.215  -2.475  0.00  0.00    +0.000 C 
ATOM     17  C   UNK A   0       0.309   1.700  -2.964  0.00  0.00    +0.000 C 
ATOM     18  H   UNK A   0       4.255   2.974   3.915  0.00  0.00    +0.000 HD
ENDROOT
BRANCH   1  20
ATOM     19  N   ALA A   1      -2.002   3.179  -4.613  0.00  0.00    +0.000 N 
ATOM     20  C   UNK A   0      -1.433   3.517  -3.416  0.00  0.00    +0.000 C 
ATOM     21  O   UNK A   0      -1.364   4.709  -3.143  0.00  0.00    +0.000 OA
ATOM     22  H   ALA A   1      -2.311   3.955  -5.223  0.00  0.00    +0.000 HD
BRANCH  19  24
ATOM     23  CB  ALA A   1      -3.656   1.576  -5.461  0.00  0.00    +0.000 C 
ATOM     24  CA  ALA A   1      -2.185   1.834  -5.135  0.00  0.00    +0.000 C 
BRANCH  24  25
ATOM     25  C   ALA A   1      -1.287   1.661  -6.376  0.00  0.00    +0.000 C 
BRANCH  25  26
ATOM     26  O   ALA A   1      -1.600   2.602  -7.370  0.00  0.00    +0.000 OA
ATOM     27  H   ALA A   1      -2.333   2.214  -7.914  0.00  0.00    +0.000 HD
ENDBRANCH  25  26
ENDBRANCH  24  25
ENDBRANCH  19  24
ENDBRANCH   1  20
TORSDOF 4
