REMARK SMILES Cc1nc2n(c(=O)c1CCN1CCC(c3noc4cc(F)ccc34)CC1)CCC[C@H]2O
REMARK SMILES IDX 9 1 8 2 2 3 3 4 6 5 4 6 7 7 5 8 30 9 27 10 29 11 28 12 1 13
REMARK SMILES IDX 31 14 10 16 11 17 12 18 26 19 13 20 25 21 14 22 15 23 24 24
REMARK SMILES IDX 16 25 23 26 18 27 17 28 22 29 19 30 20 31 21 32
REMARK H PARENT 31 15
ROOT
ATOM      1  C   UNL     1      -1.534  -2.099   1.582  1.00  0.00     0.059 C 
ENDROOT
BRANCH   1   2
ATOM      2  C   UNL     1      -2.630  -1.371   0.841  1.00  0.00     0.040 C 
ATOM      3  C   UNL     1      -3.492  -1.915  -0.041  1.00  0.00     0.048 C 
ATOM      4  N   UNL     1      -4.457  -1.200  -0.709  1.00  0.00    -0.237 NA
ATOM      5  C   UNL     1      -2.767   0.088   1.126  1.00  0.00     0.257 C 
ATOM      6  C   UNL     1      -4.554   0.065  -0.462  1.00  0.00     0.140 C 
ATOM      7  O   UNL     1      -2.044   0.643   1.952  1.00  0.00    -0.269 OA
ATOM      8  N   UNL     1      -3.758   0.742   0.430  1.00  0.00    -0.294 N 
ATOM      9  C   UNL     1      -5.602   0.898  -1.202  1.00  0.00     0.181 C 
ATOM     10  C   UNL     1      -3.898   2.185   0.544  1.00  0.00     0.127 C 
ATOM     11  C   UNL     1      -6.318   1.813  -0.214  1.00  0.00     0.042 C 
ATOM     12  C   UNL     1      -5.358   2.610   0.677  1.00  0.00     0.025 C 
ATOM     13  C   UNL     1      -3.489  -3.375  -0.419  1.00  0.00     0.067 C 
BRANCH   9  14
ATOM     14  O   UNL     1      -4.990   1.681  -2.220  1.00  0.00    -0.385 OA
ATOM     15  H   UNL     1      -4.585   1.047  -2.841  1.00  0.00     0.211 HD
ENDBRANCH   9  14
ENDBRANCH   1   2
BRANCH   1  16
ATOM     16  C   UNL     1      -0.269  -2.348   0.733  1.00  0.00     0.089 C 
BRANCH  16  17
ATOM     17  N   UNL     1       0.307  -1.150   0.104  1.00  0.00    -0.303 NA
ATOM     18  C   UNL     1       1.208  -1.522  -0.996  1.00  0.00     0.085 C 
ATOM     19  C   UNL     1       0.906  -0.216   1.070  1.00  0.00     0.085 C 
ATOM     20  C   UNL     1       1.993  -0.315  -1.502  1.00  0.00     0.026 C 
ATOM     21  C   UNL     1       2.429  -0.144   1.002  1.00  0.00     0.026 C 
ATOM     22  C   UNL     1       2.903   0.262  -0.403  1.00  0.00     0.045 C 
BRANCH  22  23
ATOM     23  C   UNL     1       4.351  -0.088  -0.607  1.00  0.00     0.095 A 
ATOM     24  C   UNL     1       5.466   0.791  -0.648  1.00  0.00     0.045 A 
ATOM     25  N   UNL     1       4.729  -1.365  -0.769  1.00  0.00    -0.083 NA
ATOM     26  C   UNL     1       5.699   2.174  -0.539  1.00  0.00     0.017 A 
ATOM     27  C   UNL     1       6.545  -0.054  -0.851  1.00  0.00     0.170 A 
ATOM     28  O   UNL     1       6.104  -1.337  -0.924  1.00  0.00    -0.356 OA
ATOM     29  C   UNL     1       7.020   2.634  -0.644  1.00  0.00     0.040 A 
ATOM     30  C   UNL     1       7.866   0.366  -0.961  1.00  0.00     0.090 A 
ATOM     31  C   UNL     1       8.070   1.740  -0.850  1.00  0.00     0.127 A 
ATOM     32  F   UNL     1       9.318   2.219  -0.945  1.00  0.00    -0.207 F 
ENDBRANCH  22  23
ENDBRANCH  16  17
ENDBRANCH   1  16
TORSDOF 5
