REMARK SMILES CN1CCN(c2ncnc3ccccc23)CC1
REMARK SMILES IDX 1 1 2 2 3 3 4 4 5 5 16 6 17 7 6 8 15 9 7 10 14 11 10 12 8 13
REMARK SMILES IDX 13 14 11 15 9 16 12 17
REMARK H PARENT
ROOT
ATOM      1  C   UNL     1      -4.438   0.168   0.530  1.00  0.00     0.105 C 
ATOM      2  N   UNL     1      -3.246   0.669  -0.149  1.00  0.00    -0.303 NA
ATOM      3  C   UNL     1      -2.187   0.989   0.835  1.00  0.00     0.105 C 
ATOM      4  C   UNL     1      -0.781   1.123   0.206  1.00  0.00     0.133 C 
ATOM      5  N   UNL     1      -0.372  -0.107  -0.518  1.00  0.00    -0.353 N 
ATOM      6  C   UNL     1      -1.476  -1.055  -0.774  1.00  0.00     0.133 C 
ATOM      7  C   UNL     1      -2.756  -0.285  -1.172  1.00  0.00     0.105 C 
ENDROOT
BRANCH   5   8
ATOM      8  C   UNL     1       0.781  -0.704   0.036  1.00  0.00     0.139 A 
ATOM      9  C   UNL     1       2.050  -0.115  -0.161  1.00  0.00     0.043 A 
ATOM     10  N   UNL     1       0.631  -1.831   0.758  1.00  0.00    -0.219 NA
ATOM     11  C   UNL     1       2.304   1.032  -0.958  1.00  0.00     0.014 A 
ATOM     12  C   UNL     1       3.123  -0.752   0.478  1.00  0.00     0.076 A 
ATOM     13  C   UNL     1       1.735  -2.346   1.309  1.00  0.00     0.224 A 
ATOM     14  C   UNL     1       3.591   1.547  -1.090  1.00  0.00     0.001 A 
ATOM     15  C   UNL     1       4.398  -0.218   0.334  1.00  0.00     0.029 A 
ATOM     16  N   UNL     1       2.974  -1.855   1.216  1.00  0.00    -0.236 NA
ATOM     17  C   UNL     1       4.643   0.921  -0.437  1.00  0.00     0.002 A 
ENDBRANCH   5   8
TORSDOF 1
