REMARK SMILES O=c1cc(COc2cc(Br)cc(Br)c2)[nH][nH]1
REMARK SMILES IDX 5 1 4 2 1 3 2 4 3 5 16 6 15 7 6 10 7 11 8 12 14 13 9 14
REMARK SMILES IDX 12 15 11 16 10 17 13 18
REMARK H PARENT 16 8 15 9
ROOT
ATOM      1  C   UNL     1       0.857   0.582   0.401  1.00  0.00     0.285 C 
ENDROOT
BRANCH   1   2
ATOM      2  C   UNL     1       2.253   0.173   0.039  1.00  0.00     0.074 C 
ATOM      3  O   UNL     1       5.455   0.418  -1.087  1.00  0.00    -0.268 OA
ATOM      4  C   UNL     1       4.348   0.060  -0.730  1.00  0.00     0.264 C 
ATOM      5  C   UNL     1       3.195   0.954  -0.510  1.00  0.00     0.099 C 
ATOM      6  N   UNL     1       3.928  -1.224  -0.423  1.00  0.00    -0.266 N 
ATOM      7  N   UNL     1       2.685  -1.140   0.213  1.00  0.00    -0.299 N 
ATOM      8  H   UNL     1       4.614  -1.904  -0.114  1.00  0.00     0.191 HD
ATOM      9  H   UNL     1       1.983  -1.805  -0.131  1.00  0.00     0.188 HD
ENDBRANCH   1   2
BRANCH   1  10
ATOM     10  O   UNL     1      -0.045  -0.308  -0.263  1.00  0.00    -0.487 OA
BRANCH  10  11
ATOM     11  C   UNL     1      -1.383  -0.107  -0.065  1.00  0.00     0.122 A 
ATOM     12  C   UNL     1      -2.212  -0.979  -0.777  1.00  0.00     0.062 A 
ATOM     13  C   UNL     1      -1.955   0.860   0.764  1.00  0.00     0.062 A 
ATOM     14  C   UNL     1      -3.599  -0.882  -0.662  1.00  0.00     0.022 A 
ATOM     15  C   UNL     1      -3.346   0.946   0.869  1.00  0.00     0.022 A 
ATOM     16  C   UNL     1      -4.175   0.081   0.161  1.00  0.00     0.031 A 
ATOM     17  Br  UNL     1      -4.704  -2.068  -1.634  1.00  0.00    -0.051 Br
ATOM     18  Br  UNL     1      -4.115   2.260   1.994  1.00  0.00    -0.051 Br
ENDBRANCH  10  11
ENDBRANCH   1  10
TORSDOF 3
