REMARK SMILES O=c1cc(CSc2c(Cl)cccc2Cl)[nH][nH]1
REMARK SMILES IDX 5 1 4 2 1 3 2 4 3 5 16 6 15 7 6 10 7 11 8 12 13 13 10 14
REMARK SMILES IDX 12 15 11 16 9 17 14 18
REMARK H PARENT 16 8 15 9
ROOT
ATOM      1  C   UNL     1       0.869   0.218   0.298  1.00  0.00     0.130 C 
ENDROOT
BRANCH   1   2
ATOM      2  C   UNL     1       2.341   0.173   0.025  1.00  0.00     0.047 C 
ATOM      3  O   UNL     1       5.550   1.263  -0.294  1.00  0.00    -0.268 OA
ATOM      4  C   UNL     1       4.495   0.657  -0.325  1.00  0.00     0.264 C 
ATOM      5  C   UNL     1       3.180   1.220   0.035  1.00  0.00     0.096 C 
ATOM      6  N   UNL     1       4.288  -0.671  -0.658  1.00  0.00    -0.267 N 
ATOM      7  N   UNL     1       2.987  -1.023  -0.283  1.00  0.00    -0.301 N 
ATOM      8  H   UNL     1       5.049  -1.331  -0.544  1.00  0.00     0.191 HD
ATOM      9  H   UNL     1       2.470  -1.550  -0.997  1.00  0.00     0.187 HD
ENDBRANCH   1   2
BRANCH   1  10
ATOM     10  S   UNL     1      -0.048  -0.244  -1.209  1.00  0.00    -0.117 SA
BRANCH  10  11
ATOM     11  C   UNL     1      -1.717  -0.194  -0.532  1.00  0.00     0.045 A 
ATOM     12  C   UNL     1      -2.470   0.997  -0.535  1.00  0.00     0.056 A 
ATOM     13  C   UNL     1      -2.317  -1.352   0.002  1.00  0.00     0.056 A 
ATOM     14  C   UNL     1      -3.771   1.027  -0.018  1.00  0.00     0.022 A 
ATOM     15  C   UNL     1      -3.619  -1.314   0.517  1.00  0.00     0.022 A 
ATOM     16  C   UNL     1      -4.346  -0.127   0.508  1.00  0.00     0.003 A 
ATOM     17  Cl  UNL     1      -1.852   2.493  -1.157  1.00  0.00    -0.083 Cl
ATOM     18  Cl  UNL     1      -1.502  -2.880   0.072  1.00  0.00    -0.083 Cl
ENDBRANCH  10  11
ENDBRANCH   1  10
TORSDOF 3
