REMARK SMILES C[C@H](CS)C(=O)N1CCC[C@H]1C(=O)O
REMARK SMILES IDX 5 1 6 2 2 3 1 4 3 5 4 6 7 8 8 9 11 10 9 11 10 12 12 13 13 14
REMARK SMILES IDX 14 15
REMARK H PARENT 4 7 14 16
ROOT
ATOM      1  C   UNL     1      -0.452   0.856   0.196  1.00  0.00     0.226 C 
ATOM      2  O   UNL     1      -0.247   2.036  -0.098  1.00  0.00    -0.275 OA
ENDROOT
BRANCH   1   3
ATOM      3  C   UNL     1      -1.862   0.337   0.482  1.00  0.00     0.085 C 
ATOM      4  C   UNL     1      -2.393  -0.321  -0.795  1.00  0.00     0.019 C 
BRANCH   3   5
ATOM      5  C   UNL     1      -2.804   1.468   0.915  1.00  0.00     0.079 C 
BRANCH   5   6
ATOM      6  S   UNL     1      -2.528   1.954   2.653  1.00  0.00    -0.179 SA
ATOM      7  H   UNL     1      -2.922   0.798   3.205  1.00  0.00     0.102 HD
ENDBRANCH   5   6
ENDBRANCH   3   5
ENDBRANCH   1   3
BRANCH   1   8
ATOM      8  N   UNL     1       0.577  -0.063   0.180  1.00  0.00    -0.329 N 
ATOM      9  C   UNL     1       0.583  -1.402   0.741  1.00  0.00     0.120 C 
ATOM     10  C   UNL     1       1.930   0.367  -0.196  1.00  0.00     0.195 C 
ATOM     11  C   UNL     1       2.026  -1.612   1.170  1.00  0.00     0.024 C 
ATOM     12  C   UNL     1       2.814  -0.844   0.120  1.00  0.00     0.039 C 
BRANCH  10  13
ATOM     13  C   UNL     1       2.101   0.729  -1.674  1.00  0.00     0.326 C 
ATOM     14  O   UNL     1       3.108   1.214  -2.170  1.00  0.00    -0.250 OA
BRANCH  13  15
ATOM     15  O   UNL     1       1.066   0.383  -2.468  1.00  0.00    -0.480 OA
ATOM     16  H   UNL     1       1.328   0.716  -3.350  1.00  0.00     0.296 HD
ENDBRANCH  13  15
ENDBRANCH  10  13
ENDBRANCH   1   8
TORSDOF 6
