REMARK SMILES CCOC(=O)C1CCCN(C(=O)c2ccc3ccccc3c2)CC1
REMARK SMILES IDX 4 1 5 2 3 3 2 4 1 5 6 6 7 7 24 8 8 9 23 10 9 11 10 12 11 13
REMARK SMILES IDX 12 14 13 15 14 16 22 17 15 18 21 19 16 20 20 21 17 22 19 23
REMARK SMILES IDX 18 24
REMARK H PARENT
ROOT
ATOM      1  C   UNL     1       2.112   2.069   1.576  1.00  0.00     0.308 C 
ATOM      2  O   UNL     1       2.925   2.351   2.446  1.00  0.00    -0.252 OA
ENDROOT
BRANCH   1   3
ATOM      3  O   UNL     1       1.496   2.969   0.759  1.00  0.00    -0.466 OA
BRANCH   3   4
ATOM      4  C   UNL     1       1.878   4.330   0.989  1.00  0.00     0.229 C 
ATOM      5  C   UNL     1       1.121   5.205   0.009  1.00  0.00     0.049 C 
ENDBRANCH   3   4
ENDBRANCH   1   3
BRANCH   1   6
ATOM      6  C   UNL     1       1.665   0.658   1.231  1.00  0.00     0.101 C 
ATOM      7  C   UNL     1       1.507  -0.165   2.518  1.00  0.00     0.017 C 
ATOM      8  C   UNL     1       2.643   0.085   0.198  1.00  0.00     0.037 C 
ATOM      9  C   UNL     1       1.189  -1.655   2.356  1.00  0.00     0.022 C 
ATOM     10  C   UNL     1       2.396  -1.368  -0.204  1.00  0.00     0.120 C 
ATOM     11  C   UNL     1       0.359  -2.021   1.124  1.00  0.00     0.120 C 
ATOM     12  N   UNL     1       0.982  -1.727  -0.175  1.00  0.00    -0.339 N 
BRANCH  12  13
ATOM     13  C   UNL     1       0.248  -1.545  -1.351  1.00  0.00     0.253 C 
ATOM     14  O   UNL     1       0.712  -1.039  -2.370  1.00  0.00    -0.269 OA
BRANCH  13  15
ATOM     15  C   UNL     1      -1.171  -1.960  -1.379  1.00  0.00     0.040 A 
ATOM     16  C   UNL     1      -2.142  -1.012  -1.701  1.00  0.00     0.014 A 
ATOM     17  C   UNL     1      -1.529  -3.290  -1.136  1.00  0.00     0.022 A 
ATOM     18  C   UNL     1      -3.486  -1.385  -1.740  1.00  0.00     0.009 A 
ATOM     19  C   UNL     1      -2.878  -3.676  -1.171  1.00  0.00    -0.018 A 
ATOM     20  C   UNL     1      -3.869  -2.710  -1.472  1.00  0.00    -0.018 A 
ATOM     21  C   UNL     1      -3.265  -5.001  -0.917  1.00  0.00     0.009 A 
ATOM     22  C   UNL     1      -5.217  -3.100  -1.506  1.00  0.00     0.009 A 
ATOM     23  C   UNL     1      -4.610  -5.371  -0.954  1.00  0.00     0.001 A 
ATOM     24  C   UNL     1      -5.585  -4.422  -1.247  1.00  0.00     0.001 A 
ENDBRANCH  13  15
ENDBRANCH  12  13
ENDBRANCH   1   6
TORSDOF 5
