REMARK SMILES O=C(c1noc2c1CCCC2)N1CCc2ccccc2C1
REMARK SMILES IDX 1 1 2 2 3 3 4 4 7 5 5 6 6 7 8 8 11 9 9 10 10 11 12 12 13 13
REMARK SMILES IDX 21 14 14 15 20 16 15 17 19 18 16 19 18 20 17 21
REMARK H PARENT
ROOT
ATOM      1  O   UNL     1       0.213   1.416  -1.330  1.00  0.00    -0.267 OA
ATOM      2  C   UNL     1       0.193   0.434  -0.582  1.00  0.00     0.276 C 
ENDROOT
BRANCH   2   3
ATOM      3  C   UNL     1       1.463  -0.215  -0.213  1.00  0.00     0.174 A 
ATOM      4  N   UNL     1       1.580  -1.534   0.054  1.00  0.00    -0.074 NA
ATOM      5  C   UNL     1       2.744   0.399  -0.180  1.00  0.00     0.028 A 
ATOM      6  O   UNL     1       2.924  -1.772   0.301  1.00  0.00    -0.360 OA
ATOM      7  C   UNL     1       3.600  -0.617   0.147  1.00  0.00     0.140 A 
ATOM      8  C   UNL     1       3.213   1.782  -0.441  1.00  0.00     0.042 C 
ATOM      9  C   UNL     1       5.061  -0.553   0.343  1.00  0.00     0.079 C 
ATOM     10  C   UNL     1       4.653   1.974   0.092  1.00  0.00     0.005 C 
ATOM     11  C   UNL     1       5.578   0.780  -0.240  1.00  0.00     0.008 C 
ENDBRANCH   2   3
BRANCH   2  12
ATOM     12  N   UNL     1      -1.029  -0.051  -0.088  1.00  0.00    -0.333 N 
ATOM     13  C   UNL     1      -1.174  -1.167   0.848  1.00  0.00     0.125 C 
ATOM     14  C   UNL     1      -2.216   0.384  -0.820  1.00  0.00     0.155 C 
ATOM     15  C   UNL     1      -2.403  -1.022   1.743  1.00  0.00     0.057 C 
ATOM     16  C   UNL     1      -3.543  -0.104  -0.292  1.00  0.00    -0.025 A 
ATOM     17  C   UNL     1      -3.643  -0.784   0.931  1.00  0.00    -0.041 A 
ATOM     18  C   UNL     1      -4.710   0.146  -1.031  1.00  0.00     0.006 A 
ATOM     19  C   UNL     1      -4.898  -1.187   1.408  1.00  0.00     0.004 A 
ATOM     20  C   UNL     1      -5.954  -0.271  -0.559  1.00  0.00     0.000 A 
ATOM     21  C   UNL     1      -6.048  -0.936   0.661  1.00  0.00     0.000 A 
ENDBRANCH   2  12
TORSDOF 2
