REMARK SMILES c1ccc(CCSc2[nH]cnc3ncnc2-3)cc1
REMARK SMILES IDX 6 1 5 2 4 3 1 4 2 5 18 6 3 7 17 8 7 9 8 10 9 11 16 12 10 13
REMARK SMILES IDX 15 14 12 15 11 16 14 17 13 18
REMARK H PARENT 9 19
ROOT
ATOM      1  C   UNL     1      -0.408  -1.058   1.189  1.00  0.00     0.081 C 
ENDROOT
BRANCH   1   2
ATOM      2  C   UNL     1      -0.696  -1.067  -0.313  1.00  0.00     0.047 C 
BRANCH   2   3
ATOM      3  C   UNL     1      -1.967  -0.318  -0.632  1.00  0.00    -0.047 A 
ATOM      4  C   UNL     1      -4.332   1.083  -1.183  1.00  0.00     0.000 A 
ATOM      5  C   UNL     1      -3.122   1.768  -1.087  1.00  0.00     0.000 A 
ATOM      6  C   UNL     1      -4.366  -0.298  -1.001  1.00  0.00     0.000 A 
ATOM      7  C   UNL     1      -1.944   1.072  -0.811  1.00  0.00     0.004 A 
ATOM      8  C   UNL     1      -3.190  -0.997  -0.725  1.00  0.00     0.004 A 
ENDBRANCH   2   3
ENDBRANCH   1   2
BRANCH   1   9
ATOM      9  S   UNL     1       1.096  -2.005   1.604  1.00  0.00    -0.106 SA
BRANCH   9  10
ATOM     10  C   UNL     1       2.346  -1.034   0.865  1.00  0.00     0.103 C 
ATOM     11  N   UNL     1       3.189  -1.561  -0.098  1.00  0.00    -0.339 N 
ATOM     12  C   UNL     1       2.556   0.242   1.224  1.00  0.00     0.140 C 
ATOM     13  C   UNL     1       4.189  -0.818  -0.660  1.00  0.00     0.200 C 
ATOM     14  N   UNL     1       1.976   1.107   2.112  1.00  0.00    -0.230 NA
ATOM     15  C   UNL     1       3.646   0.972   0.565  1.00  0.00     0.183 C 
ATOM     16  N   UNL     1       4.454   0.418  -0.385  1.00  0.00    -0.217 NA
ATOM     17  C   UNL     1       2.676   2.199   1.958  1.00  0.00     0.225 C 
ATOM     18  N   UNL     1       3.704   2.182   1.027  1.00  0.00    -0.215 NA
ATOM     19  H   UNL     1       3.064  -2.543  -0.311  1.00  0.00     0.168 HD
ENDBRANCH   9  10
ENDBRANCH   1   9
TORSDOF 4
