REMARK SMILES Cc1ccc2c(c1)-c1c(cnn1CC(=O)N1CCN(c3cc(C)ccc3C)CC1)CO2
REMARK SMILES IDX 14 1 15 2 16 3 17 4 18 5 19 6 28 7 29 8 13 9 12 10 2 11 3 12
REMARK SMILES IDX 7 13 4 14 6 15 5 16 8 17 31 18 9 19 30 20 10 21 11 22 1 23
REMARK SMILES IDX 20 24 21 25 26 26 22 27 25 28 24 29 27 30 23 31
REMARK H PARENT
ROOT
ATOM      1  C   UNL     1       0.895  -0.755   0.249  1.00  0.00     0.244 C 
ATOM      2  O   UNL     1       1.394  -1.854   0.001  1.00  0.00    -0.273 OA
ATOM      3  N   UNL     1      -0.405  -0.457  -0.149  1.00  0.00    -0.338 N 
ATOM      4  C   UNL     1      -1.229  -1.523  -0.736  1.00  0.00     0.141 C 
ATOM      5  C   UNL     1      -2.726  -1.322  -0.448  1.00  0.00     0.138 C 
ATOM      6  N   UNL     1      -3.199  -0.027  -0.985  1.00  0.00    -0.368 N 
ATOM      7  C   UNL     1      -2.215   1.076  -0.987  1.00  0.00     0.138 C 
ATOM      8  C   UNL     1      -1.054   0.854   0.000  1.00  0.00     0.141 C 
ENDROOT
BRANCH   1   9
ATOM      9  C   UNL     1       1.676   0.348   0.936  1.00  0.00     0.244 C 
BRANCH   9  10
ATOM     10  N   UNL     1       2.731  -0.163   1.794  1.00  0.00    -0.255 N 
ATOM     11  C   UNL     1       5.223  -0.222  -2.101  1.00  0.00    -0.050 A 
ATOM     12  C   UNL     1       6.599  -0.069  -1.889  1.00  0.00     0.007 A 
ATOM     13  C   UNL     1       4.359  -0.321  -0.997  1.00  0.00     0.017 A 
ATOM     14  C   UNL     1       7.116  -0.064  -0.594  1.00  0.00     0.047 A 
ATOM     15  C   UNL     1       4.861  -0.285   0.306  1.00  0.00     0.043 A 
ATOM     16  C   UNL     1       6.259  -0.198   0.498  1.00  0.00     0.129 A 
ATOM     17  C   UNL     1       4.058  -0.360   1.516  1.00  0.00     0.079 A 
ATOM     18  O   UNL     1       6.870  -0.198   1.738  1.00  0.00    -0.488 OA
ATOM     19  C   UNL     1       4.663  -0.589   2.732  1.00  0.00     0.035 A 
ATOM     20  C   UNL     1       6.122  -0.796   2.829  1.00  0.00     0.269 C 
ATOM     21  C   UNL     1       3.635  -0.566   3.679  1.00  0.00     0.143 A 
ATOM     22  N   UNL     1       2.453  -0.291   3.121  1.00  0.00    -0.180 NA
ATOM     23  C   UNL     1       4.666  -0.235  -3.495  1.00  0.00     0.044 C 
ENDBRANCH   9  10
ENDBRANCH   1   9
BRANCH   6  24
ATOM     24  C   UNL     1      -4.474   0.329  -0.509  1.00  0.00     0.040 A 
ATOM     25  C   UNL     1      -4.678   0.741   0.820  1.00  0.00     0.029 A 
ATOM     26  C   UNL     1      -5.581   0.266  -1.377  1.00  0.00    -0.028 A 
ATOM     27  C   UNL     1      -5.949   1.098   1.290  1.00  0.00    -0.049 A 
ATOM     28  C   UNL     1      -6.855   0.610  -0.901  1.00  0.00     0.006 A 
ATOM     29  C   UNL     1      -7.038   1.018   0.421  1.00  0.00     0.004 A 
ATOM     30  C   UNL     1      -5.416  -0.174  -2.806  1.00  0.00     0.046 C 
ATOM     31  C   UNL     1      -6.145   1.490   2.724  1.00  0.00     0.044 C 
ENDBRANCH   6  24
TORSDOF 3
