REMARK SMILES O=C(CC1CCCCC1)NCc1ccccn1
REMARK SMILES IDX 1 1 2 2 10 3 3 5 4 6 5 7 9 8 6 9 8 10 7 11 11 12 12 13 13 14
REMARK SMILES IDX 17 15 14 16 16 17 15 18
REMARK H PARENT 10 4
ROOT
ATOM      1  O   UNL     1      -0.086  -1.650  -0.946  1.00  0.00    -0.275 OA
ATOM      2  C   UNL     1       0.219  -0.529  -0.557  1.00  0.00     0.220 C 
ATOM      3  N   UNL     1       1.509  -0.168  -0.267  1.00  0.00    -0.350 N 
ATOM      4  H   UNL     1       1.749   0.767   0.046  1.00  0.00     0.163 HD
ENDROOT
BRANCH   2   5
ATOM      5  C   UNL     1      -0.769   0.610  -0.374  1.00  0.00     0.103 C 
BRANCH   5   6
ATOM      6  C   UNL     1      -2.238   0.177  -0.495  1.00  0.00    -0.002 C 
ATOM      7  C   UNL     1      -2.664  -0.720   0.686  1.00  0.00     0.004 C 
ATOM      8  C   UNL     1      -3.155   1.402  -0.596  1.00  0.00     0.004 C 
ATOM      9  C   UNL     1      -4.163  -0.665   0.997  1.00  0.00     0.000 C 
ATOM     10  C   UNL     1      -4.614   1.008  -0.838  1.00  0.00     0.000 C 
ATOM     11  C   UNL     1      -4.989  -0.348  -0.241  1.00  0.00     0.000 C 
ENDBRANCH   5   6
ENDBRANCH   2   5
BRANCH   3  12
ATOM     12  C   UNL     1       2.610  -1.096  -0.384  1.00  0.00     0.172 C 
BRANCH  12  13
ATOM     13  C   UNL     1       3.928  -0.457  -0.001  1.00  0.00     0.060 A 
ATOM     14  C   UNL     1       5.099  -1.208  -0.055  1.00  0.00     0.026 A 
ATOM     15  N   UNL     1       3.914   0.850   0.389  1.00  0.00    -0.259 NA
ATOM     16  C   UNL     1       6.302  -0.604   0.301  1.00  0.00     0.004 A 
ATOM     17  C   UNL     1       5.099   1.406   0.728  1.00  0.00     0.111 A 
ATOM     18  C   UNL     1       6.305   0.727   0.700  1.00  0.00     0.020 A 
ENDBRANCH  12  13
ENDBRANCH   3  12
TORSDOF 4
