REMARK SMILES CC(=O)Nc1ccc(-c2csc(Nc3cc(C)ccn3)n2)cc1
REMARK SMILES IDX 9 1 10 2 11 3 12 4 21 5 8 6 5 7 6 8 23 9 7 10 22 11 4 12
REMARK SMILES IDX 2 13 3 14 1 15 13 17 14 19 15 20 20 21 16 22 19 23 18 24
REMARK SMILES IDX 17 25
REMARK H PARENT 4 16 13 18
ROOT
ATOM      1  C   UNL     1       0.260  -0.584  -0.505  1.00  0.00     0.084 A 
ATOM      2  C   UNL     1      -0.433  -1.485  -1.283  1.00  0.00     0.097 A 
ATOM      3  S   UNL     1      -2.104  -1.393  -0.935  1.00  0.00    -0.105 S 
ATOM      4  C   UNL     1      -1.813  -0.179   0.253  1.00  0.00     0.188 A 
ATOM      5  N   UNL     1      -0.541   0.148   0.361  1.00  0.00    -0.220 NA
ENDROOT
BRANCH   1   6
ATOM      6  C   UNL     1       1.708  -0.385  -0.536  1.00  0.00     0.001 A 
ATOM      7  C   UNL     1       4.512   0.042  -0.530  1.00  0.00     0.041 A 
ATOM      8  C   UNL     1       3.708   0.559   0.491  1.00  0.00     0.027 A 
ATOM      9  C   UNL     1       3.906  -0.685  -1.553  1.00  0.00     0.027 A 
ATOM     10  C   UNL     1       2.324   0.348   0.487  1.00  0.00     0.012 A 
ATOM     11  C   UNL     1       2.518  -0.896  -1.558  1.00  0.00     0.012 A 
BRANCH   7  12
ATOM     12  N   UNL     1       5.896   0.297  -0.452  1.00  0.00    -0.326 N 
ATOM     13  C   UNL     1       6.878  -0.107  -1.339  1.00  0.00     0.221 C 
ATOM     14  O   UNL     1       6.722  -0.750  -2.371  1.00  0.00    -0.275 OA
ATOM     15  C   UNL     1       8.249   0.365  -0.925  1.00  0.00     0.114 C 
ATOM     16  H   UNL     1       6.199   0.843   0.344  1.00  0.00     0.169 HD
ENDBRANCH   7  12
ENDBRANCH   1   6
BRANCH   4  17
ATOM     17  N   UNL     1      -2.733   0.455   1.007  1.00  0.00    -0.316 N 
ATOM     18  H   UNL     1      -2.402   1.289   1.479  1.00  0.00     0.170 HD
BRANCH  17  19
ATOM     19  C   UNL     1      -4.111   0.385   1.154  1.00  0.00     0.132 A 
ATOM     20  C   UNL     1      -4.921  -0.664   0.736  1.00  0.00     0.050 A 
ATOM     21  N   UNL     1      -4.642   1.455   1.789  1.00  0.00    -0.239 NA
ATOM     22  C   UNL     1      -6.306  -0.618   0.953  1.00  0.00    -0.046 A 
ATOM     23  C   UNL     1      -5.979   1.498   1.979  1.00  0.00     0.114 A 
ATOM     24  C   UNL     1      -6.846   0.502   1.575  1.00  0.00     0.023 A 
ATOM     25  C   UNL     1      -7.189  -1.731   0.475  1.00  0.00     0.044 C 
ENDBRANCH  17  19
ENDBRANCH   4  17
TORSDOF 4
