REMARK SMILES COCCNC(=O)c1cc2c(-c3ccc(Cl)cc3)nn(C)c2s1
REMARK SMILES IDX 5 1 6 2 7 3 4 5 3 6 2 7 1 8 8 9 9 10 23 11 10 12 22 13 11 14
REMARK SMILES IDX 20 15 19 16 21 17 12 18 13 19 18 20 14 21 17 22 15 23 16 24
REMARK H PARENT 5 4
ROOT
ATOM      1  N   UNL     1       2.692  -0.062  -0.191  1.00  0.00    -0.349 N 
ATOM      2  C   UNL     1       2.331   1.208   0.230  1.00  0.00     0.261 C 
ATOM      3  O   UNL     1       3.181   2.044   0.526  1.00  0.00    -0.268 OA
ATOM      4  H   UNL     1       1.994  -0.602  -0.680  1.00  0.00     0.163 HD
ENDROOT
BRANCH   1   5
ATOM      5  C   UNL     1       4.083  -0.392  -0.447  1.00  0.00     0.144 C 
BRANCH   5   6
ATOM      6  C   UNL     1       4.355  -1.892  -0.321  1.00  0.00     0.181 C 
BRANCH   6   7
ATOM      7  O   UNL     1       5.646  -2.255  -0.808  1.00  0.00    -0.383 OA
ATOM      8  C   UNL     1       6.698  -1.913   0.085  1.00  0.00     0.194 C 
ENDBRANCH   6   7
ENDBRANCH   5   6
ENDBRANCH   1   5
BRANCH   2   9
ATOM      9  C   UNL     1       0.893   1.454   0.271  1.00  0.00     0.095 A 
ATOM     10  C   UNL     1      -0.183   0.561   0.184  1.00  0.00     0.038 A 
ATOM     11  S   UNL     1       0.338   3.106   0.483  1.00  0.00    -0.111 S 
ATOM     12  C   UNL     1      -1.378   1.275   0.275  1.00  0.00     0.040 A 
ATOM     13  C   UNL     1      -1.237   2.592   0.443  1.00  0.00     0.122 A 
ATOM     14  C   UNL     1      -2.743   0.972   0.269  1.00  0.00     0.101 A 
ATOM     15  N   UNL     1      -2.484   3.097   0.543  1.00  0.00    -0.257 N 
ATOM     16  N   UNL     1      -3.436   2.124   0.454  1.00  0.00    -0.171 NA
ATOM     17  C   UNL     1      -2.886   4.466   0.738  1.00  0.00     0.175 C 
BRANCH  14  18
ATOM     18  C   UNL     1      -3.428  -0.308   0.115  1.00  0.00     0.003 A 
ATOM     19  C   UNL     1      -4.584  -0.578   0.863  1.00  0.00     0.012 A 
ATOM     20  C   UNL     1      -2.961  -1.277  -0.784  1.00  0.00     0.012 A 
ATOM     21  C   UNL     1      -5.251  -1.800   0.731  1.00  0.00     0.021 A 
ATOM     22  C   UNL     1      -3.628  -2.500  -0.918  1.00  0.00     0.021 A 
ATOM     23  C   UNL     1      -4.767  -2.756  -0.158  1.00  0.00     0.041 A 
ATOM     24  Cl  UNL     1      -5.584  -4.261  -0.324  1.00  0.00    -0.084 Cl
ENDBRANCH  14  18
ENDBRANCH   2   9
TORSDOF 5
