REMARK SMILES O=C1CSC(=S)N1c1ccc(F)c(Cl)c1
REMARK SMILES IDX 8 1 9 2 10 3 11 4 12 5 13 6 14 7 15 8 7 9 1 10 2 11 3 12
REMARK SMILES IDX 4 13 5 14 6 15
REMARK H PARENT
ROOT
ATOM      1  C   UNL     1      -0.322   0.093   0.119  1.00  0.00     0.052 A 
ATOM      2  C   UNL     1      -1.065   0.336   1.288  1.00  0.00     0.030 A 
ATOM      3  C   UNL     1      -2.440   0.081   1.335  1.00  0.00     0.043 A 
ATOM      4  C   UNL     1      -3.087  -0.427   0.216  1.00  0.00     0.141 A 
ATOM      5  F   UNL     1      -4.405  -0.663   0.284  1.00  0.00    -0.205 F 
ATOM      6  C   UNL     1      -2.372  -0.691  -0.946  1.00  0.00     0.078 A 
ATOM      7  Cl  UNL     1      -3.165  -1.321  -2.339  1.00  0.00    -0.081 Cl
ATOM      8  C   UNL     1      -0.997  -0.439  -0.994  1.00  0.00     0.050 A 
ENDROOT
BRANCH   1   9
ATOM      9  N   UNL     1       1.093   0.342   0.067  1.00  0.00    -0.265 N 
ATOM     10  O   UNL     1       1.595  -1.636  -1.092  1.00  0.00    -0.273 OA
ATOM     11  C   UNL     1       1.929  -0.576  -0.566  1.00  0.00     0.243 C 
ATOM     12  C   UNL     1       3.372  -0.155  -0.545  1.00  0.00     0.178 C 
ATOM     13  S   UNL     1       3.466   1.289   0.509  1.00  0.00    -0.086 SA
ATOM     14  C   UNL     1       1.718   1.455   0.613  1.00  0.00     0.148 C 
ATOM     15  S   UNL     1       1.061   2.868   1.226  1.00  0.00    -0.052 S 
ENDBRANCH   1   9
TORSDOF 1
