REMARK SMILES Oc1ccc(Cc2ccccc2)c2cccnc12
REMARK SMILES IDX 2 1 3 2 4 3 5 4 13 5 14 6 15 7 16 8 17 9 18 10 1 11 6 13
REMARK SMILES IDX 7 14 8 15 12 16 9 17 11 18 10 19
REMARK H PARENT 1 12
ROOT
ATOM      1  C   UNL     1       2.907   1.626  -0.345  1.00  0.00     0.141 A 
ATOM      2  C   UNL     1       2.162   2.449   0.499  1.00  0.00     0.049 A 
ATOM      3  C   UNL     1       1.043   1.936   1.139  1.00  0.00     0.008 A 
ATOM      4  C   UNL     1       0.657   0.600   0.941  1.00  0.00    -0.034 A 
ATOM      5  C   UNL     1       1.426  -0.234   0.074  1.00  0.00     0.008 A 
ATOM      6  C   UNL     1       1.112  -1.586  -0.184  1.00  0.00     0.012 A 
ATOM      7  C   UNL     1       1.892  -2.354  -1.039  1.00  0.00     0.021 A 
ATOM      8  C   UNL     1       2.983  -1.754  -1.623  1.00  0.00     0.112 A 
ATOM      9  N   UNL     1       3.328  -0.470  -1.410  1.00  0.00    -0.252 NA
ATOM     10  C   UNL     1       2.571   0.287  -0.581  1.00  0.00     0.112 A 
ENDROOT
BRANCH   1  11
ATOM     11  O   UNL     1       4.015   2.157  -0.969  1.00  0.00    -0.506 OA
ATOM     12  H   UNL     1       4.117   3.085  -0.713  1.00  0.00     0.293 HD
ENDBRANCH   1  11
BRANCH   4  13
ATOM     13  C   UNL     1      -0.579   0.104   1.674  1.00  0.00     0.071 C 
BRANCH  13  14
ATOM     14  C   UNL     1      -1.807  -0.127   0.818  1.00  0.00    -0.044 A 
ATOM     15  C   UNL     1      -2.178   0.762  -0.202  1.00  0.00     0.004 A 
ATOM     16  C   UNL     1      -2.638  -1.227   1.084  1.00  0.00     0.004 A 
ATOM     17  C   UNL     1      -3.332   0.539  -0.956  1.00  0.00     0.000 A 
ATOM     18  C   UNL     1      -3.792  -1.448   0.330  1.00  0.00     0.000 A 
ATOM     19  C   UNL     1      -4.137  -0.567  -0.692  1.00  0.00     0.000 A 
ENDBRANCH  13  14
ENDBRANCH   4  13
TORSDOF 3
