REMARK SMILES CCCCSC(=N)N/N=C/c1cc(C)ccc1O
REMARK SMILES IDX 6 1 7 2 8 3 5 6 4 7 3 8 2 9 1 10 9 11 10 12 11 13 12 14
REMARK SMILES IDX 17 15 13 16 16 17 15 18 14 19 18 20
REMARK H PARENT 7 4 8 5 18 21
ROOT
ATOM      1  C   UNL     1       1.485  -2.266  -1.073  1.00  0.00     0.174 C 
ATOM      2  N   UNL     1       1.188  -3.438  -0.634  1.00  0.00    -0.277 NA
ATOM      3  N   UNL     1       0.708  -1.139  -1.043  1.00  0.00    -0.256 N 
ATOM      4  H   UNL     1       1.976  -4.057  -0.843  1.00  0.00     0.190 HD
ATOM      5  H   UNL     1       1.117  -0.331  -1.500  1.00  0.00     0.192 HD
ENDROOT
BRANCH   1   6
ATOM      6  S   UNL     1       3.057  -2.050  -1.805  1.00  0.00    -0.087 SA
BRANCH   6   7
ATOM      7  C   UNL     1       4.081  -2.067  -0.298  1.00  0.00     0.078 C 
BRANCH   7   8
ATOM      8  C   UNL     1       3.873  -0.866   0.628  1.00  0.00     0.011 C 
BRANCH   8   9
ATOM      9  C   UNL     1       4.239   0.478  -0.004  1.00  0.00    -0.003 C 
ATOM     10  C   UNL     1       4.107   1.615   0.998  1.00  0.00     0.004 C 
ENDBRANCH   8   9
ENDBRANCH   7   8
ENDBRANCH   6   7
ENDBRANCH   1   6
BRANCH   3  11
ATOM     11  N   UNL     1      -0.529  -1.072  -0.484  1.00  0.00    -0.181 NA
ATOM     12  C   UNL     1      -1.128   0.071  -0.577  1.00  0.00     0.145 C 
BRANCH  12  13
ATOM     13  C   UNL     1      -2.476   0.266  -0.007  1.00  0.00     0.037 A 
ATOM     14  C   UNL     1      -3.068   1.529  -0.139  1.00  0.00     0.017 A 
ATOM     15  C   UNL     1      -3.163  -0.761   0.648  1.00  0.00     0.124 A 
ATOM     16  C   UNL     1      -4.343   1.770   0.393  1.00  0.00    -0.050 A 
ATOM     17  C   UNL     1      -4.434  -0.531   1.165  1.00  0.00     0.047 A 
ATOM     18  C   UNL     1      -5.025   0.727   1.034  1.00  0.00     0.007 A 
ATOM     19  C   UNL     1      -4.997   3.111   0.225  1.00  0.00     0.044 C 
BRANCH  15  20
ATOM     20  O   UNL     1      -2.657  -2.021   0.817  1.00  0.00    -0.507 OA
ATOM     21  H   UNL     1      -1.766  -2.059   0.398  1.00  0.00     0.293 HD
ENDBRANCH  15  20
ENDBRANCH  12  13
ENDBRANCH   3  11
TORSDOF 7
