REMARK SMILES Cc1ccc2nc(C)c(C(=O)N/N=C/c3ccccc3[N+](=O)[O-])cc2c1
REMARK SMILES IDX 13 1 14 2 12 3 10 4 11 5 9 7 2 8 3 9 26 10 4 11 25 12 5 13
REMARK SMILES IDX 24 14 6 15 7 16 1 17 8 18 15 19 16 20 20 21 17 22 19 23
REMARK SMILES IDX 18 24 21 25 22 26 23 27
REMARK H PARENT 12 6
ROOT
ATOM      1  N   UNL     1      -2.136   0.680  -0.598  1.00  0.00    -0.180 NA
ATOM      2  C   UNL     1      -3.028   0.036   0.092  1.00  0.00     0.148 C 
ENDROOT
BRANCH   1   3
ATOM      3  N   UNL     1      -0.850   0.209  -0.570  1.00  0.00    -0.243 N 
ATOM      4  C   UNL     1      -0.217  -0.311   0.555  1.00  0.00     0.273 C 
ATOM      5  O   UNL     1      -0.735  -0.553   1.639  1.00  0.00    -0.267 OA
ATOM      6  H   UNL     1      -0.284   0.524  -1.351  1.00  0.00     0.194 HD
BRANCH   4   7
ATOM      7  C   UNL     1       1.227  -0.569   0.373  1.00  0.00     0.063 A 
ATOM      8  C   UNL     1       5.673   0.934  -0.885  1.00  0.00    -0.050 A 
ATOM      9  C   UNL     1       6.146  -0.343  -0.583  1.00  0.00     0.005 A 
ATOM     10  C   UNL     1       4.313   1.208  -0.706  1.00  0.00     0.013 A 
ATOM     11  C   UNL     1       5.266  -1.333  -0.132  1.00  0.00     0.029 A 
ATOM     12  C   UNL     1       3.431   0.208  -0.254  1.00  0.00     0.001 A 
ATOM     13  C   UNL     1       3.912  -1.084   0.039  1.00  0.00     0.071 A 
ATOM     14  C   UNL     1       2.065   0.455  -0.078  1.00  0.00     0.026 A 
ATOM     15  N   UNL     1       3.108  -2.068   0.481  1.00  0.00    -0.252 NA
ATOM     16  C   UNL     1       1.782  -1.814   0.655  1.00  0.00     0.051 A 
ATOM     17  C   UNL     1       6.616   2.011  -1.334  1.00  0.00     0.044 C 
ATOM     18  C   UNL     1       0.959  -2.963   1.161  1.00  0.00     0.067 C 
ENDBRANCH   4   7
ENDBRANCH   1   3
BRANCH   2  19
ATOM     19  C   UNL     1      -4.425   0.522   0.182  1.00  0.00     0.072 A 
ATOM     20  C   UNL     1      -4.726   1.810  -0.286  1.00  0.00     0.017 A 
ATOM     21  C   UNL     1      -5.455  -0.231   0.756  1.00  0.00     0.278 A 
ATOM     22  C   UNL     1      -6.022   2.325  -0.172  1.00  0.00     0.001 A 
ATOM     23  C   UNL     1      -6.756   0.281   0.882  1.00  0.00     0.086 A 
ATOM     24  C   UNL     1      -7.034   1.565   0.415  1.00  0.00     0.007 A 
BRANCH  21  25
ATOM     25  N   UNL     1      -5.231  -1.588   1.209  1.00  0.00     0.063 N 
ATOM     26  O   UNL     1      -4.788  -2.395   0.382  1.00  0.00    -0.258 OA
ATOM     27  O   UNL     1      -5.537  -1.848   2.380  1.00  0.00    -0.258 OA
ENDBRANCH  21  25
ENDBRANCH   2  19
TORSDOF 4
