REMARK SMILES O=c1cc(COc2cc(Cl)cc(Cl)c2)[nH][nH]1
REMARK SMILES IDX 5 1 4 2 1 3 2 4 3 5 16 6 15 7 6 10 7 11 8 12 14 13 9 14
REMARK SMILES IDX 12 15 11 16 10 17 13 18
REMARK H PARENT 16 8 15 9
ROOT
ATOM      1  C   UNL     1       0.780  -0.305  -0.581  1.00  0.00     0.285 C 
ENDROOT
BRANCH   1   2
ATOM      2  C   UNL     1       2.220  -0.188  -0.181  1.00  0.00     0.074 C 
ATOM      3  O   UNL     1       5.497   0.719  -0.301  1.00  0.00    -0.268 OA
ATOM      4  C   UNL     1       4.380   0.353   0.010  1.00  0.00     0.264 C 
ATOM      5  C   UNL     1       3.172   0.502  -0.825  1.00  0.00     0.099 C 
ATOM      6  N   UNL     1       3.991  -0.299   1.169  1.00  0.00    -0.266 N 
ATOM      7  N   UNL     1       2.692  -0.785   0.986  1.00  0.00    -0.299 N 
ATOM      8  H   UNL     1       4.676  -0.851   1.674  1.00  0.00     0.191 HD
ATOM      9  H   UNL     1       2.056  -0.610   1.771  1.00  0.00     0.188 HD
ENDBRANCH   1   2
BRANCH   1  10
ATOM     10  O   UNL     1      -0.018   0.122   0.527  1.00  0.00    -0.487 OA
BRANCH  10  11
ATOM     11  C   UNL     1      -1.376   0.092   0.371  1.00  0.00     0.122 A 
ATOM     12  C   UNL     1      -2.064  -0.355  -0.758  1.00  0.00     0.067 A 
ATOM     13  C   UNL     1      -2.098   0.560   1.472  1.00  0.00     0.067 A 
ATOM     14  C   UNL     1      -3.461  -0.329  -0.774  1.00  0.00     0.046 A 
ATOM     15  C   UNL     1      -3.492   0.582   1.443  1.00  0.00     0.046 A 
ATOM     16  C   UNL     1      -4.182   0.138   0.321  1.00  0.00     0.041 A 
ATOM     17  Cl  UNL     1      -4.302  -0.882  -2.171  1.00  0.00    -0.084 Cl
ATOM     18  Cl  UNL     1      -4.365   1.162   2.808  1.00  0.00    -0.084 Cl
ENDBRANCH  10  11
ENDBRANCH   1  10
TORSDOF 3
