REMARK SMILES Nc1nc2ccc(OC(F)(F)F)cc2s1
REMARK SMILES IDX 6 1 5 2 4 3 14 4 13 5 7 6 15 7 2 8 3 9 8 10 9 11 10 12 11 13
REMARK SMILES IDX 12 14 1 15
REMARK H PARENT 1 16 1 17
ROOT
ATOM      1  C   UNL     1      -0.801  -0.007  -1.845  1.00  0.00     0.049 A 
ATOM      2  C   UNL     1       0.587   0.175  -1.837  1.00  0.00     0.034 A 
ATOM      3  C   UNL     1       1.275   0.222  -0.611  1.00  0.00     0.084 A 
ATOM      4  C   UNL     1       0.544   0.085   0.569  1.00  0.00     0.060 A 
ATOM      5  C   UNL     1      -0.853  -0.099   0.573  1.00  0.00     0.068 A 
ATOM      6  C   UNL     1      -1.520  -0.144  -0.656  1.00  0.00     0.131 A 
ATOM      7  S   UNL     1       1.629   0.179   1.903  1.00  0.00    -0.097 S 
ATOM      8  C   UNL     1       2.941   0.400   0.823  1.00  0.00     0.181 A 
ATOM      9  N   UNL     1       2.638   0.394  -0.449  1.00  0.00    -0.220 NA
ENDROOT
BRANCH   6  10
ATOM     10  O   UNL     1      -2.865  -0.315  -0.837  1.00  0.00    -0.406 OA
BRANCH  10  11
ATOM     11  C   UNL     1      -3.677  -0.464   0.316  1.00  0.00     0.573 C 
ATOM     12  F   UNL     1      -3.318  -1.554   1.025  1.00  0.00    -0.132 F 
ATOM     13  F   UNL     1      -3.608   0.630   1.104  1.00  0.00    -0.132 F 
ATOM     14  F   UNL     1      -4.961  -0.620  -0.075  1.00  0.00    -0.132 F 
ENDBRANCH  10  11
ENDBRANCH   6  10
BRANCH   8  15
ATOM     15  N   UNL     1       4.199   0.550   1.273  1.00  0.00    -0.375 N 
ATOM     16  H   UNL     1       4.414   0.168   2.186  1.00  0.00     0.159 HD
ATOM     17  H   UNL     1       4.921   0.383   0.581  1.00  0.00     0.159 HD
ENDBRANCH   8  15
TORSDOF 3
