REMARK SMILES O=C(O)c1cnn2c(C(F)(F)F)cc(-c3ccco3)nc12
REMARK SMILES IDX 4 1 5 2 6 3 7 4 8 5 13 6 14 7 20 8 21 9 2 10 1 11 3 12 15 14
REMARK SMILES IDX 16 15 19 16 17 17 18 18 9 19 10 20 11 21 12 22
REMARK H PARENT 3 13
ROOT
ATOM      1  C   UNL     1      -2.629  -0.596  -0.422  1.00  0.00     0.124 A 
ATOM      2  C   UNL     1      -3.419   0.528  -0.116  1.00  0.00     0.153 A 
ATOM      3  N   UNL     1      -2.707   1.576   0.293  1.00  0.00    -0.174 NA
ATOM      4  N   UNL     1      -1.422   1.153   0.262  1.00  0.00    -0.209 N 
ATOM      5  C   UNL     1      -0.275   1.863   0.595  1.00  0.00     0.150 C 
ATOM      6  C   UNL     1       0.930   1.267   0.500  1.00  0.00     0.066 C 
ATOM      7  C   UNL     1       0.949  -0.156   0.029  1.00  0.00     0.110 C 
ATOM      8  N   UNL     1      -0.131  -0.818  -0.283  1.00  0.00    -0.224 NA
ATOM      9  C   UNL     1      -1.334  -0.177  -0.172  1.00  0.00     0.171 A 
ENDROOT
BRANCH   1  10
ATOM     10  C   UNL     1      -3.064  -1.887  -0.887  1.00  0.00     0.341 C 
ATOM     11  O   UNL     1      -2.367  -2.855  -1.149  1.00  0.00    -0.246 OA
BRANCH  10  12
ATOM     12  O   UNL     1      -4.407  -1.985  -1.034  1.00  0.00    -0.477 OA
ATOM     13  H   UNL     1      -4.514  -2.907  -1.349  1.00  0.00     0.297 HD
ENDBRANCH  10  12
ENDBRANCH   1  10
BRANCH   7  14
ATOM     14  C   UNL     1       2.238  -0.817  -0.081  1.00  0.00     0.152 A 
ATOM     15  C   UNL     1       3.539  -0.408   0.166  1.00  0.00     0.052 A 
ATOM     16  O   UNL     1       2.263  -2.119  -0.511  1.00  0.00    -0.463 OA
ATOM     17  C   UNL     1       4.384  -1.508  -0.127  1.00  0.00     0.043 A 
ATOM     18  C   UNL     1       3.556  -2.524  -0.535  1.00  0.00     0.196 A 
ENDBRANCH   7  14
BRANCH   5  19
ATOM     19  C   UNL     1      -0.466   3.261   1.043  1.00  0.00     0.433 C 
ATOM     20  F   UNL     1      -1.035   4.046   0.096  1.00  0.00    -0.165 F 
ATOM     21  F   UNL     1       0.729   3.848   1.339  1.00  0.00    -0.165 F 
ATOM     22  F   UNL     1      -1.212   3.358   2.171  1.00  0.00    -0.165 F 
ENDBRANCH   5  19
TORSDOF 4
