REMARK SMILES COc1ccccc1OCC(O)CO
REMARK SMILES IDX 10 1 9 2 8 3 3 4 4 5 5 6 7 7 6 8 2 9 1 10 11 11 12 12 13 14
REMARK SMILES IDX 14 15
REMARK H PARENT 12 13 14 16
ROOT
ATOM      1  C   UNL     1      -1.291  -1.280  -0.640  1.00  0.00     0.263 C 
ENDROOT
BRANCH   1   2
ATOM      2  O   UNL     1      -0.247  -0.428  -1.139  1.00  0.00    -0.487 OA
BRANCH   2   3
ATOM      3  C   UNL     1       0.898  -0.593  -0.402  1.00  0.00     0.161 A 
ATOM      4  C   UNL     1       1.224   0.350   0.583  1.00  0.00     0.160 A 
ATOM      5  C   UNL     1       2.410   0.186   1.301  1.00  0.00     0.050 A 
ATOM      6  C   UNL     1       3.257  -0.893   1.023  1.00  0.00     0.004 A 
ATOM      7  C   UNL     1       1.749  -1.659  -0.696  1.00  0.00     0.050 A 
ATOM      8  C   UNL     1       2.930  -1.811   0.025  1.00  0.00     0.004 A 
BRANCH   4   9
ATOM      9  O   UNL     1       0.315   1.360   0.765  1.00  0.00    -0.493 OA
ATOM     10  C   UNL     1       0.694   2.418   1.636  1.00  0.00     0.278 C 
ENDBRANCH   4   9
ENDBRANCH   2   3
ENDBRANCH   1   2
BRANCH   1  11
ATOM     11  C   UNL     1      -2.660  -0.696  -1.016  1.00  0.00     0.177 C 
BRANCH  11  12
ATOM     12  O   UNL     1      -2.794  -0.674  -2.443  1.00  0.00    -0.387 OA
ATOM     13  H   UNL     1      -2.277   0.106  -2.733  1.00  0.00     0.211 HD
ENDBRANCH  11  12
BRANCH  11  14
ATOM     14  C   UNL     1      -2.883   0.724  -0.476  1.00  0.00     0.191 C 
BRANCH  14  15
ATOM     15  O   UNL     1      -2.020   1.665  -1.115  1.00  0.00    -0.394 OA
ATOM     16  H   UNL     1      -1.104   1.419  -0.865  1.00  0.00     0.210 HD
ENDBRANCH  14  15
ENDBRANCH  11  14
ENDBRANCH   1  11
TORSDOF 7
