REMARK SMILES CCOc1ccc(C(C)N=C(S)NCc2ccc(F)cc2)cc1
REMARK SMILES IDX 8 1 9 2 7 3 4 4 5 5 23 6 6 7 22 8 3 9 2 10 1 11 10 12 11 13
REMARK SMILES IDX 13 14 12 16 14 18 15 19 16 20 21 21 17 22 20 23 18 24 19 25
REMARK H PARENT 13 15 12 17
ROOT
ATOM      1  C   UNL     1      -0.010  -0.455  -1.014  1.00  0.00     0.135 C 
ATOM      2  C   UNL     1       0.061  -0.449  -2.542  1.00  0.00     0.038 C 
ENDROOT
BRANCH   1   3
ATOM      3  C   UNL     1      -1.400  -0.042  -0.554  1.00  0.00    -0.023 A 
ATOM      4  C   UNL     1      -3.981   0.746   0.280  1.00  0.00     0.119 A 
ATOM      5  C   UNL     1      -2.921   1.655   0.284  1.00  0.00     0.047 A 
ATOM      6  C   UNL     1      -3.752  -0.558  -0.156  1.00  0.00     0.047 A 
ATOM      7  C   UNL     1      -1.643   1.269  -0.127  1.00  0.00     0.010 A 
ATOM      8  C   UNL     1      -2.473  -0.947  -0.571  1.00  0.00     0.010 A 
BRANCH   4   9
ATOM      9  O   UNL     1      -5.172   1.262   0.707  1.00  0.00    -0.494 OA
BRANCH   9  10
ATOM     10  C   UNL     1      -6.276   0.377   0.891  1.00  0.00     0.226 C 
ATOM     11  C   UNL     1      -7.092   0.263  -0.385  1.00  0.00     0.049 C 
ENDBRANCH   9  10
ENDBRANCH   4   9
ENDBRANCH   1   3
BRANCH   1  12
ATOM     12  N   UNL     1       0.323  -1.805  -0.551  1.00  0.00    -0.255 NA
ATOM     13  C   UNL     1       1.370  -2.002   0.149  1.00  0.00     0.154 C 
ATOM     14  N   UNL     1       2.397  -1.189   0.533  1.00  0.00    -0.361 N 
ATOM     15  H   UNL     1       2.937  -1.656   1.258  1.00  0.00     0.162 HD
BRANCH  13  16
ATOM     16  S   UNL     1       1.541  -3.631   0.781  1.00  0.00    -0.106 SA
ATOM     17  H   UNL     1       0.374  -4.056   0.277  1.00  0.00     0.111 HD
ENDBRANCH  13  16
BRANCH  14  18
ATOM     18  C   UNL     1       3.313  -0.670  -0.471  1.00  0.00     0.150 C 
BRANCH  18  19
ATOM     19  C   UNL     1       4.361   0.178   0.212  1.00  0.00    -0.029 A 
ATOM     20  C   UNL     1       4.031   1.459   0.686  1.00  0.00     0.008 A 
ATOM     21  C   UNL     1       5.662  -0.311   0.412  1.00  0.00     0.008 A 
ATOM     22  C   UNL     1       4.987   2.241   1.336  1.00  0.00     0.039 A 
ATOM     23  C   UNL     1       6.616   0.473   1.064  1.00  0.00     0.039 A 
ATOM     24  C   UNL     1       6.270   1.741   1.518  1.00  0.00     0.123 A 
ATOM     25  F   UNL     1       7.187   2.490   2.145  1.00  0.00    -0.207 F 
ENDBRANCH  18  19
ENDBRANCH  14  18
ENDBRANCH   1  12
TORSDOF 7
