REMARK SMILES O=C(CCC(=O)c1cccs1)NNC(=O)c1cccc(Cl)c1
REMARK SMILES IDX 1 1 2 2 12 3 3 5 4 6 5 7 6 8 7 9 8 10 11 11 9 12 10 13 13 14
REMARK SMILES IDX 14 15 15 16 16 18 17 19 22 20 18 21 20 22 19 23 21 24
REMARK H PARENT 12 4 13 17
ROOT
ATOM      1  O   UNL     1       0.267  -1.180  -0.826  1.00  0.00    -0.273 OA
ATOM      2  C   UNL     1       0.509  -0.190  -0.138  1.00  0.00     0.238 C 
ATOM      3  N   UNL     1      -0.450   0.431   0.639  1.00  0.00    -0.267 N 
ATOM      4  H   UNL     1      -0.330   1.404   0.929  1.00  0.00     0.191 HD
ENDROOT
BRANCH   2   5
ATOM      5  C   UNL     1       1.875   0.444  -0.019  1.00  0.00     0.110 C 
BRANCH   5   6
ATOM      6  C   UNL     1       2.870  -0.188  -0.982  1.00  0.00     0.092 C 
BRANCH   6   7
ATOM      7  C   UNL     1       4.259   0.362  -0.723  1.00  0.00     0.173 C 
ATOM      8  O   UNL     1       4.588   1.409  -1.284  1.00  0.00    -0.293 OA
BRANCH   7   9
ATOM      9  C   UNL     1       5.112  -0.360   0.219  1.00  0.00     0.070 A 
ATOM     10  C   UNL     1       4.855  -1.497   0.966  1.00  0.00     0.023 A 
ATOM     11  S   UNL     1       6.700   0.223   0.518  1.00  0.00    -0.141 S 
ATOM     12  C   UNL     1       5.964  -1.885   1.776  1.00  0.00     0.012 A 
ATOM     13  C   UNL     1       7.034  -1.033   1.626  1.00  0.00     0.065 A 
ENDBRANCH   7   9
ENDBRANCH   6   7
ENDBRANCH   5   6
ENDBRANCH   2   5
BRANCH   3  14
ATOM     14  N   UNL     1      -1.788   0.054   0.412  1.00  0.00    -0.264 N 
ATOM     15  C   UNL     1      -2.717   1.077   0.358  1.00  0.00     0.269 C 
ATOM     16  O   UNL     1      -2.438   2.234   0.665  1.00  0.00    -0.267 OA
ATOM     17  H   UNL     1      -1.903  -0.791  -0.149  1.00  0.00     0.191 HD
BRANCH  15  18
ATOM     18  C   UNL     1      -4.078   0.722  -0.130  1.00  0.00     0.043 A 
ATOM     19  C   UNL     1      -4.573  -0.588  -0.073  1.00  0.00     0.014 A 
ATOM     20  C   UNL     1      -4.885   1.749  -0.637  1.00  0.00     0.034 A 
ATOM     21  C   UNL     1      -5.859  -0.871  -0.541  1.00  0.00     0.002 A 
ATOM     22  C   UNL     1      -6.166   1.456  -1.102  1.00  0.00     0.041 A 
ATOM     23  C   UNL     1      -6.654   0.151  -1.059  1.00  0.00     0.020 A 
ATOM     24  Cl  UNL     1      -7.154   2.715  -1.734  1.00  0.00    -0.084 Cl
ENDBRANCH  15  18
ENDBRANCH   3  14
TORSDOF 6
