REMARK SMILES CCCc1cc(-c2nnc(S)n2CC)cs1
REMARK SMILES IDX 4 1 5 2 6 3 15 4 16 5 3 6 2 7 1 8 7 9 8 10 12 11 9 12 10 13
REMARK SMILES IDX 13 14 14 15 11 16
REMARK H PARENT 11 17
ROOT
ATOM      1  C   UNL     1       1.978  -0.986   0.530  1.00  0.00     0.005 A 
ATOM      2  C   UNL     1       0.815  -0.391   0.976  1.00  0.00     0.027 A 
ATOM      3  C   UNL     1      -0.178  -0.266  -0.047  1.00  0.00     0.030 A 
ATOM      4  C   UNL     1       0.266  -0.795  -1.235  1.00  0.00     0.077 A 
ATOM      5  S   UNL     1       1.860  -1.419  -1.120  1.00  0.00    -0.148 S 
ENDROOT
BRANCH   1   6
ATOM      6  C   UNL     1       3.226  -1.281   1.311  1.00  0.00     0.046 C 
BRANCH   6   7
ATOM      7  C   UNL     1       4.331  -0.243   1.100  1.00  0.00     0.002 C 
ATOM      8  C   UNL     1       3.995   1.123   1.681  1.00  0.00     0.004 C 
ENDBRANCH   6   7
ENDBRANCH   1   6
BRANCH   3   9
ATOM      9  C   UNL     1      -1.581   0.389   0.235  1.00  0.00     0.165 A 
ATOM     10  N   UNL     1      -1.899   0.811   1.447  1.00  0.00    -0.129 NA
ATOM     11  N   UNL     1      -2.647   0.628  -0.603  1.00  0.00    -0.303 N 
ATOM     12  N   UNL     1      -3.181   1.295   1.423  1.00  0.00    -0.123 NA
ATOM     13  C   UNL     1      -3.618   1.173   0.196  1.00  0.00     0.188 A 
BRANCH  11  14
ATOM     14  C   UNL     1      -2.731   0.407  -2.029  1.00  0.00     0.123 C 
ATOM     15  C   UNL     1      -3.216  -0.990  -2.378  1.00  0.00     0.028 C 
ENDBRANCH  11  14
BRANCH  13  16
ATOM     16  S   UNL     1      -5.197   1.627  -0.330  1.00  0.00    -0.103 SA
ATOM     17  H   UNL     1      -5.633   2.060   0.863  1.00  0.00     0.111 HD
ENDBRANCH  13  16
ENDBRANCH   3   9
TORSDOF 5
