REMARK SMILES O=C(CS)N[C@@H]1CCCC[C@H]1NC(=O)CS
REMARK SMILES IDX 6 1 7 2 8 3 9 4 10 5 11 6 5 7 1 8 2 9 3 11 4 12 12 14 13 15
REMARK SMILES IDX 14 16 15 18 16 19
REMARK H PARENT 5 10 4 13 12 17 16 20
ROOT
ATOM      1  C   UNL     1      -0.690   0.865   0.299  1.00  0.00     0.104 C 
ATOM      2  C   UNL     1      -1.169   2.317   0.291  1.00  0.00     0.027 C 
ATOM      3  C   UNL     1      -0.252   3.228   1.111  1.00  0.00     0.002 C 
ATOM      4  C   UNL     1       1.129   2.631   1.385  1.00  0.00     0.002 C 
ATOM      5  C   UNL     1       1.677   1.881   0.176  1.00  0.00     0.027 C 
ATOM      6  C   UNL     1       0.732   0.776  -0.333  1.00  0.00     0.104 C 
ENDROOT
BRANCH   1   7
ATOM      7  N   UNL     1      -1.651   0.001  -0.386  1.00  0.00    -0.351 N 
ATOM      8  O   UNL     1      -1.400  -1.740   1.091  1.00  0.00    -0.274 OA
ATOM      9  C   UNL     1      -1.867  -1.298   0.041  1.00  0.00     0.230 C 
ATOM     10  H   UNL     1      -1.783   0.177  -1.377  1.00  0.00     0.163 HD
BRANCH   9  11
ATOM     11  C   UNL     1      -2.763  -2.112  -0.882  1.00  0.00     0.165 C 
BRANCH  11  12
ATOM     12  S   UNL     1      -2.312  -3.870  -0.843  1.00  0.00    -0.169 SA
ATOM     13  H   UNL     1      -2.192  -3.944   0.493  1.00  0.00     0.103 HD
ENDBRANCH  11  12
ENDBRANCH   9  11
ENDBRANCH   1   7
BRANCH   6  14
ATOM     14  N   UNL     1       1.326  -0.545  -0.131  1.00  0.00    -0.351 N 
ATOM     15  C   UNL     1       1.127  -1.563  -1.052  1.00  0.00     0.230 C 
ATOM     16  O   UNL     1       0.566  -1.389  -2.132  1.00  0.00    -0.274 OA
ATOM     17  H   UNL     1       1.497  -0.828   0.827  1.00  0.00     0.163 HD
BRANCH  15  18
ATOM     18  C   UNL     1       1.656  -2.915  -0.608  1.00  0.00     0.165 C 
BRANCH  18  19
ATOM     19  S   UNL     1       3.465  -2.958  -0.762  1.00  0.00    -0.169 SA
ATOM     20  H   UNL     1       3.696  -1.784  -0.157  1.00  0.00     0.103 HD
ENDBRANCH  18  19
ENDBRANCH  15  18
ENDBRANCH   6  14
TORSDOF 6
