REMARK SMILES CC(C)c1cccc(C(C)C)c1OCOP(=O)(O)O
REMARK SMILES IDX 14 1 13 2 12 3 4 4 5 5 6 6 8 7 7 8 2 9 1 10 3 11 9 12 10 13
REMARK SMILES IDX 11 14 15 15 16 16 17 17 18 18 19 20
REMARK H PARENT 18 19 19 21
ROOT
ATOM      1  C   UNL     1       1.651  -0.286   0.183  1.00  0.00     0.407 C 
ENDROOT
BRANCH   1   2
ATOM      2  O   UNL     1       0.588  -0.244   1.143  1.00  0.00    -0.466 OA
BRANCH   2   3
ATOM      3  C   UNL     1      -0.611  -0.032   0.506  1.00  0.00     0.129 A 
ATOM      4  C   UNL     1      -1.381  -1.143   0.104  1.00  0.00    -0.003 A 
ATOM      5  C   UNL     1      -2.598  -0.901  -0.553  1.00  0.00     0.008 A 
ATOM      6  C   UNL     1      -3.045   0.400  -0.776  1.00  0.00     0.001 A 
ATOM      7  C   UNL     1      -1.070   1.291   0.333  1.00  0.00    -0.003 A 
ATOM      8  C   UNL     1      -2.294   1.484  -0.329  1.00  0.00     0.008 A 
BRANCH   4   9
ATOM      9  C   UNL     1      -0.939  -2.573   0.387  1.00  0.00     0.017 C 
ATOM     10  C   UNL     1      -1.927  -3.292   1.312  1.00  0.00     0.012 C 
ATOM     11  C   UNL     1      -0.731  -3.367  -0.906  1.00  0.00     0.012 C 
ENDBRANCH   4   9
BRANCH   7  12
ATOM     12  C   UNL     1      -0.292   2.488   0.862  1.00  0.00     0.017 C 
ATOM     13  C   UNL     1      -1.088   3.244   1.931  1.00  0.00     0.012 C 
ATOM     14  C   UNL     1       0.133   3.432  -0.267  1.00  0.00     0.012 C 
ENDBRANCH   7  12
ENDBRANCH   2   3
ENDBRANCH   1   2
BRANCH   1  15
ATOM     15  O   UNL     1       2.885  -0.430   0.863  1.00  0.00    -0.249 OA
BRANCH  15  16
ATOM     16  P   UNL     1       4.171  -0.295  -0.065  1.00  0.00     0.472 P 
ATOM     17  O   UNL     1       4.200  -1.111  -1.309  1.00  0.00    -0.228 OA
BRANCH  16  18
ATOM     18  O   UNL     1       4.380   1.274  -0.253  1.00  0.00    -0.303 OA
ATOM     19  H   UNL     1       4.670   1.680   0.584  1.00  0.00     0.223 HD
ENDBRANCH  16  18
BRANCH  16  20
ATOM     20  O   UNL     1       5.391  -0.631   0.909  1.00  0.00    -0.303 OA
ATOM     21  H   UNL     1       5.617  -1.579   0.852  1.00  0.00     0.223 HD
ENDBRANCH  16  20
ENDBRANCH  15  16
ENDBRANCH   1  15
TORSDOF 8
