REMARK SMILES COc1ccc2cc3[n+](cc2c1OC)CCc1cc2c(cc1-3)OCO2
REMARK SMILES IDX 3 1 4 2 5 3 6 4 7 5 8 6 9 7 10 8 11 9 12 10 15 11 16 12
REMARK SMILES IDX 17 13 18 14 19 15 20 16 21 17 22 18 23 19 24 20 25 21 2 22
REMARK SMILES IDX 1 23 13 24 14 25
REMARK H PARENT
ROOT
ATOM      1  C   UNL     1       3.997   0.567   0.529  1.00  0.00     0.161 A 
ATOM      2  C   UNL     1       3.398   1.740   0.999  1.00  0.00     0.051 A 
ATOM      3  C   UNL     1       2.012   1.909   0.945  1.00  0.00     0.013 A 
ATOM      4  C   UNL     1       1.190   0.912   0.406  1.00  0.00    -0.002 A 
ATOM      5  C   UNL     1      -0.195   1.080   0.322  1.00  0.00     0.089 A 
ATOM      6  C   UNL     1      -1.008   0.079  -0.229  1.00  0.00     0.213 A 
ATOM      7  N   UNL     1      -0.426  -1.074  -0.663  1.00  0.00    -0.197 N 
ATOM      8  C   UNL     1       0.915  -1.248  -0.593  1.00  0.00     0.321 A 
ATOM      9  C   UNL     1       1.769  -0.277  -0.059  1.00  0.00     0.092 A 
ATOM     10  C   UNL     1       3.174  -0.460   0.026  1.00  0.00     0.174 A 
ATOM     11  C   UNL     1      -1.238  -2.155  -1.283  1.00  0.00     0.362 C 
ATOM     12  C   UNL     1      -2.532  -2.340  -0.513  1.00  0.00     0.109 C 
ATOM     13  C   UNL     1      -3.253  -1.022  -0.464  1.00  0.00    -0.024 A 
ATOM     14  C   UNL     1      -4.657  -0.987  -0.516  1.00  0.00     0.055 A 
ATOM     15  C   UNL     1      -5.268   0.244  -0.478  1.00  0.00     0.166 A 
ATOM     16  C   UNL     1      -4.542   1.403  -0.387  1.00  0.00     0.166 A 
ATOM     17  C   UNL     1      -3.162   1.400  -0.318  1.00  0.00     0.066 A 
ATOM     18  C   UNL     1      -2.479   0.168  -0.341  1.00  0.00     0.054 A 
ATOM     19  O   UNL     1      -5.330   2.509  -0.371  1.00  0.00    -0.454 OA
ATOM     20  C   UNL     1      -6.644   1.913  -0.457  1.00  0.00     0.468 C 
ATOM     21  O   UNL     1      -6.606   0.471  -0.529  1.00  0.00    -0.454 OA
ENDROOT
BRANCH   1  22
ATOM     22  O   UNL     1       5.350   0.370   0.504  1.00  0.00    -0.493 OA
ATOM     23  C   UNL     1       6.198   1.430   0.932  1.00  0.00     0.278 C 
ENDBRANCH   1  22
BRANCH  10  24
ATOM     24  O   UNL     1       3.616  -1.668  -0.468  1.00  0.00    -0.492 OA
ATOM     25  C   UNL     1       4.770  -2.237   0.150  1.00  0.00     0.278 C 
ENDBRANCH  10  24
TORSDOF 2
