REMARK SMILES CCCCOc1ccc(CC(=O)NO)cc1
REMARK SMILES IDX 6 1 7 2 8 3 9 4 15 5 16 6 5 7 4 8 3 9 2 10 1 11 10 12 11 13
REMARK SMILES IDX 12 14 13 15 14 17
REMARK H PARENT 13 16 14 18
ROOT
ATOM      1  C   UNL     1      -0.382   0.789   0.434  1.00  0.00     0.119 A 
ATOM      2  C   UNL     1       0.597   1.320  -0.404  1.00  0.00     0.047 A 
ATOM      3  C   UNL     1       1.949   1.230  -0.053  1.00  0.00     0.008 A 
ATOM      4  C   UNL     1       2.337   0.609   1.141  1.00  0.00    -0.038 A 
ATOM      5  C   UNL     1       1.349   0.084   1.982  1.00  0.00     0.008 A 
ATOM      6  C   UNL     1       0.002   0.175   1.627  1.00  0.00     0.047 A 
ENDROOT
BRANCH   1   7
ATOM      7  O   UNL     1      -1.731   0.806   0.210  1.00  0.00    -0.494 OA
BRANCH   7   8
ATOM      8  C   UNL     1      -2.183   1.376  -1.017  1.00  0.00     0.229 C 
BRANCH   8   9
ATOM      9  C   UNL     1      -3.706   1.256  -1.088  1.00  0.00     0.041 C 
BRANCH   9  10
ATOM     10  C   UNL     1      -4.235  -0.178  -0.989  1.00  0.00     0.000 C 
ATOM     11  C   UNL     1      -3.777  -1.073  -2.129  1.00  0.00     0.004 C 
ENDBRANCH   9  10
ENDBRANCH   8   9
ENDBRANCH   7   8
ENDBRANCH   1   7
BRANCH   4  12
ATOM     12  C   UNL     1       3.797   0.487   1.509  1.00  0.00     0.137 C 
BRANCH  12  13
ATOM     13  C   UNL     1       4.330  -0.932   1.479  1.00  0.00     0.247 C 
ATOM     14  O   UNL     1       5.074  -1.383   2.351  1.00  0.00    -0.272 OA
ATOM     15  N   UNL     1       3.989  -1.674   0.368  1.00  0.00    -0.238 N 
ATOM     16  H   UNL     1       3.103  -1.512  -0.105  1.00  0.00     0.198 HD
BRANCH  15  17
ATOM     17  O   UNL     1       4.413  -3.027   0.414  1.00  0.00    -0.289 OA
ATOM     18  H   UNL     1       4.932  -3.057   1.248  1.00  0.00     0.246 HD
ENDBRANCH  15  17
ENDBRANCH  12  13
ENDBRANCH   4  12
TORSDOF 7
