REMARK SMILES CN1CCc2cccc3c2[C@H]1Cc1ccc(O)c(O)c1-3
REMARK SMILES IDX 1 1 2 2 3 3 4 4 5 5 6 6 7 7 8 8 9 9 10 10 11 11 12 12 13 13
REMARK SMILES IDX 14 14 15 15 16 16 18 17 20 18 19 19 17 21
REMARK H PARENT 19 20 17 22
ROOT
ATOM      1  C   UNL     1      -2.410  -2.588  -1.111  1.00  0.00     0.106 C 
ATOM      2  N   UNL     1      -2.303  -1.269  -0.480  1.00  0.00    -0.299 NA
ATOM      3  C   UNL     1      -3.107  -0.301  -1.247  1.00  0.00     0.089 C 
ATOM      4  C   UNL     1      -3.203   1.033  -0.505  1.00  0.00     0.051 C 
ATOM      5  C   UNL     1      -1.856   1.545  -0.075  1.00  0.00    -0.041 A 
ATOM      6  C   UNL     1      -1.719   2.873   0.340  1.00  0.00     0.004 A 
ATOM      7  C   UNL     1      -0.498   3.331   0.821  1.00  0.00     0.001 A 
ATOM      8  C   UNL     1       0.600   2.472   0.873  1.00  0.00     0.009 A 
ATOM      9  C   UNL     1       0.513   1.143   0.420  1.00  0.00    -0.009 A 
ATOM     10  C   UNL     1      -0.753   0.671  -0.010  1.00  0.00    -0.019 A 
ATOM     11  C   UNL     1      -0.889  -0.804  -0.410  1.00  0.00     0.092 C 
ATOM     12  C   UNL     1      -0.056  -1.643   0.596  1.00  0.00     0.060 C 
ATOM     13  C   UNL     1       1.387  -1.176   0.618  1.00  0.00    -0.034 A 
ATOM     14  C   UNL     1       2.422  -2.112   0.795  1.00  0.00     0.008 A 
ATOM     15  C   UNL     1       3.751  -1.702   0.767  1.00  0.00     0.050 A 
ATOM     16  C   UNL     1       4.035  -0.367   0.535  1.00  0.00     0.158 A 
ATOM     17  C   UNL     1       3.014   0.573   0.362  1.00  0.00     0.165 A 
ATOM     18  C   UNL     1       1.662   0.205   0.464  1.00  0.00     0.031 A 
ENDROOT
BRANCH  17  19
ATOM     19  O   UNL     1       3.435   1.839   0.029  1.00  0.00    -0.504 OA
ATOM     20  H   UNL     1       2.712   2.246  -0.482  1.00  0.00     0.293 HD
ENDBRANCH  17  19
BRANCH  16  21
ATOM     21  O   UNL     1       5.342   0.026   0.452  1.00  0.00    -0.504 OA
ATOM     22  H   UNL     1       5.294   0.990   0.296  1.00  0.00     0.293 HD
ENDBRANCH  16  21
TORSDOF 2
