REMARK SMILES CC1(C(=O)NN)C(=O)Nc2cc3[nH]c(-c4ccncc4)nc3cc21
REMARK SMILES IDX 3 1 4 2 5 3 2 5 7 6 24 7 8 8 9 9 23 10 10 11 22 12 11 13
REMARK SMILES IDX 21 14 12 15 14 16 13 17 1 18 15 21 16 22 20 23 17 24 19 25
REMARK SMILES IDX 18 26 6 27
REMARK H PARENT 5 4 9 19 13 20 6 28 6 29
ROOT
ATOM      1  C   UNL     1      -3.791   0.561   0.455  1.00  0.00     0.253 C 
ATOM      2  O   UNL     1      -3.293   1.688   0.409  1.00  0.00    -0.272 OA
ATOM      3  N   UNL     1      -5.138   0.377   0.775  1.00  0.00    -0.293 N 
ATOM      4  H   UNL     1      -5.460  -0.556   1.058  1.00  0.00     0.184 HD
ENDROOT
BRANCH   1   5
ATOM      5  C   UNL     1      -3.035  -0.717   0.089  1.00  0.00     0.153 C 
ATOM      6  C   UNL     1      -3.270  -1.818   1.144  1.00  0.00     0.244 C 
ATOM      7  C   UNL     1      -1.523  -0.577   0.145  1.00  0.00     0.003 A 
ATOM      8  O   UNL     1      -4.351  -2.281   1.475  1.00  0.00    -0.273 OA
ATOM      9  N   UNL     1      -2.040  -2.193   1.663  1.00  0.00    -0.324 N 
ATOM     10  C   UNL     1      -0.680   0.252  -0.590  1.00  0.00     0.038 A 
ATOM     11  C   UNL     1      -1.008  -1.470   1.087  1.00  0.00     0.048 A 
ATOM     12  C   UNL     1       0.698   0.148  -0.332  1.00  0.00     0.089 A 
ATOM     13  C   UNL     1       0.341  -1.599   1.374  1.00  0.00     0.054 A 
ATOM     14  N   UNL     1       1.741   0.831  -0.903  1.00  0.00    -0.229 NA
ATOM     15  C   UNL     1       1.166  -0.753   0.624  1.00  0.00     0.068 A 
ATOM     16  C   UNL     1       2.845   0.385  -0.328  1.00  0.00     0.138 A 
ATOM     17  N   UNL     1       2.527  -0.575   0.606  1.00  0.00    -0.338 N 
ATOM     18  C   UNL     1      -3.491  -1.226  -1.281  1.00  0.00     0.038 C 
ATOM     19  H   UNL     1      -1.939  -2.900   2.376  1.00  0.00     0.169 HD
ATOM     20  H   UNL     1       3.184  -1.065   1.192  1.00  0.00     0.168 HD
BRANCH  16  21
ATOM     21  C   UNL     1       4.206   0.845  -0.628  1.00  0.00     0.020 A 
ATOM     22  C   UNL     1       5.346   0.268  -0.062  1.00  0.00     0.032 A 
ATOM     23  C   UNL     1       4.380   1.906  -1.523  1.00  0.00     0.032 A 
ATOM     24  C   UNL     1       6.590   0.775  -0.411  1.00  0.00     0.111 A 
ATOM     25  C   UNL     1       5.663   2.341  -1.808  1.00  0.00     0.111 A 
ATOM     26  N   UNL     1       6.774   1.798  -1.269  1.00  0.00    -0.265 NA
ENDBRANCH  16  21
ENDBRANCH   1   5
BRANCH   3  27
ATOM     27  N   UNL     1      -5.894   1.495   1.202  1.00  0.00    -0.248 NA
ATOM     28  H   UNL     1      -6.324   1.911   0.371  1.00  0.00     0.143 HD
ATOM     29  H   UNL     1      -5.222   2.213   1.507  1.00  0.00     0.143 HD
ENDBRANCH   3  27
TORSDOF 3
