REMARK SMILES Cc1ccc(C(=O)c2cc(O)c(O)c([N+](=O)[O-])c2)cc1
REMARK SMILES IDX 8 1 9 2 10 3 12 4 14 5 18 6 6 7 7 8 5 9 2 10 3 11 20 12 4 13
REMARK SMILES IDX 19 14 1 15 11 16 15 18 16 19 17 20 13 21
REMARK H PARENT 11 17 13 22
ROOT
ATOM      1  C   UNL     1       1.289  -0.785  -0.592  1.00  0.00     0.033 A 
ATOM      2  C   UNL     1       2.302  -1.738  -0.444  1.00  0.00     0.063 A 
ATOM      3  C   UNL     1       3.518  -1.358   0.110  1.00  0.00     0.165 A 
ATOM      4  C   UNL     1       3.762  -0.043   0.509  1.00  0.00     0.237 A 
ATOM      5  C   UNL     1       2.753   0.911   0.342  1.00  0.00     0.315 A 
ATOM      6  C   UNL     1       1.513   0.546  -0.213  1.00  0.00     0.102 A 
ENDROOT
BRANCH   1   7
ATOM      7  C   UNL     1       0.007  -1.208  -1.208  1.00  0.00     0.193 C 
ATOM      8  O   UNL     1       0.033  -2.015  -2.133  1.00  0.00    -0.289 OA
BRANCH   7   9
ATOM      9  C   UNL     1      -1.294  -0.666  -0.741  1.00  0.00     0.023 A 
ATOM     10  C   UNL     1      -3.784   0.346   0.065  1.00  0.00    -0.051 A 
ATOM     11  C   UNL     1      -2.764   0.142   1.004  1.00  0.00     0.004 A 
ATOM     12  C   UNL     1      -3.559   0.005  -1.274  1.00  0.00     0.004 A 
ATOM     13  C   UNL     1      -1.524  -0.363   0.605  1.00  0.00     0.012 A 
ATOM     14  C   UNL     1      -2.320  -0.500  -1.676  1.00  0.00     0.012 A 
ATOM     15  C   UNL     1      -5.127   0.854   0.502  1.00  0.00     0.044 C 
ENDBRANCH   7   9
ENDBRANCH   1   7
BRANCH   3  16
ATOM     16  O   UNL     1       4.492  -2.306   0.262  1.00  0.00    -0.504 OA
ATOM     17  H   UNL     1       5.257  -1.834   0.650  1.00  0.00     0.293 HD
ENDBRANCH   3  16
BRANCH   5  18
ATOM     18  N   UNL     1       2.964   2.303   0.741  1.00  0.00     0.066 N 
ATOM     19  O   UNL     1       2.014   3.089   0.638  1.00  0.00    -0.258 OA
ATOM     20  O   UNL     1       4.089   2.608   1.168  1.00  0.00    -0.258 OA
ENDBRANCH   5  18
BRANCH   4  21
ATOM     21  O   UNL     1       5.007   0.188   1.038  1.00  0.00    -0.500 OA
ATOM     22  H   UNL     1       5.104   1.142   1.252  1.00  0.00     0.294 HD
ENDBRANCH   4  21
TORSDOF 5
