REMARK SMILES S=P(N1CC1)(N1CC1)N1CC1
REMARK SMILES IDX 1 1 2 2 3 3 4 4 5 5 6 6 7 7 8 8 9 9 10 10 11 11
REMARK H PARENT
ROOT
ATOM      1  S   UNL     1       0.102  -0.357   2.688  1.00  0.00    -0.046 S 
ATOM      2  P   UNL     1       0.196  -0.130   0.735  1.00  0.00     0.145 P 
ENDROOT
BRANCH   2   3
ATOM      3  N   UNL     1      -0.859  -1.024  -0.203  1.00  0.00    -0.249 NA
ATOM      4  C   UNL     1      -0.966  -2.464   0.004  1.00  0.00     0.108 C 
ATOM      5  C   UNL     1      -2.116  -1.542   0.316  1.00  0.00     0.108 C 
ENDBRANCH   2   3
BRANCH   2   6
ATOM      6  N   UNL     1       1.671  -0.604   0.117  1.00  0.00    -0.249 NA
ATOM      7  C   UNL     1       2.831   0.272   0.217  1.00  0.00     0.108 C 
ATOM      8  C   UNL     1       2.223  -0.077  -1.119  1.00  0.00     0.108 C 
ENDBRANCH   2   6
BRANCH   2   9
ATOM      9  N   UNL     1      -0.016   1.459   0.259  1.00  0.00    -0.249 NA
ATOM     10  C   UNL     1      -0.795   1.859  -0.905  1.00  0.00     0.108 C 
ATOM     11  C   UNL     1      -1.306   2.106   0.488  1.00  0.00     0.108 C 
ENDBRANCH   2   9
TORSDOF 3
