REMARK SMILES CCC1(c2ccccc2)C(=O)NCNC1=O
REMARK SMILES IDX 3 1 10 2 11 3 12 4 13 5 14 6 15 7 16 8 2 11 1 12 4 13 5 14
REMARK SMILES IDX 9 15 6 16 8 17 7 18
REMARK H PARENT 12 9 14 10
ROOT
ATOM      1  C   UNL     1      -0.841  -0.294   0.280  1.00  0.00     0.152 C 
ATOM      2  C   UNL     1      -1.331   0.579   1.472  1.00  0.00     0.241 C 
ATOM      3  O   UNL     1      -1.333   0.216   2.648  1.00  0.00    -0.273 OA
ATOM      4  N   UNL     1      -1.732   1.855   1.174  1.00  0.00    -0.337 N 
ATOM      5  C   UNL     1      -1.607   2.376  -0.141  1.00  0.00     0.236 C 
ATOM      6  N   UNL     1      -2.075   1.398  -1.059  1.00  0.00    -0.337 N 
ATOM      7  C   UNL     1      -1.714   0.080  -0.945  1.00  0.00     0.241 C 
ATOM      8  O   UNL     1      -2.055  -0.701  -1.831  1.00  0.00    -0.273 OA
ATOM      9  H   UNL     1      -1.940   2.454   1.961  1.00  0.00     0.165 HD
ATOM     10  H   UNL     1      -2.563   1.660  -1.906  1.00  0.00     0.165 HD
ENDROOT
BRANCH   1  11
ATOM     11  C   UNL     1      -1.063  -1.788   0.660  1.00  0.00     0.028 C 
ATOM     12  C   UNL     1      -0.439  -2.831  -0.265  1.00  0.00     0.006 C 
ENDBRANCH   1  11
BRANCH   1  13
ATOM     13  C   UNL     1       0.665  -0.028   0.030  1.00  0.00    -0.023 A 
ATOM     14  C   UNL     1       1.193   0.091  -1.269  1.00  0.00     0.005 A 
ATOM     15  C   UNL     1       1.563   0.054   1.112  1.00  0.00     0.005 A 
ATOM     16  C   UNL     1       2.557   0.320  -1.474  1.00  0.00     0.000 A 
ATOM     17  C   UNL     1       2.925   0.284   0.904  1.00  0.00     0.000 A 
ATOM     18  C   UNL     1       3.421   0.422  -0.388  1.00  0.00     0.000 A 
ENDBRANCH   1  13
TORSDOF 2
