REMARK SMILES C[N+](C)(C)CCOC(N)=O
REMARK SMILES IDX 6 1 5 2 2 3 1 4 3 5 4 6 7 7 8 8 9 9 10 10
REMARK H PARENT 9 11 9 12
ROOT
ATOM      1  C   UNL     1       1.045   0.310   0.376  1.00  0.00     0.296 C 
ENDROOT
BRANCH   1   2
ATOM      2  C   UNL     1      -0.078  -0.718   0.214  1.00  0.00     0.305 C 
BRANCH   2   3
ATOM      3  N   UNL     1      -1.477  -0.117  -0.040  1.00  0.00    -0.328 N 
ATOM      4  C   UNL     1      -1.924   0.761   1.123  1.00  0.00     0.334 C 
ATOM      5  C   UNL     1      -1.507   0.691  -1.333  1.00  0.00     0.334 C 
ATOM      6  C   UNL     1      -2.467  -1.278  -0.176  1.00  0.00     0.334 C 
ENDBRANCH   2   3
ENDBRANCH   1   2
BRANCH   1   7
ATOM      7  O   UNL     1       2.273  -0.398   0.604  1.00  0.00    -0.444 OA
BRANCH   7   8
ATOM      8  C   UNL     1       3.335   0.429   0.761  1.00  0.00     0.404 C 
ATOM      9  N   UNL     1       4.460  -0.283   0.972  1.00  0.00    -0.335 N 
ATOM     10  O   UNL     1       3.290   1.647   0.719  1.00  0.00    -0.225 OA
ATOM     11  H   UNL     1       4.448  -1.291   0.999  1.00  0.00     0.163 HD
ATOM     12  H   UNL     1       5.333   0.209   1.107  1.00  0.00     0.163 HD
ENDBRANCH   7   8
ENDBRANCH   1   7
TORSDOF 4
