REMARK SMILES CC(C)NC(=N)NC(=N)Nc1ccc(Cl)cc1
REMARK SMILES IDX 4 1 5 2 6 3 7 4 8 5 9 6 10 7 2 13 1 14 3 15 11 16 12 17
REMARK SMILES IDX 17 18 13 19 16 20 14 21 15 22
REMARK H PARENT 4 8 6 9 7 10 9 11 10 12
ROOT
ATOM      1  N   UNL     1      -2.715   0.503  -0.041  1.00  0.00    -0.354 N 
ATOM      2  C   UNL     1      -1.743  -0.405  -0.368  1.00  0.00     0.195 C 
ATOM      3  N   UNL     1      -1.979  -1.492  -1.020  1.00  0.00    -0.269 NA
ATOM      4  N   UNL     1      -0.516  -0.036   0.095  1.00  0.00    -0.297 N 
ATOM      5  C   UNL     1       0.724  -0.597  -0.037  1.00  0.00     0.199 C 
ATOM      6  N   UNL     1       0.937  -1.615  -0.807  1.00  0.00    -0.269 NA
ATOM      7  N   UNL     1       1.668   0.017   0.741  1.00  0.00    -0.326 N 
ATOM      8  H   UNL     1      -2.440   1.447  -0.286  1.00  0.00     0.163 HD
ATOM      9  H   UNL     1      -1.058  -1.959  -1.127  1.00  0.00     0.191 HD
ATOM     10  H   UNL     1      -0.551   0.786   0.673  1.00  0.00     0.173 HD
ATOM     11  H   UNL     1       1.915  -1.903  -0.711  1.00  0.00     0.191 HD
ATOM     12  H   UNL     1       1.379   0.262   1.679  1.00  0.00     0.170 HD
ENDROOT
BRANCH   1  13
ATOM     13  C   UNL     1      -4.118   0.249  -0.385  1.00  0.00     0.075 C 
ATOM     14  C   UNL     1      -4.724  -0.754   0.596  1.00  0.00     0.030 C 
ATOM     15  C   UNL     1      -4.892   1.566  -0.322  1.00  0.00     0.030 C 
ENDBRANCH   1  13
BRANCH   7  16
ATOM     16  C   UNL     1       3.058   0.071   0.529  1.00  0.00     0.041 A 
ATOM     17  C   UNL     1       3.918   0.185   1.631  1.00  0.00     0.027 A 
ATOM     18  C   UNL     1       3.626   0.004  -0.752  1.00  0.00     0.027 A 
ATOM     19  C   UNL     1       5.306   0.228   1.459  1.00  0.00     0.022 A 
ATOM     20  C   UNL     1       5.013   0.048  -0.928  1.00  0.00     0.022 A 
ATOM     21  C   UNL     1       5.848   0.159   0.179  1.00  0.00     0.041 A 
ATOM     22  Cl  UNL     1       7.553   0.214  -0.034  1.00  0.00    -0.084 Cl
ENDBRANCH   7  16
TORSDOF 2
