REMARK SMILES CCC1(CC)C(=O)NC(=O)NC1=O
REMARK SMILES IDX 3 1 6 2 7 3 8 4 9 5 10 6 11 7 12 8 13 9 2 12 1 13 4 14 5 15
REMARK H PARENT 8 10 11 11
ROOT
ATOM      1  C   UNL     1       0.098  -0.046   0.184  1.00  0.00     0.128 C 
ATOM      2  C   UNL     1      -0.582   0.032  -1.177  1.00  0.00     0.243 C 
ATOM      3  O   UNL     1      -0.340  -0.727  -2.112  1.00  0.00    -0.273 OA
ATOM      4  N   UNL     1      -1.551   0.989  -1.304  1.00  0.00    -0.277 N 
ATOM      5  C   UNL     1      -1.515   2.177  -0.645  1.00  0.00     0.328 C 
ATOM      6  O   UNL     1      -2.079   3.172  -1.089  1.00  0.00    -0.248 OA
ATOM      7  N   UNL     1      -0.755   2.236   0.480  1.00  0.00    -0.277 N 
ATOM      8  C   UNL     1       0.239   1.347   0.787  1.00  0.00     0.243 C 
ATOM      9  O   UNL     1       1.138   1.672   1.559  1.00  0.00    -0.273 OA
ATOM     10  H   UNL     1      -1.989   1.033  -2.215  1.00  0.00     0.174 HD
ATOM     11  H   UNL     1      -0.644   3.161   0.874  1.00  0.00     0.174 HD
ENDROOT
BRANCH   1  12
ATOM     12  C   UNL     1      -0.848  -0.820   1.152  1.00  0.00     0.023 C 
ATOM     13  C   UNL     1      -1.069  -2.292   0.822  1.00  0.00     0.005 C 
ENDBRANCH   1  12
BRANCH   1  14
ATOM     14  C   UNL     1       1.477  -0.742   0.082  1.00  0.00     0.023 C 
ATOM     15  C   UNL     1       2.506  -0.001  -0.772  1.00  0.00     0.005 C 
ENDBRANCH   1  14
TORSDOF 2
