REMARK SMILES NCCCC(N)(C(=O)O)C(F)F
REMARK SMILES IDX 4 1 3 2 2 3 1 4 5 7 6 8 7 11 8 12 9 13 10 15 11 16 12 17
REMARK H PARENT 1 5 1 6 6 9 6 10 9 14
ROOT
ATOM      1  C   UNL     1       0.209  -0.318   0.310  1.00  0.00     0.042 C 
ENDROOT
BRANCH   1   2
ATOM      2  C   UNL     1       1.196   0.625  -0.401  1.00  0.00     0.018 C 
BRANCH   2   3
ATOM      3  C   UNL     1       2.467   0.885   0.413  1.00  0.00     0.077 C 
BRANCH   3   4
ATOM      4  N   UNL     1       3.195  -0.343   0.696  1.00  0.00    -0.330 NA
ATOM      5  H   UNL     1       3.419  -0.822  -0.176  1.00  0.00     0.118 HD
ATOM      6  H   UNL     1       4.087  -0.119   1.136  1.00  0.00     0.118 HD
ENDBRANCH   3   4
ENDBRANCH   2   3
ENDBRANCH   1   2
BRANCH   1   7
ATOM      7  C   UNL     1      -1.167  -0.454  -0.380  1.00  0.00     0.175 C 
BRANCH   7   8
ATOM      8  N   UNL     1      -0.976  -0.896  -1.803  1.00  0.00    -0.311 NA
ATOM      9  H   UNL     1      -1.882  -1.227  -2.149  1.00  0.00     0.120 HD
ATOM     10  H   UNL     1      -0.774  -0.067  -2.369  1.00  0.00     0.120 HD
ENDBRANCH   7   8
BRANCH   7  11
ATOM     11  C   UNL     1      -1.905   0.891  -0.370  1.00  0.00     0.329 C 
ATOM     12  O   UNL     1      -2.199   1.554  -1.356  1.00  0.00    -0.250 OA
BRANCH  11  13
ATOM     13  O   UNL     1      -2.191   1.363   0.859  1.00  0.00    -0.480 OA
ATOM     14  H   UNL     1      -2.632   2.225   0.688  1.00  0.00     0.296 HD
ENDBRANCH  11  13
ENDBRANCH   7  11
BRANCH   7  15
ATOM     15  C   UNL     1      -2.064  -1.425   0.416  1.00  0.00     0.373 C 
ATOM     16  F   UNL     1      -1.506  -2.663   0.473  1.00  0.00    -0.208 F 
ATOM     17  F   UNL     1      -3.256  -1.581  -0.228  1.00  0.00    -0.208 F 
ENDBRANCH   7  15
ENDBRANCH   1   7
TORSDOF 8
