REMARK SMILES CC(=O)Nc1nc2ccnc(-c3cccc(NS(=O)(=O)c4ccc(C)cc4)c3)n2n1
REMARK SMILES IDX 12 1 13 2 14 3 15 4 16 5 28 6 11 7 5 8 6 9 30 10 7 11 29 12
REMARK SMILES IDX 8 13 9 14 10 15 4 16 2 17 3 18 1 19 17 21 18 23 19 24 20 25
REMARK SMILES IDX 21 26 22 27 27 28 23 29 26 30 24 31 25 32
REMARK H PARENT 4 20 17 22
ROOT
ATOM      1  C   UNL     1      -1.209   1.220   0.945  1.00  0.00     0.021 A 
ATOM      2  C   UNL     1      -1.182   1.278  -0.450  1.00  0.00     0.012 A 
ATOM      3  C   UNL     1       0.011   1.564  -1.113  1.00  0.00     0.003 A 
ATOM      4  C   UNL     1       1.185   1.804  -0.393  1.00  0.00     0.027 A 
ATOM      5  C   UNL     1       1.175   1.763   0.999  1.00  0.00     0.050 A 
ATOM      6  C   UNL     1      -0.024   1.468   1.659  1.00  0.00     0.038 A 
ENDROOT
BRANCH   1   7
ATOM      7  C   UNL     1      -2.465   0.945   1.719  1.00  0.00     0.163 C 
ATOM      8  C   UNL     1      -4.824  -0.973   0.069  1.00  0.00     0.249 A 
ATOM      9  N   UNL     1      -5.523  -0.780   1.233  1.00  0.00    -0.192 NA
ATOM     10  N   UNL     1      -3.617  -0.409   0.036  1.00  0.00    -0.125 NA
ATOM     11  C   UNL     1      -4.703  -0.043   1.949  1.00  0.00     0.161 A 
ATOM     12  N   UNL     1      -3.556   0.200   1.233  1.00  0.00    -0.193 N 
ATOM     13  C   UNL     1      -4.762   0.510   3.241  1.00  0.00     0.069 C 
ATOM     14  C   UNL     1      -3.696   1.207   3.668  1.00  0.00     0.117 C 
ATOM     15  N   UNL     1      -2.545   1.430   2.940  1.00  0.00    -0.236 NA
BRANCH   8  16
ATOM     16  N   UNL     1      -5.423  -1.717  -0.907  1.00  0.00    -0.293 N 
ATOM     17  C   UNL     1      -4.900  -1.953  -2.156  1.00  0.00     0.223 C 
ATOM     18  O   UNL     1      -3.857  -1.507  -2.620  1.00  0.00    -0.275 OA
ATOM     19  C   UNL     1      -5.791  -2.843  -2.983  1.00  0.00     0.114 C 
ATOM     20  H   UNL     1      -6.333  -2.066  -0.649  1.00  0.00     0.173 HD
ENDBRANCH   8  16
ENDBRANCH   1   7
BRANCH   5  21
ATOM     21  N   UNL     1       2.321   1.968   1.817  1.00  0.00    -0.280 N 
ATOM     22  H   UNL     1       2.226   1.954   2.832  1.00  0.00     0.180 HD
BRANCH  21  23
ATOM     23  S   UNL     1       3.844   2.411   1.291  1.00  0.00     0.261 S 
ATOM     24  O   UNL     1       4.661   2.539   2.480  1.00  0.00    -0.201 OA
ATOM     25  O   UNL     1       3.717   3.502   0.347  1.00  0.00    -0.201 OA
BRANCH  23  26
ATOM     26  C   UNL     1       4.430   0.974   0.427  1.00  0.00     0.087 A 
ATOM     27  C   UNL     1       4.391  -0.272   1.059  1.00  0.00     0.022 A 
ATOM     28  C   UNL     1       4.928   1.099  -0.873  1.00  0.00     0.022 A 
ATOM     29  C   UNL     1       4.842  -1.404   0.375  1.00  0.00     0.005 A 
ATOM     30  C   UNL     1       5.380  -0.036  -1.549  1.00  0.00     0.005 A 
ATOM     31  C   UNL     1       5.326  -1.297  -0.937  1.00  0.00    -0.051 A 
ATOM     32  C   UNL     1       5.846  -2.506  -1.662  1.00  0.00     0.044 C 
ENDBRANCH  23  26
ENDBRANCH  21  23
ENDBRANCH   5  21
TORSDOF 5
