REMARK SMILES O=C(COC(=O)C1CCN(c2ccc(C(F)(F)F)cn2)CC1)NCc1ccccc1
REMARK SMILES IDX 5 1 6 2 4 3 3 4 2 5 1 6 23 7 24 9 25 10 26 11 30 12 27 13
REMARK SMILES IDX 29 14 28 15 7 16 8 17 22 18 9 19 21 20 10 21 11 22 12 23
REMARK SMILES IDX 20 24 13 25 19 26 14 27 15 28 16 29 17 30 18 31
REMARK H PARENT 23 8
ROOT
ATOM      1  C   UNL     1      -0.810  -2.858   0.178  1.00  0.00     0.309 C 
ATOM      2  O   UNL     1      -1.469  -3.887   0.212  1.00  0.00    -0.252 OA
ENDROOT
BRANCH   1   3
ATOM      3  O   UNL     1      -1.064  -1.743   0.917  1.00  0.00    -0.455 OA
BRANCH   3   4
ATOM      4  C   UNL     1      -2.195  -1.849   1.788  1.00  0.00     0.332 C 
BRANCH   4   5
ATOM      5  C   UNL     1      -3.540  -1.612   1.098  1.00  0.00     0.258 C 
ATOM      6  O   UNL     1      -4.600  -1.999   1.582  1.00  0.00    -0.271 OA
ATOM      7  N   UNL     1      -3.454  -0.879  -0.066  1.00  0.00    -0.349 N 
ATOM      8  H   UNL     1      -2.576  -0.418  -0.265  1.00  0.00     0.163 HD
BRANCH   7   9
ATOM      9  C   UNL     1      -4.628  -0.424  -0.773  1.00  0.00     0.151 C 
BRANCH   9  10
ATOM     10  C   UNL     1      -4.905   1.023  -0.462  1.00  0.00    -0.029 A 
ATOM     11  C   UNL     1      -4.438   2.041  -1.306  1.00  0.00     0.005 A 
ATOM     12  C   UNL     1      -5.602   1.373   0.703  1.00  0.00     0.005 A 
ATOM     13  C   UNL     1      -4.679   3.382  -0.996  1.00  0.00     0.000 A 
ATOM     14  C   UNL     1      -5.841   2.713   1.011  1.00  0.00     0.000 A 
ATOM     15  C   UNL     1      -5.381   3.717   0.161  1.00  0.00     0.000 A 
ENDBRANCH   9  10
ENDBRANCH   7   9
ENDBRANCH   4   5
ENDBRANCH   3   4
ENDBRANCH   1   3
BRANCH   1  16
ATOM     16  C   UNL     1       0.437  -2.695  -0.669  1.00  0.00     0.103 C 
ATOM     17  C   UNL     1       0.458  -1.357  -1.420  1.00  0.00     0.037 C 
ATOM     18  C   UNL     1       1.673  -2.910   0.209  1.00  0.00     0.037 C 
ATOM     19  C   UNL     1       1.384  -0.348  -0.744  1.00  0.00     0.119 C 
ATOM     20  C   UNL     1       2.929  -2.306  -0.412  1.00  0.00     0.119 C 
ATOM     21  N   UNL     1       2.746  -0.885  -0.715  1.00  0.00    -0.357 N 
BRANCH  21  22
ATOM     22  C   UNL     1       3.739   0.014  -0.330  1.00  0.00     0.128 A 
ATOM     23  C   UNL     1       5.091  -0.309  -0.455  1.00  0.00     0.047 A 
ATOM     24  N   UNL     1       3.376   1.232   0.131  1.00  0.00    -0.239 NA
ATOM     25  C   UNL     1       6.073   0.611  -0.079  1.00  0.00     0.018 A 
ATOM     26  C   UNL     1       4.339   2.113   0.493  1.00  0.00     0.126 A 
ATOM     27  C   UNL     1       5.695   1.854   0.420  1.00  0.00     0.074 A 
BRANCH  27  28
ATOM     28  C   UNL     1       6.684   2.900   0.823  1.00  0.00     0.417 C 
ATOM     29  F   UNL     1       6.291   3.612   1.916  1.00  0.00    -0.166 F 
ATOM     30  F   UNL     1       7.909   2.390   1.134  1.00  0.00    -0.166 F 
ATOM     31  F   UNL     1       6.901   3.816  -0.160  1.00  0.00    -0.166 F 
ENDBRANCH  27  28
ENDBRANCH  21  22
ENDBRANCH   1  16
TORSDOF 8
