REMARK SMILES NC1=NC(=O)C(c2ccccc2)O1
REMARK SMILES IDX 1 1 2 2 3 3 4 4 5 5 6 6 13 7 7 10 8 11 12 12 9 13 11 14
REMARK SMILES IDX 10 15
REMARK H PARENT 1 8 1 9
ROOT
ATOM      1  N   UNL     1      -3.610  -0.406   1.189  1.00  0.00    -0.353 N 
ATOM      2  C   UNL     1      -2.685  -0.349   0.212  1.00  0.00     0.291 C 
ATOM      3  N   UNL     1      -2.581  -1.105  -0.815  1.00  0.00    -0.157 NA
ATOM      4  C   UNL     1      -1.485  -0.639  -1.491  1.00  0.00     0.296 C 
ATOM      5  O   UNL     1      -1.075  -1.081  -2.556  1.00  0.00    -0.268 OA
ATOM      6  C   UNL     1      -0.886   0.536  -0.738  1.00  0.00     0.298 C 
ATOM      7  O   UNL     1      -1.796   0.655   0.367  1.00  0.00    -0.447 OA
ATOM      8  H   UNL     1      -3.778   0.462   1.680  1.00  0.00     0.161 HD
ATOM      9  H   UNL     1      -4.444  -0.928   0.946  1.00  0.00     0.161 HD
ENDROOT
BRANCH   6  10
ATOM     10  C   UNL     1       0.548   0.335  -0.298  1.00  0.00     0.002 A 
ATOM     11  C   UNL     1       0.906   0.221   1.055  1.00  0.00     0.008 A 
ATOM     12  C   UNL     1       1.566   0.272  -1.264  1.00  0.00     0.008 A 
ATOM     13  C   UNL     1       2.240   0.045   1.428  1.00  0.00     0.000 A 
ATOM     14  C   UNL     1       2.899   0.095  -0.889  1.00  0.00     0.000 A 
ATOM     15  C   UNL     1       3.236  -0.018   0.457  1.00  0.00     0.000 A 
ENDBRANCH   6  10
TORSDOF 1
