REMARK SMILES CCCCSC(=N)N/N=C/c1cc(C)ccc1O
REMARK SMILES IDX 6 1 7 2 8 3 5 6 4 7 3 8 2 9 1 10 9 11 10 12 11 13 12 14
REMARK SMILES IDX 17 15 13 16 16 17 15 18 14 19 18 20
REMARK H PARENT 7 4 8 5 18 21
ROOT
ATOM      1  C   UNL     1       1.755   0.593  -2.164  1.00  0.00     0.174 C 
ATOM      2  N   UNL     1       1.739   1.752  -2.721  1.00  0.00    -0.277 NA
ATOM      3  N   UNL     1       0.764  -0.035  -1.459  1.00  0.00    -0.256 N 
ATOM      4  H   UNL     1       2.640   1.882  -3.187  1.00  0.00     0.190 HD
ATOM      5  H   UNL     1       1.015  -0.955  -1.114  1.00  0.00     0.192 HD
ENDROOT
BRANCH   1   6
ATOM      6  S   UNL     1       3.230  -0.340  -2.318  1.00  0.00    -0.087 SA
BRANCH   6   7
ATOM      7  C   UNL     1       4.252   0.549  -1.098  1.00  0.00     0.078 C 
BRANCH   7   8
ATOM      8  C   UNL     1       3.815   0.363   0.358  1.00  0.00     0.011 C 
BRANCH   8   9
ATOM      9  C   UNL     1       3.786  -1.078   0.878  1.00  0.00    -0.003 C 
ATOM     10  C   UNL     1       5.137  -1.774   0.815  1.00  0.00     0.004 C 
ENDBRANCH   8   9
ENDBRANCH   7   8
ENDBRANCH   6   7
ENDBRANCH   1   6
BRANCH   3  11
ATOM     11  N   UNL     1      -0.382   0.560  -1.022  1.00  0.00    -0.181 NA
ATOM     12  C   UNL     1      -1.243  -0.237  -0.474  1.00  0.00     0.145 C 
BRANCH  12  13
ATOM     13  C   UNL     1      -2.547   0.215   0.056  1.00  0.00     0.037 A 
ATOM     14  C   UNL     1      -3.574  -0.741   0.109  1.00  0.00     0.017 A 
ATOM     15  C   UNL     1      -2.797   1.520   0.487  1.00  0.00     0.124 A 
ATOM     16  C   UNL     1      -4.854  -0.388   0.559  1.00  0.00    -0.050 A 
ATOM     17  C   UNL     1      -4.065   1.875   0.948  1.00  0.00     0.047 A 
ATOM     18  C   UNL     1      -5.088   0.924   0.986  1.00  0.00     0.007 A 
ATOM     19  C   UNL     1      -5.943  -1.417   0.636  1.00  0.00     0.044 C 
BRANCH  15  20
ATOM     20  O   UNL     1      -1.802   2.452   0.522  1.00  0.00    -0.507 OA
ATOM     21  H   UNL     1      -2.189   3.339   0.453  1.00  0.00     0.293 HD
ENDBRANCH  15  20
ENDBRANCH  12  13
ENDBRANCH   3  11
TORSDOF 7
