REMARK SMILES COc1ccc2cc1Oc1ccc(cc1)CC1c3c(cc4c(c3Oc3cc5c(cc3OC)CCN(C)C5C2)OCO4)CCN1C
REMARK SMILES IDX 16 1 17 2 44 3 43 4 42 5 18 6 19 7 23 8 20 9 22 10 21 11
REMARK SMILES IDX 39 12 41 13 40 14 45 15 24 16 25 17 26 18 30 19 27 20 29 21
REMARK SMILES IDX 37 22 28 23 35 24 33 25 34 26 36 27 31 29 32 30 13 31 12 32
REMARK SMILES IDX 14 33 11 34 15 35 10 36 9 37 8 38 3 39 7 40 4 41 6 42 5 43
REMARK SMILES IDX 2 44 1 45 38 46
REMARK H PARENT
REMARK Flexibility Score:  101.900
ROOT
ATOM      1  C   UNL     1      -2.938   2.865  -0.775  1.00  0.00     0.059 C 
ENDROOT
BRANCH   1   2
ATOM      2  C   UNL     1      -3.136   1.641  -1.730  1.00  0.00     0.095 C 
ATOM      3  N   UNL     1      -4.195   1.839  -2.761  1.00  0.00    -0.299 NA
ATOM      4  C   UNL     1      -5.517   1.963  -2.145  1.00  0.00     0.089 C 
ATOM      5  C   UNL     1      -5.915   0.653  -1.458  1.00  0.00     0.051 C 
ATOM      6  C   UNL     1      -3.437   0.377  -0.912  1.00  0.00     0.020 A 
ATOM      7  C   UNL     1      -4.787  -0.042  -0.733  1.00  0.00    -0.034 A 
ATOM      8  C   UNL     1      -2.397  -0.377  -0.323  1.00  0.00     0.178 A 
ATOM      9  C   UNL     1      -5.086  -1.172   0.046  1.00  0.00     0.055 A 
ATOM     10  C   UNL     1      -2.734  -1.473   0.458  1.00  0.00     0.208 A 
ATOM     11  C   UNL     1      -4.044  -1.856   0.629  1.00  0.00     0.170 A 
ATOM     12  O   UNL     1      -1.884  -2.282   1.154  1.00  0.00    -0.450 OA
ATOM     13  O   UNL     1      -4.176  -2.957   1.419  1.00  0.00    -0.453 OA
ATOM     14  C   UNL     1      -2.794  -3.251   1.700  1.00  0.00     0.468 C 
ATOM     15  C   UNL     1      -3.914   2.927  -3.685  1.00  0.00     0.106 C 
BRANCH   8  16
ATOM     16  O   UNL     1      -1.100   0.050  -0.498  1.00  0.00    -0.449 OA
BRANCH  16  17
ATOM     17  C   UNL     1      -0.163  -0.905  -0.828  1.00  0.00     0.169 A 
ATOM     18  C   UNL     1       0.863  -1.120   0.098  1.00  0.00     0.056 A 
ATOM     19  C   UNL     1      -0.182  -1.582  -2.055  1.00  0.00     0.161 A 
ATOM     20  C   UNL     1       1.878  -2.048  -0.164  1.00  0.00    -0.023 A 
ATOM     21  C   UNL     1       0.821  -2.518  -2.314  1.00  0.00     0.054 A 
ATOM     22  C   UNL     1       3.016  -2.257   0.837  1.00  0.00     0.091 CG0
ATOM     23  C   UNL     1       1.845  -2.759  -1.378  1.00  0.00    -0.038 A 
ATOM     24  N   UNL     1       3.555  -3.636   0.704  1.00  0.00    -0.299 NA
ATOM     25  C   UNL     1       2.851  -3.851  -1.652  1.00  0.00     0.051 C 
ATOM     26  C   UNL     1       4.020  -3.894  -0.661  1.00  0.00     0.089 C 
ATOM     27  C   UNL     1       4.560  -3.972   1.702  1.00  0.00     0.106 C 
ATOM     28  G   UNL     1       4.073  -1.121   0.672  1.00  0.00     0.000 G0
BRANCH  19  29
ATOM     29  O   UNL     1      -1.178  -1.248  -2.932  1.00  0.00    -0.493 OA
ATOM     30  C   UNL     1      -1.423  -2.141  -4.009  1.00  0.00     0.278 C 
ENDBRANCH  19  29
ENDBRANCH  16  17
ENDBRANCH   8  16
ENDBRANCH   1   2
BRANCH   1  31
ATOM     31  C   UNL     1      -1.533   3.041  -0.241  1.00  0.00    -0.046 A 
ATOM     32  C   UNL     1      -1.256   2.847   1.120  1.00  0.00     0.007 A 
ATOM     33  C   UNL     1      -0.490   3.411  -1.106  1.00  0.00     0.007 A 
ATOM     34  C   UNL     1       0.047   2.990   1.601  1.00  0.00     0.047 A 
ATOM     35  C   UNL     1       0.810   3.559  -0.624  1.00  0.00     0.047 A 
ATOM     36  C   UNL     1       1.078   3.324   0.722  1.00  0.00     0.127 A 
BRANCH  36  37
ATOM     37  O   UNL     1       2.373   3.493   1.158  1.00  0.00    -0.453 OA
BRANCH  37  38
ATOM     38  C   UNL     1       2.941   2.373   1.732  1.00  0.00     0.169 A 
ATOM     39  C   UNL     1       3.311   2.407   3.083  1.00  0.00     0.161 A 
ATOM     40  C   UNL     1       3.206   1.247   0.942  1.00  0.00     0.055 A 
ATOM     41  C   UNL     1       3.882   1.267   3.651  1.00  0.00     0.051 A 
ATOM     42  C   UNL     1       3.792   0.110   1.509  1.00  0.00    -0.042 A 
ATOM     43  C   UNL     1       4.116   0.127   2.872  1.00  0.00     0.008 A 
BRANCH  39  44
ATOM     44  O   UNL     1       3.041   3.562   3.770  1.00  0.00    -0.493 OA
ATOM     45  C   UNL     1       3.820   3.798   4.935  1.00  0.00     0.278 C 
ENDBRANCH  39  44
BRANCH  42  46
ATOM     46  C   UNL     1       4.073  -1.121   0.672  1.00  0.00     0.059 CG0
ATOM     47  G   UNL     1       3.016  -2.257   0.837  1.00  0.00     0.000 G0
ENDBRANCH  42  46
ENDBRANCH  37  38
ENDBRANCH  36  37
ENDBRANCH   1  31
TORSDOF 2
