REMARK SMILES O=C1Nc2ccc(Cl)cc2C(c2ccccc2Cl)=NC1O
REMARK SMILES IDX 11 1 19 2 10 3 4 4 5 5 6 6 9 7 7 8 8 9 3 10 1 11 2 12 12 15
REMARK SMILES IDX 13 16 17 17 14 18 16 19 15 20 18 21 20 22 21 24
REMARK H PARENT 3 13 21 25
REMARK Flexibility Score:   16.900
ROOT
ATOM      1  C   UNL     1       0.181   0.712  -0.139  1.00  0.00     0.079 C 
ATOM      2  N   UNL     1      -0.054   1.957   0.098  1.00  0.00    -0.243 NA
ENDROOT
BRANCH   1   3
ATOM      3  C   UNL     1      -0.821  -0.317  -0.555  1.00  0.00     0.026 A 
ATOM      4  C   UNL     1      -2.097  -0.393   0.033  1.00  0.00     0.050 A 
ATOM      5  C   UNL     1      -2.908  -1.508  -0.230  1.00  0.00     0.028 A 
ATOM      6  C   UNL     1      -2.490  -2.499  -1.119  1.00  0.00     0.023 A 
ATOM      7  C   UNL     1      -0.414  -1.313  -1.458  1.00  0.00     0.033 A 
ATOM      8  C   UNL     1      -1.251  -2.390  -1.739  1.00  0.00     0.041 A 
ATOM      9  Cl  UNL     1      -0.737  -3.608  -2.840  1.00  0.00    -0.084 Cl
BRANCH   4  10
ATOM     10  N   UNL     1      -2.630   0.562   0.910  1.00  0.00    -0.321 N 
ATOM     11  O   UNL     1      -2.842   2.587   1.856  1.00  0.00    -0.269 OA
ATOM     12  C   UNL     1      -2.323   1.899   0.974  1.00  0.00     0.276 CG0
ATOM     13  H   UNL     1      -3.414   0.314   1.501  1.00  0.00     0.170 HD
ATOM     14  G   UNL     1      -1.392   2.476  -0.124  1.00  0.00     0.000 G0
ENDBRANCH   4  10
ENDBRANCH   1   3
BRANCH   1  15
ATOM     15  C   UNL     1       1.578   0.255   0.084  1.00  0.00     0.019 A 
ATOM     16  C   UNL     1       1.836  -0.526   1.219  1.00  0.00     0.012 A 
ATOM     17  C   UNL     1       2.615   0.604  -0.787  1.00  0.00     0.050 A 
ATOM     18  C   UNL     1       3.135  -0.964   1.476  1.00  0.00     0.001 A 
ATOM     19  C   UNL     1       3.913   0.160  -0.522  1.00  0.00     0.021 A 
ATOM     20  C   UNL     1       4.172  -0.622   0.607  1.00  0.00     0.002 A 
ATOM     21  Cl  UNL     1       2.347   1.520  -2.225  1.00  0.00    -0.084 Cl
ENDBRANCH   1  15
BRANCH   2  22
ATOM     22  C   UNL     1      -1.392   2.476  -0.124  1.00  0.00     0.323 CG0
ATOM     23  G   UNL     1      -2.323   1.899   0.974  1.00  0.00     0.000 G0
BRANCH  22  24
ATOM     24  O   UNL     1      -1.425   3.893  -0.104  1.00  0.00    -0.364 OA
ATOM     25  H   UNL     1      -1.019   4.120   0.750  1.00  0.00     0.213 HD
ENDBRANCH  22  24
ENDBRANCH   2  22
TORSDOF 2
