REMARK SMILES CN1C(=O)CN=C(c2ccccc2F)c2cc([N+](=O)[O-])ccc21
REMARK SMILES IDX 15 1 16 2 17 3 21 4 22 5 23 6 2 7 1 8 3 9 4 10 7 12 6 13
REMARK SMILES IDX 8 14 9 15 13 16 10 17 12 18 11 19 14 20 5 21 18 23 19 24
REMARK SMILES IDX 20 25
REMARK H PARENT
REMARK Flexibility Score:   20.900
ROOT
ATOM      1  C   UNL     1      -0.484   0.334  -0.346  1.00  0.00     0.031 A 
ATOM      2  C   UNL     1      -0.068   1.671  -0.497  1.00  0.00     0.098 A 
ATOM      3  C   UNL     1      -0.887   2.710  -0.046  1.00  0.00     0.270 A 
ATOM      4  C   UNL     1      -2.118   2.428   0.548  1.00  0.00     0.088 A 
ATOM      5  C   UNL     1      -2.538   1.098   0.666  1.00  0.00     0.034 A 
ATOM      6  C   UNL     1      -1.749   0.028   0.200  1.00  0.00     0.053 A 
ENDROOT
BRANCH   6   7
ATOM      7  N   UNL     1      -2.259  -1.305   0.296  1.00  0.00    -0.313 N 
ATOM      8  C   UNL     1      -3.207  -1.628   1.354  1.00  0.00     0.153 C 
BRANCH   7   9
ATOM      9  C   UNL     1      -2.031  -2.298  -0.665  1.00  0.00     0.248 CG0
ATOM     10  O   UNL     1      -2.540  -3.420  -0.589  1.00  0.00    -0.272 OA
ATOM     11  G   UNL     1      -1.186  -1.915  -1.873  1.00  0.00     0.000 G0
ENDBRANCH   7   9
ENDBRANCH   6   7
BRANCH   1  12
ATOM     12  C   UNL     1       0.496  -0.726  -0.723  1.00  0.00     0.078 C 
ATOM     13  N   UNL     1       0.202  -1.748  -1.456  1.00  0.00    -0.274 NA
BRANCH  12  14
ATOM     14  C   UNL     1       1.910  -0.614  -0.251  1.00  0.00     0.036 A 
ATOM     15  C   UNL     1       2.943  -1.067  -1.083  1.00  0.00     0.013 A 
ATOM     16  C   UNL     1       2.229  -0.102   1.010  1.00  0.00     0.132 A 
ATOM     17  C   UNL     1       4.273  -0.979  -0.664  1.00  0.00     0.001 A 
ATOM     18  C   UNL     1       3.555  -0.013   1.430  1.00  0.00     0.040 A 
ATOM     19  C   UNL     1       4.579  -0.448   0.590  1.00  0.00     0.003 A 
ATOM     20  F   UNL     1       1.270   0.304   1.856  1.00  0.00    -0.206 F 
ENDBRANCH  12  14
BRANCH  13  21
ATOM     21  C   UNL     1      -1.186  -1.915  -1.873  1.00  0.00     0.243 CG0
ATOM     22  G   UNL     1      -2.031  -2.298  -0.665  1.00  0.00     0.000 G0
ENDBRANCH  13  21
ENDBRANCH   1  12
BRANCH   3  23
ATOM     23  N   UNL     1      -0.444   4.103  -0.185  1.00  0.00     0.062 N 
ATOM     24  O   UNL     1      -1.207   4.992   0.217  1.00  0.00    -0.258 OA
ATOM     25  O   UNL     1       0.665   4.304  -0.698  1.00  0.00    -0.258 OA
ENDBRANCH   3  23
TORSDOF 2
