REMARK SMILES O=C1CN=C(c2ccccc2Cl)c2cc([N+](=O)[O-])ccc2N1
REMARK SMILES IDX 13 1 14 2 15 3 19 4 20 5 21 6 22 7 1 8 2 9 5 12 4 13 6 14
REMARK SMILES IDX 7 15 11 16 8 17 10 18 9 19 12 20 3 21 16 23 17 24 18 25
REMARK H PARENT 22 10
REMARK Flexibility Score:   20.900
ROOT
ATOM      1  C   UNL     1      -0.822  -0.151   0.194  1.00  0.00     0.031 A 
ATOM      2  C   UNL     1      -0.735   1.136   0.757  1.00  0.00     0.098 A 
ATOM      3  C   UNL     1      -1.811   2.024   0.637  1.00  0.00     0.270 A 
ATOM      4  C   UNL     1      -2.970   1.647  -0.046  1.00  0.00     0.088 A 
ATOM      5  C   UNL     1      -3.062   0.360  -0.583  1.00  0.00     0.034 A 
ATOM      6  C   UNL     1      -2.012  -0.559  -0.436  1.00  0.00     0.051 A 
ENDROOT
BRANCH   6   7
ATOM      7  N   UNL     1      -2.235  -1.838  -0.964  1.00  0.00    -0.324 N 
ATOM      8  O   UNL     1      -1.999  -4.065  -1.119  1.00  0.00    -0.273 OA
ATOM      9  C   UNL     1      -1.671  -3.019  -0.558  1.00  0.00     0.246 CG0
ATOM     10  H   UNL     1      -2.987  -1.977  -1.628  1.00  0.00     0.170 HD
ATOM     11  G   UNL     1      -0.761  -2.991   0.655  1.00  0.00     0.000 G0
ENDBRANCH   6   7
BRANCH   1  12
ATOM     12  C   UNL     1       0.417  -0.987   0.164  1.00  0.00     0.076 C 
ATOM     13  N   UNL     1       0.466  -2.258   0.369  1.00  0.00    -0.274 NA
BRANCH  12  14
ATOM     14  C   UNL     1       1.725  -0.315  -0.105  1.00  0.00     0.019 A 
ATOM     15  C   UNL     1       2.747  -0.515   0.835  1.00  0.00     0.012 A 
ATOM     16  C   UNL     1       1.968   0.472  -1.239  1.00  0.00     0.050 A 
ATOM     17  C   UNL     1       3.990   0.095   0.663  1.00  0.00     0.001 A 
ATOM     18  C   UNL     1       3.217   1.080  -1.404  1.00  0.00     0.021 A 
ATOM     19  C   UNL     1       4.223   0.897  -0.453  1.00  0.00     0.002 A 
ATOM     20  Cl  UNL     1       0.802   0.704  -2.492  1.00  0.00    -0.084 Cl
ENDBRANCH  12  14
BRANCH  13  21
ATOM     21  C   UNL     1      -0.761  -2.991   0.655  1.00  0.00     0.243 CG0
ATOM     22  G   UNL     1      -1.671  -3.019  -0.558  1.00  0.00     0.000 G0
ENDBRANCH  13  21
ENDBRANCH   1  12
BRANCH   3  23
ATOM     23  N   UNL     1      -1.710   3.372   1.213  1.00  0.00     0.062 N 
ATOM     24  O   UNL     1      -0.651   3.676   1.778  1.00  0.00    -0.258 OA
ATOM     25  O   UNL     1      -2.690   4.120   1.101  1.00  0.00    -0.258 OA
ENDBRANCH   3  23
TORSDOF 2
