REMARK SMILES CC1=C(C(=O)Nc2cccc(Cl)c2C)C2(CCCCCC2)OC1=O
REMARK SMILES IDX 1 1 2 2 3 3 15 4 22 5 23 6 24 7 4 8 5 9 6 10 7 12 8 13 13 14
REMARK SMILES IDX 9 15 11 16 10 17 14 18 12 19 16 20 17 21 18 22 21 24 20 25
REMARK SMILES IDX 19 26
REMARK H PARENT 6 11
REMARK Flexibility Score:   21.900
ROOT
ATOM      1  C   UNL     1       0.741  -2.796  -1.826  1.00  0.00     0.053 C 
ATOM      2  C   UNL     1      -0.356  -2.051  -1.165  1.00  0.00     0.047 C 
ATOM      3  C   UNL     1      -0.486  -0.781  -0.777  1.00  0.00     0.071 C 
ATOM      4  C   UNL     1      -1.847  -0.492  -0.230  1.00  0.00     0.143 C 
ATOM      5  O   UNL     1      -2.452  -1.802  -0.237  1.00  0.00    -0.451 OA
ATOM      6  C   UNL     1      -1.623  -2.703  -0.826  1.00  0.00     0.335 C 
ATOM      7  O   UNL     1      -1.877  -3.878  -1.017  1.00  0.00    -0.247 OA
ENDROOT
BRANCH   3   8
ATOM      8  C   UNL     1       0.557   0.262  -0.862  1.00  0.00     0.256 C 
ATOM      9  O   UNL     1       0.281   1.351  -1.344  1.00  0.00    -0.269 OA
ATOM     10  N   UNL     1       1.751  -0.132  -0.295  1.00  0.00    -0.322 N 
ATOM     11  H   UNL     1       1.758  -1.047   0.133  1.00  0.00     0.170 HD
BRANCH  10  12
ATOM     12  C   UNL     1       2.961   0.604  -0.205  1.00  0.00     0.045 A 
ATOM     13  C   UNL     1       3.089   1.882  -0.767  1.00  0.00     0.026 A 
ATOM     14  C   UNL     1       4.071   0.024   0.465  1.00  0.00    -0.009 A 
ATOM     15  C   UNL     1       4.284   2.594  -0.676  1.00  0.00     0.004 A 
ATOM     16  C   UNL     1       5.271   0.763   0.545  1.00  0.00     0.046 A 
ATOM     17  C   UNL     1       5.373   2.036  -0.020  1.00  0.00     0.021 A 
ATOM     18  C   UNL     1       3.959  -1.353   1.074  1.00  0.00     0.048 C 
ATOM     19  Cl  UNL     1       6.687   0.158   1.336  1.00  0.00    -0.084 Cl
ENDBRANCH  10  12
ENDBRANCH   3   8
BRANCH   4  20
ATOM     20  C   UNL     1      -2.680   0.397  -1.172  1.00  0.00     0.054 C 
BRANCH  20  21
ATOM     21  C   UNL     1      -4.103   0.710  -0.699  1.00  0.00     0.004 C 
BRANCH  21  22
ATOM     22  C   UNL     1      -4.128   1.732   0.433  1.00  0.00     0.000 CG0
ATOM     23  G   UNL     1      -3.993   1.151   1.835  1.00  0.00     0.000 G0
ENDBRANCH  21  22
ENDBRANCH  20  21
ENDBRANCH   4  20
BRANCH   4  24
ATOM     24  C   UNL     1      -1.763   0.003   1.228  1.00  0.00     0.054 C 
BRANCH  24  25
ATOM     25  C   UNL     1      -3.080  -0.058   2.004  1.00  0.00     0.004 C 
BRANCH  25  26
ATOM     26  C   UNL     1      -3.993   1.151   1.835  1.00  0.00     0.000 CG0
ATOM     27  G   UNL     1      -4.128   1.732   0.433  1.00  0.00     0.000 G0
ENDBRANCH  25  26
ENDBRANCH  24  25
ENDBRANCH   4  24
TORSDOF 2
