REMARK SMILES CN1C(=O)C(O)N=C(c2ccccc2Cl)c2cc(Cl)ccc21
REMARK SMILES IDX 7 1 8 2 16 3 22 4 21 5 20 6 17 7 18 8 19 9 2 10 1 11 3 12
REMARK SMILES IDX 4 13 9 15 10 16 14 17 11 18 13 19 12 20 15 21 5 22 6 24
REMARK H PARENT 6 25
REMARK Flexibility Score:   22.900
ROOT
ATOM      1  N   UNL     1      -0.159   1.781  -0.973  1.00  0.00    -0.243 NA
ATOM      2  C   UNL     1      -0.539   0.654  -0.482  1.00  0.00     0.079 C 
ENDROOT
BRANCH   2   3
ATOM      3  C   UNL     1       0.277  -0.592  -0.434  1.00  0.00     0.026 A 
ATOM      4  C   UNL     1       1.622  -0.594  -0.012  1.00  0.00     0.053 A 
ATOM      5  C   UNL     1       2.255  -1.844   0.141  1.00  0.00     0.028 A 
ATOM      6  C   UNL     1       1.594  -3.042  -0.153  1.00  0.00     0.023 A 
ATOM      7  C   UNL     1      -0.380  -1.799  -0.742  1.00  0.00     0.033 A 
ATOM      8  C   UNL     1       0.282  -3.012  -0.603  1.00  0.00     0.041 A 
ATOM      9  Cl  UNL     1      -0.530  -4.481  -0.973  1.00  0.00    -0.084 Cl
BRANCH   4  10
ATOM     10  N   UNL     1       2.363   0.597   0.280  1.00  0.00    -0.311 N 
ATOM     11  C   UNL     1       3.469   0.530   1.226  1.00  0.00     0.153 C 
BRANCH  10  12
ATOM     12  C   UNL     1       2.214   1.802  -0.420  1.00  0.00     0.278 CG0
ATOM     13  O   UNL     1       2.931   2.784  -0.190  1.00  0.00    -0.269 OA
ATOM     14  G   UNL     1       1.171   1.855  -1.567  1.00  0.00     0.000 G0
ENDBRANCH  10  12
ENDBRANCH   4  10
ENDBRANCH   2   3
BRANCH   2  15
ATOM     15  C   UNL     1      -1.892   0.612   0.132  1.00  0.00     0.019 A 
ATOM     16  C   UNL     1      -1.973   0.462   1.523  1.00  0.00     0.012 A 
ATOM     17  C   UNL     1      -3.057   0.739  -0.633  1.00  0.00     0.050 A 
ATOM     18  C   UNL     1      -3.220   0.432   2.147  1.00  0.00     0.001 A 
ATOM     19  C   UNL     1      -4.303   0.708   0.001  1.00  0.00     0.021 A 
ATOM     20  C   UNL     1      -4.383   0.555   1.387  1.00  0.00     0.002 A 
ATOM     21  Cl  UNL     1      -3.030   0.873  -2.354  1.00  0.00    -0.084 Cl
ENDBRANCH   2  15
BRANCH   1  22
ATOM     22  C   UNL     1       1.171   1.855  -1.567  1.00  0.00     0.323 CG0
ATOM     23  G   UNL     1       2.214   1.802  -0.420  1.00  0.00     0.000 G0
BRANCH  22  24
ATOM     24  O   UNL     1       1.441   0.949  -2.625  1.00  0.00    -0.364 OA
ATOM     25  H   UNL     1       2.254   1.274  -3.046  1.00  0.00     0.213 HD
ENDBRANCH  22  24
ENDBRANCH   1  22
TORSDOF 2
