REMARK SMILES C[C@@H]1C/C=C/CC/C=C/[C@H](O)Cc2cc(O)cc(O)c2C(=O)O1
REMARK SMILES IDX 21 1 22 2 23 3 2 4 1 5 3 6 4 7 5 8 6 9 20 11 18 12 13 13
REMARK SMILES IDX 17 14 14 15 15 16 19 17 12 19 10 20 9 21 8 22 7 23 11 25
REMARK SMILES IDX 16 27
REMARK H PARENT 19 18 11 26 16 28
REMARK Flexibility Score:   45.900
ROOT
ATOM      1  C   UNL     1      -0.080   1.432  -0.495  1.00  0.00     0.342 C 
ATOM      2  O   UNL     1      -0.683   1.679  -1.527  1.00  0.00    -0.246 OA
ENDROOT
BRANCH   1   3
ATOM      3  O   UNL     1      -0.591   1.364   0.748  1.00  0.00    -0.459 OA
BRANCH   3   4
ATOM      4  C   UNL     1      -2.001   1.647   0.899  1.00  0.00     0.177 C 
ATOM      5  C   UNL     1      -2.104   2.985   1.630  1.00  0.00     0.053 C 
BRANCH   4   6
ATOM      6  C   UNL     1      -2.633   0.525   1.736  1.00  0.00     0.072 C 
BRANCH   6   7
ATOM      7  C   UNL     1      -2.855  -0.803   1.057  1.00  0.00    -0.027 C 
ATOM      8  C   UNL     1      -2.901  -1.054  -0.261  1.00  0.00    -0.031 C 
BRANCH   8   9
ATOM      9  C   UNL     1      -3.054  -2.438  -0.831  1.00  0.00     0.031 CG0
ATOM     10  G   UNL     1      -1.795  -2.923  -1.563  1.00  0.00     0.000 G0
ENDBRANCH   8   9
ENDBRANCH   6   7
ENDBRANCH   4   6
ENDBRANCH   3   4
ENDBRANCH   1   3
BRANCH   1  11
ATOM     11  C   UNL     1       1.399   1.384  -0.462  1.00  0.00     0.105 A 
ATOM     12  C   UNL     1       2.069   2.371  -1.219  1.00  0.00     0.134 A 
ATOM     13  C   UNL     1       2.151   0.436   0.266  1.00  0.00    -0.023 A 
ATOM     14  C   UNL     1       3.459   2.475  -1.208  1.00  0.00     0.093 A 
ATOM     15  C   UNL     1       3.557   0.552   0.255  1.00  0.00     0.051 A 
ATOM     16  C   UNL     1       4.193   1.565  -0.464  1.00  0.00     0.119 A 
BRANCH  12  17
ATOM     17  O   UNL     1       1.415   3.286  -2.010  1.00  0.00    -0.507 OA
ATOM     18  H   UNL     1       0.494   2.973  -2.155  1.00  0.00     0.293 HD
ENDBRANCH  12  17
BRANCH  13  19
ATOM     19  C   UNL     1       1.572  -0.752   1.008  1.00  0.00     0.072 C 
BRANCH  19  20
ATOM     20  C   UNL     1       1.624  -2.064   0.194  1.00  0.00     0.141 C 
BRANCH  20  21
ATOM     21  C   UNL     1       0.471  -2.169  -0.770  1.00  0.00     0.000 C 
ATOM     22  C   UNL     1      -0.601  -2.972  -0.648  1.00  0.00    -0.028 C 
BRANCH  22  23
ATOM     23  C   UNL     1      -1.795  -2.923  -1.563  1.00  0.00     0.031 CG0
ATOM     24  G   UNL     1      -3.054  -2.438  -0.831  1.00  0.00     0.000 G0
ENDBRANCH  22  23
ENDBRANCH  20  21
BRANCH  20  25
ATOM     25  O   UNL     1       1.605  -3.156   1.108  1.00  0.00    -0.389 OA
ATOM     26  H   UNL     1       1.667  -3.966   0.567  1.00  0.00     0.211 HD
ENDBRANCH  20  25
ENDBRANCH  19  20
ENDBRANCH  13  19
BRANCH  16  27
ATOM     27  O   UNL     1       5.553   1.612  -0.418  1.00  0.00    -0.508 OA
ATOM     28  H   UNL     1       5.857   2.400  -0.901  1.00  0.00     0.293 HD
ENDBRANCH  16  27
ENDBRANCH   1  11
TORSDOF 3
