REMARK  Name = _xua_nativo.pdb
REMARK  6 active torsions:
REMARK  status: ('A' for Active; 'I' for Inactive)
REMARK    1  A    between atoms: P_1  and  O5'_22
REMARK    2  A    between atoms: N9_11  and  C1'_12
REMARK    3  A    between atoms: C2'_14  and  SE2'_15
REMARK    4  A    between atoms: SE2'_15  and  CA'_23
REMARK    5  A    between atoms: C4'_19  and  C5'_21
REMARK    6  A    between atoms: C5'_21  and  O5'_22
REMARK                            x       y       z     vdW  Elec       q    Type
REMARK                         _______ _______ _______ _____ _____    ______ ____
ROOT
ATOM      1  C1' XUA B   5      14.409  35.563  55.883  0.00  0.00    +0.000 C 
ATOM      2  C2' XUA B   5      12.964  35.257  55.712  0.00  0.00    +0.000 C 
ATOM      3  C3' XUA B   5      12.765  35.651  54.308  0.00  0.00    +0.000 C 
ATOM      4  O3' XUA B   5      13.230  34.678  53.442  0.00  0.00    +0.000 OA
ATOM      5  C4' XUA B   5      13.583  36.890  54.253  0.00  0.00    +0.000 C 
ATOM      6  O4' XUA B   5      14.669  36.700  55.115  0.00  0.00    +0.000 OA
ENDROOT
BRANCH   1  16
ATOM      7  N1  XUA B   5      17.074  33.815  59.982  0.00  0.00    +0.000 NA
ATOM      8  C2  XUA B   5      17.036  33.282  58.744  0.00  0.00    +0.000 C 
ATOM      9  N3  XUA B   5      16.291  33.858  57.778  0.00  0.00    +0.000 NA
ATOM     10  C4  XUA B   5      15.578  34.969  58.027  0.00  0.00    +0.000 C 
ATOM     11  C5  XUA B   5      15.608  35.537  59.313  0.00  0.00    +0.000 C 
ATOM     12  C6  XUA B   5      16.383  34.920  60.281  0.00  0.00    +0.000 C 
ATOM     13  N6  XUA B   5      16.445  35.464  61.604  0.00  0.00    +0.000 N 
ATOM     14  N7  XUA B   5      14.822  36.613  59.284  0.00  0.00    +0.000 NA
ATOM     15  C8  XUA B   5      14.310  36.750  58.072  0.00  0.00    +0.000 C 
ATOM     16  N9  XUA B   5      14.751  35.766  57.274  0.00  0.00    +0.000 N 
ATOM     17  HN6 XUA B   5      15.921  36.167  61.829  0.00  0.00    +0.000 HD
ATOM     18 HN6A XUA B   5      17.012  35.103  62.220  0.00  0.00    +0.000 HD
ENDBRANCH   1  16
BRANCH   2  19
ATOM     19 SE2' XUA B   5      12.559  33.374  56.096  0.00  0.00    +0.000 Se
ATOM     20  CA' XUA B   5      11.580  33.320  57.790  0.00  0.00    +0.000 C 
ENDBRANCH   2  19
BRANCH   5  21
ATOM     21  C5' XUA B   5      12.815  38.112  54.682  0.00  0.00    +0.000 C 
BRANCH  21  22
ATOM     22  O5' XUA B   5      11.458  37.857  54.637  0.00  0.00    +0.000 OA
BRANCH  22  23
ATOM     23  P   XUA B   5      10.460  38.725  55.490  0.00  0.00    +0.000 P 
ATOM     24  OP1 XUA B   5       9.172  37.960  55.702  0.00  0.00    +0.000 OA
ATOM     25  OP2 XUA B   5      11.084  39.062  56.832  0.00  0.00    +0.000 OA
ENDBRANCH  22  23
ENDBRANCH  21  22
ENDBRANCH   5  21
TORSDOF 5
