MODEL 1
REMARK VINA RESULT:      -6.3      0.000      0.000
REMARK SMILES CN(C)CCCOc1ccc2nc3n(c2c1)CC(CN(C)C)CN3
REMARK SMILES IDX 6 1 5 2 4 3 2 4 1 5 3 6 7 7 8 8 9 9 16 10 10 11 15 12 11 13
REMARK SMILES IDX 14 14 12 15 13 16 17 17 24 18 18 19 23 20 19 22 20 23 21 24
REMARK SMILES IDX 22 25
REMARK H PARENT 24 21
ROOT
ATOM      1  C   UNL     1      23.608  16.783 -11.302  1.00  0.00     0.231 C 
ENDROOT
BRANCH   1   2
ATOM      2  C   UNL     1      24.494  17.613 -12.230  1.00  0.00     0.057 C 
BRANCH   2   3
ATOM      3  C   UNL     1      25.885  16.998 -12.446  1.00  0.00     0.087 C 
BRANCH   3   4
ATOM      4  N   UNL     1      26.993  17.948 -12.236  1.00  0.00    -0.309 NA
ATOM      5  C   UNL     1      27.210  18.738 -13.452  1.00  0.00     0.104 C 
ATOM      6  C   UNL     1      26.744  18.843 -11.105  1.00  0.00     0.104 C 
ENDBRANCH   3   4
ENDBRANCH   2   3
ENDBRANCH   1   2
BRANCH   1   7
ATOM      7  O   UNL     1      22.550  17.612 -10.818  1.00  0.00    -0.493 OA
BRANCH   7   8
ATOM      8  C   UNL     1      22.508  17.853  -9.469  1.00  0.00     0.121 A 
ATOM      9  C   UNL     1      21.557  17.343  -8.580  1.00  0.00     0.049 A 
ATOM     10  C   UNL     1      23.537  18.688  -9.010  1.00  0.00     0.075 A 
ATOM     11  C   UNL     1      21.611  17.651  -7.211  1.00  0.00     0.034 A 
ATOM     12  C   UNL     1      23.571  18.985  -7.643  1.00  0.00     0.073 A 
ATOM     13  C   UNL     1      22.637  18.484  -6.740  1.00  0.00     0.091 A 
ATOM     14  N   UNL     1      24.403  19.739  -6.861  1.00  0.00    -0.310 N 
ATOM     15  N   UNL     1      22.898  18.914  -5.459  1.00  0.00    -0.213 NA
ATOM     16  C   UNL     1      23.961  19.669  -5.565  1.00  0.00     0.203 A 
ATOM     17  C   UNL     1      25.608  20.436  -7.262  1.00  0.00     0.132 C 
ATOM     18  N   UNL     1      24.597  20.342  -4.585  1.00  0.00    -0.355 N 
ATOM     19  C   UNL     1      26.083  21.449  -6.208  1.00  0.00     0.042 C 
ATOM     20  C   UNL     1      25.948  20.819  -4.811  1.00  0.00     0.122 C 
ATOM     21  H   UNL     1      24.368  20.049  -3.638  1.00  0.00     0.163 HD
BRANCH  19  22
ATOM     22  C   UNL     1      25.306  22.782  -6.290  1.00  0.00     0.091 C 
BRANCH  22  23
ATOM     23  N   UNL     1      24.436  22.868  -7.481  1.00  0.00    -0.309 NA
ATOM     24  C   UNL     1      23.062  23.179  -7.074  1.00  0.00     0.105 C 
ATOM     25  C   UNL     1      24.904  23.882  -8.430  1.00  0.00     0.105 C 
ENDBRANCH  22  23
ENDBRANCH  19  22
ENDBRANCH   7   8
ENDBRANCH   1   7
TORSDOF 7
ENDMDL
MODEL 2
REMARK VINA RESULT:      -6.2      0.748      1.208
REMARK SMILES CN(C)CCCOc1ccc2nc3n(c2c1)CC(CN(C)C)CN3
REMARK SMILES IDX 6 1 5 2 4 3 2 4 1 5 3 6 7 7 8 8 9 9 16 10 10 11 15 12 11 13
REMARK SMILES IDX 14 14 12 15 13 16 17 17 24 18 18 19 23 20 19 22 20 23 21 24
REMARK SMILES IDX 22 25
REMARK H PARENT 24 21
ROOT
ATOM      1  C   UNL     1      23.570  16.779 -11.192  1.00  0.00     0.231 C 
ENDROOT
BRANCH   1   2
ATOM      2  C   UNL     1      24.395  17.568 -12.208  1.00  0.00     0.057 C 
BRANCH   2   3
ATOM      3  C   UNL     1      25.703  18.119 -11.625  1.00  0.00     0.087 C 
BRANCH   3   4
ATOM      4  N   UNL     1      26.891  17.825 -12.447  1.00  0.00    -0.309 NA
ATOM      5  C   UNL     1      26.678  16.590 -13.209  1.00  0.00     0.104 C 
ATOM      6  C   UNL     1      27.210  18.920 -13.365  1.00  0.00     0.104 C 
ENDBRANCH   3   4
ENDBRANCH   2   3
ENDBRANCH   1   2
BRANCH   1   7
ATOM      7  O   UNL     1      22.505  17.609 -10.724  1.00  0.00    -0.493 OA
BRANCH   7   8
ATOM      8  C   UNL     1      22.468  17.888  -9.383  1.00  0.00     0.121 A 
ATOM      9  C   UNL     1      21.546  17.372  -8.468  1.00  0.00     0.049 A 
ATOM     10  C   UNL     1      23.472  18.772  -8.959  1.00  0.00     0.075 A 
ATOM     11  C   UNL     1      21.603  17.721  -7.109  1.00  0.00     0.034 A 
ATOM     12  C   UNL     1      23.509  19.109  -7.602  1.00  0.00     0.073 A 
ATOM     13  C   UNL     1      22.603  18.603  -6.674  1.00  0.00     0.091 A 
ATOM     14  N   UNL     1      24.322  19.914  -6.852  1.00  0.00    -0.310 N 
ATOM     15  N   UNL     1      22.862  19.079  -5.410  1.00  0.00    -0.213 NA
ATOM     16  C   UNL     1      23.896  19.868  -5.549  1.00  0.00     0.203 A 
ATOM     17  C   UNL     1      25.498  20.642  -7.287  1.00  0.00     0.132 C 
ATOM     18  N   UNL     1      24.519  20.591  -4.596  1.00  0.00    -0.355 N 
ATOM     19  C   UNL     1      25.947  21.701  -6.268  1.00  0.00     0.042 C 
ATOM     20  C   UNL     1      25.849  21.108  -4.852  1.00  0.00     0.122 C 
ATOM     21  H   UNL     1      24.310  20.318  -3.639  1.00  0.00     0.163 HD
BRANCH  19  22
ATOM     22  C   UNL     1      25.123  23.003  -6.380  1.00  0.00     0.091 C 
BRANCH  22  23
ATOM     23  N   UNL     1      25.830  24.069  -7.119  1.00  0.00    -0.309 NA
ATOM     24  C   UNL     1      27.278  23.841  -7.059  1.00  0.00     0.105 C 
ATOM     25  C   UNL     1      25.405  24.139  -8.519  1.00  0.00     0.105 C 
ENDBRANCH  22  23
ENDBRANCH  19  22
ENDBRANCH   7   8
ENDBRANCH   1   7
TORSDOF 7
ENDMDL
MODEL 3
REMARK VINA RESULT:      -6.1      0.907      1.427
REMARK SMILES CN(C)CCCOc1ccc2nc3n(c2c1)CC(CN(C)C)CN3
REMARK SMILES IDX 6 1 5 2 4 3 2 4 1 5 3 6 7 7 8 8 9 9 16 10 10 11 15 12 11 13
REMARK SMILES IDX 14 14 12 15 13 16 17 17 24 18 18 19 23 20 19 22 20 23 21 24
REMARK SMILES IDX 22 25
REMARK H PARENT 24 21
ROOT
ATOM      1  C   UNL     1      23.258  16.585 -11.245  1.00  0.00     0.231 C 
ENDROOT
BRANCH   1   2
ATOM      2  C   UNL     1      24.011  17.200 -12.424  1.00  0.00     0.057 C 
BRANCH   2   3
ATOM      3  C   UNL     1      25.526  17.289 -12.191  1.00  0.00     0.087 C 
BRANCH   3   4
ATOM      4  N   UNL     1      26.062  18.659 -12.297  1.00  0.00    -0.309 NA
ATOM      5  C   UNL     1      26.503  19.126 -10.979  1.00  0.00     0.104 C 
ATOM      6  C   UNL     1      27.174  18.742 -13.246  1.00  0.00     0.104 C 
ENDBRANCH   3   4
ENDBRANCH   2   3
ENDBRANCH   1   2
BRANCH   1   7
ATOM      7  O   UNL     1      22.326  17.547 -10.746  1.00  0.00    -0.493 OA
BRANCH   7   8
ATOM      8  C   UNL     1      22.372  17.829  -9.406  1.00  0.00     0.121 A 
ATOM      9  C   UNL     1      21.481  17.350  -8.441  1.00  0.00     0.049 A 
ATOM     10  C   UNL     1      23.430  18.675  -9.040  1.00  0.00     0.075 A 
ATOM     11  C   UNL     1      21.625  17.700  -7.088  1.00  0.00     0.034 A 
ATOM     12  C   UNL     1      23.553  19.013  -7.688  1.00  0.00     0.073 A 
ATOM     13  C   UNL     1      22.680  18.543  -6.711  1.00  0.00     0.091 A 
ATOM     14  N   UNL     1      24.436  19.788  -6.986  1.00  0.00    -0.310 N 
ATOM     15  N   UNL     1      23.024  19.012  -5.464  1.00  0.00    -0.213 NA
ATOM     16  C   UNL     1      24.079  19.760  -5.662  1.00  0.00     0.203 A 
ATOM     17  C   UNL     1      25.613  20.469  -7.486  1.00  0.00     0.132 C 
ATOM     18  N   UNL     1      24.779  20.461  -4.747  1.00  0.00    -0.355 N 
ATOM     19  C   UNL     1      26.156  21.512  -6.497  1.00  0.00     0.042 C 
ATOM     20  C   UNL     1      26.112  20.926  -5.076  1.00  0.00     0.122 C 
ATOM     21  H   UNL     1      24.611  20.198  -3.779  1.00  0.00     0.163 HD
BRANCH  19  22
ATOM     22  C   UNL     1      25.378  22.845  -6.569  1.00  0.00     0.091 C 
BRANCH  22  23
ATOM     23  N   UNL     1      25.277  23.523  -5.261  1.00  0.00    -0.309 NA
ATOM     24  C   UNL     1      26.213  24.651  -5.210  1.00  0.00     0.105 C 
ATOM     25  C   UNL     1      23.919  24.006  -4.997  1.00  0.00     0.105 C 
ENDBRANCH  22  23
ENDBRANCH  19  22
ENDBRANCH   7   8
ENDBRANCH   1   7
TORSDOF 7
ENDMDL
