MODEL 1
REMARK VINA RESULT:      -9.2      0.000      0.000
REMARK SMILES C[n+]1ccc(/C=N/NC(=O)c2cccc(C(=O)N/N=C/c3cc[n+](C)c4ccccc34)n2)c2ccccc21
REMARK SMILES IDX 11 1 12 2 13 3 14 4 15 5 32 6 9 7 8 8 10 9 7 11 6 12 5 13
REMARK SMILES IDX 2 14 3 15 38 16 4 17 37 18 33 19 36 20 34 21 35 22 1 23
REMARK SMILES IDX 16 24 17 25 18 26 19 28 20 29 21 30 22 31 31 32 23 33 30 34
REMARK SMILES IDX 26 35 24 36 29 37 27 38 28 39 25 40
REMARK H PARENT 8 10 18 27
ROOT
ATOM      1  C   UNL     1      24.653  23.292  -6.446  1.00  0.00     0.130 A 
ATOM      2  C   UNL     1      23.910  23.734  -5.355  1.00  0.00     0.034 A 
ATOM      3  C   UNL     1      23.987  25.075  -4.997  1.00  0.00     0.005 A 
ATOM      4  C   UNL     1      24.804  25.924  -5.734  1.00  0.00     0.034 A 
ATOM      5  C   UNL     1      25.522  25.398  -6.806  1.00  0.00     0.130 A 
ATOM      6  N   UNL     1      25.472  24.089  -7.196  1.00  0.00    -0.237 NA
ENDROOT
BRANCH   1   7
ATOM      7  C   UNL     1      24.541  21.853  -6.857  1.00  0.00     0.289 C 
ATOM      8  N   UNL     1      25.572  21.415  -7.691  1.00  0.00    -0.242 N 
ATOM      9  O   UNL     1      23.588  21.170  -6.488  1.00  0.00    -0.266 OA
ATOM     10  H   UNL     1      26.115  22.161  -8.121  1.00  0.00     0.194 HD
BRANCH   8  11
ATOM     11  N   UNL     1      25.496  20.254  -8.428  1.00  0.00    -0.180 NA
ATOM     12  C   UNL     1      25.464  20.391  -9.715  1.00  0.00     0.142 C 
BRANCH  12  13
ATOM     13  C   UNL     1      25.581  19.254 -10.660  1.00  0.00     0.014 A 
ATOM     14  N   UNL     1      26.138  17.179 -12.404  1.00  0.00    -0.201 N 
ATOM     15  C   UNL     1      27.017  18.193 -12.250  1.00  0.00     0.309 A 
ATOM     16  C   UNL     1      24.948  17.155 -11.722  1.00  0.00     0.212 A 
ATOM     17  C   UNL     1      26.764  19.242 -11.391  1.00  0.00     0.081 A 
ATOM     18  C   UNL     1      24.020  16.104 -11.895  1.00  0.00     0.080 A 
ATOM     19  C   UNL     1      24.636  18.216 -10.822  1.00  0.00     0.055 A 
ATOM     20  C   UNL     1      22.803  16.085 -11.214  1.00  0.00     0.007 A 
ATOM     21  C   UNL     1      23.384  18.168 -10.159  1.00  0.00     0.016 A 
ATOM     22  C   UNL     1      22.485  17.119 -10.350  1.00  0.00     0.001 A 
ATOM     23  C   UNL     1      26.509  16.089 -13.338  1.00  0.00     0.440 C 
ENDBRANCH  12  13
ENDBRANCH   8  11
ENDBRANCH   1   7
BRANCH   5  24
ATOM     24  C   UNL     1      26.420  26.312  -7.579  1.00  0.00     0.289 C 
ATOM     25  O   UNL     1      26.598  27.471  -7.211  1.00  0.00    -0.266 OA
ATOM     26  N   UNL     1      27.017  25.735  -8.691  1.00  0.00    -0.242 N 
ATOM     27  H   UNL     1      26.843  24.757  -8.896  1.00  0.00     0.194 HD
BRANCH  26  28
ATOM     28  N   UNL     1      27.891  26.479  -9.418  1.00  0.00    -0.180 NA
ATOM     29  C   UNL     1      28.390  25.948 -10.485  1.00  0.00     0.142 C 
BRANCH  29  30
ATOM     30  C   UNL     1      29.363  26.727 -11.301  1.00  0.00     0.014 A 
ATOM     31  C   UNL     1      29.119  28.093 -11.434  1.00  0.00     0.081 A 
ATOM     32  C   UNL     1      30.494  26.152 -11.921  1.00  0.00     0.055 A 
ATOM     33  C   UNL     1      29.985  28.873 -12.169  1.00  0.00     0.309 A 
ATOM     34  C   UNL     1      30.824  24.777 -11.842  1.00  0.00     0.016 A 
ATOM     35  C   UNL     1      31.359  27.005 -12.673  1.00  0.00     0.212 A 
ATOM     36  N   UNL     1      31.072  28.343 -12.769  1.00  0.00    -0.201 N 
ATOM     37  C   UNL     1      31.954  24.255 -12.473  1.00  0.00     0.001 A 
ATOM     38  C   UNL     1      32.495  26.447 -13.299  1.00  0.00     0.080 A 
ATOM     39  C   UNL     1      32.788  25.088 -13.200  1.00  0.00     0.007 A 
ATOM     40  C   UNL     1      31.944  29.263 -13.537  1.00  0.00     0.440 C 
ENDBRANCH  29  30
ENDBRANCH  26  28
ENDBRANCH   5  24
TORSDOF 6
ENDMDL
MODEL 2
REMARK VINA RESULT:      -8.1      3.598      6.995
REMARK SMILES C[n+]1ccc(/C=N/NC(=O)c2cccc(C(=O)N/N=C/c3cc[n+](C)c4ccccc34)n2)c2ccccc21
REMARK SMILES IDX 11 1 12 2 13 3 14 4 15 5 32 6 9 7 8 8 10 9 7 11 6 12 5 13
REMARK SMILES IDX 2 14 3 15 38 16 4 17 37 18 33 19 36 20 34 21 35 22 1 23
REMARK SMILES IDX 16 24 17 25 18 26 19 28 20 29 21 30 22 31 31 32 23 33 30 34
REMARK SMILES IDX 26 35 24 36 29 37 27 38 28 39 25 40
REMARK H PARENT 8 10 18 27
ROOT
ATOM      1  C   UNL     1      28.384  26.520 -10.486  1.00  0.00     0.130 A 
ATOM      2  C   UNL     1      28.234  27.865 -10.159  1.00  0.00     0.034 A 
ATOM      3  C   UNL     1      29.028  28.801 -10.811  1.00  0.00     0.005 A 
ATOM      4  C   UNL     1      29.945  28.364 -11.759  1.00  0.00     0.034 A 
ATOM      5  C   UNL     1      30.039  26.999 -12.020  1.00  0.00     0.130 A 
ATOM      6  N   UNL     1      29.275  26.045 -11.408  1.00  0.00    -0.237 NA
ENDROOT
BRANCH   1   7
ATOM      7  C   UNL     1      27.501  25.512  -9.811  1.00  0.00     0.289 C 
ATOM      8  N   UNL     1      26.971  25.942  -8.593  1.00  0.00    -0.242 N 
ATOM      9  O   UNL     1      27.318  24.406 -10.314  1.00  0.00    -0.266 OA
ATOM     10  H   UNL     1      27.436  26.754  -8.192  1.00  0.00     0.194 HD
BRANCH   8  11
ATOM     11  N   UNL     1      26.411  25.082  -7.675  1.00  0.00    -0.180 NA
ATOM     12  C   UNL     1      25.200  24.690  -7.920  1.00  0.00     0.142 C 
BRANCH  12  13
ATOM     13  C   UNL     1      24.518  23.620  -7.152  1.00  0.00     0.014 A 
ATOM     14  N   UNL     1      23.017  21.863  -5.629  1.00  0.00    -0.201 N 
ATOM     15  C   UNL     1      22.992  23.187  -5.364  1.00  0.00     0.309 A 
ATOM     16  C   UNL     1      23.792  21.352  -6.638  1.00  0.00     0.212 A 
ATOM     17  C   UNL     1      23.732  24.086  -6.104  1.00  0.00     0.081 A 
ATOM     18  C   UNL     1      23.834  19.965  -6.907  1.00  0.00     0.080 A 
ATOM     19  C   UNL     1      24.579  22.236  -7.434  1.00  0.00     0.055 A 
ATOM     20  C   UNL     1      24.633  19.442  -7.923  1.00  0.00     0.007 A 
ATOM     21  C   UNL     1      25.387  21.666  -8.448  1.00  0.00     0.016 A 
ATOM     22  C   UNL     1      25.411  20.292  -8.690  1.00  0.00     0.001 A 
ATOM     23  C   UNL     1      22.174  20.981  -4.787  1.00  0.00     0.440 C 
ENDBRANCH  12  13
ENDBRANCH   8  11
ENDBRANCH   1   7
BRANCH   5  24
ATOM     24  C   UNL     1      31.048  26.533 -13.023  1.00  0.00     0.289 C 
ATOM     25  O   UNL     1      31.432  27.282 -13.917  1.00  0.00    -0.266 OA
ATOM     26  N   UNL     1      31.497  25.233 -12.834  1.00  0.00    -0.242 N 
ATOM     27  H   UNL     1      31.154  24.700 -12.041  1.00  0.00     0.194 HD
BRANCH  26  28
ATOM     28  N   UNL     1      32.455  24.749 -13.666  1.00  0.00    -0.180 NA
ATOM     29  C   UNL     1      32.897  23.556 -13.445  1.00  0.00     0.142 C 
BRANCH  29  30
ATOM     30  C   UNL     1      33.958  22.996 -14.328  1.00  0.00     0.014 A 
ATOM     31  C   UNL     1      34.365  23.788 -15.400  1.00  0.00     0.081 A 
ATOM     32  C   UNL     1      34.553  21.732 -14.123  1.00  0.00     0.055 A 
ATOM     33  C   UNL     1      35.348  23.332 -16.251  1.00  0.00     0.309 A 
ATOM     34  C   UNL     1      34.206  20.858 -13.063  1.00  0.00     0.016 A 
ATOM     35  C   UNL     1      35.567  21.306 -15.035  1.00  0.00     0.212 A 
ATOM     36  N   UNL     1      35.931  22.128 -16.072  1.00  0.00    -0.201 N 
ATOM     37  C   UNL     1      34.824  19.618 -12.901  1.00  0.00     0.001 A 
ATOM     38  C   UNL     1      36.174  20.045 -14.844  1.00  0.00     0.080 A 
ATOM     39  C   UNL     1      35.806  19.212 -13.789  1.00  0.00     0.007 A 
ATOM     40  C   UNL     1      36.979  21.725 -17.039  1.00  0.00     0.440 C 
ENDBRANCH  29  30
ENDBRANCH  26  28
ENDBRANCH   5  24
TORSDOF 6
ENDMDL
MODEL 3
REMARK VINA RESULT:      -8.1      3.582      5.610
REMARK SMILES C[n+]1ccc(/C=N/NC(=O)c2cccc(C(=O)N/N=C/c3cc[n+](C)c4ccccc34)n2)c2ccccc21
REMARK SMILES IDX 11 1 12 2 13 3 14 4 15 5 32 6 9 7 8 8 10 9 7 11 6 12 5 13
REMARK SMILES IDX 2 14 3 15 38 16 4 17 37 18 33 19 36 20 34 21 35 22 1 23
REMARK SMILES IDX 16 24 17 25 18 26 19 28 20 29 21 30 22 31 31 32 23 33 30 34
REMARK SMILES IDX 26 35 24 36 29 37 27 38 28 39 25 40
REMARK H PARENT 8 10 18 27
ROOT
ATOM      1  C   UNL     1      27.038  24.894  -9.080  1.00  0.00     0.130 A 
ATOM      2  C   UNL     1      26.598  26.042  -8.426  1.00  0.00     0.034 A 
ATOM      3  C   UNL     1      27.085  27.274  -8.845  1.00  0.00     0.005 A 
ATOM      4  C   UNL     1      27.995  27.318  -9.895  1.00  0.00     0.034 A 
ATOM      5  C   UNL     1      28.391  26.122 -10.488  1.00  0.00     0.130 A 
ATOM      6  N   UNL     1      27.935  24.889 -10.112  1.00  0.00    -0.237 NA
ENDROOT
BRANCH   1   7
ATOM      7  C   UNL     1      26.485  23.566  -8.653  1.00  0.00     0.289 C 
ATOM      8  N   UNL     1      26.632  23.297  -7.291  1.00  0.00    -0.242 N 
ATOM      9  O   UNL     1      25.984  22.804  -9.477  1.00  0.00    -0.266 OA
ATOM     10  H   UNL     1      27.305  23.891  -6.811  1.00  0.00     0.194 HD
BRANCH   8  11
ATOM     11  N   UNL     1      26.490  22.035  -6.758  1.00  0.00    -0.180 NA
ATOM     12  C   UNL     1      25.692  21.927  -5.743  1.00  0.00     0.142 C 
BRANCH  12  13
ATOM     13  C   UNL     1      25.270  20.625  -5.171  1.00  0.00     0.014 A 
ATOM     14  N   UNL     1      24.581  18.321  -3.802  1.00  0.00    -0.201 N 
ATOM     15  C   UNL     1      25.523  19.151  -3.306  1.00  0.00     0.309 A 
ATOM     16  C   UNL     1      23.956  18.581  -4.995  1.00  0.00     0.212 A 
ATOM     17  C   UNL     1      25.889  20.304  -3.968  1.00  0.00     0.081 A 
ATOM     18  C   UNL     1      22.983  17.704  -5.525  1.00  0.00     0.080 A 
ATOM     19  C   UNL     1      24.298  19.759  -5.722  1.00  0.00     0.055 A 
ATOM     20  C   UNL     1      22.358  17.959  -6.745  1.00  0.00     0.007 A 
ATOM     21  C   UNL     1      23.651  19.977  -6.964  1.00  0.00     0.016 A 
ATOM     22  C   UNL     1      22.694  19.093  -7.465  1.00  0.00     0.001 A 
ATOM     23  C   UNL     1      24.246  17.115  -3.007  1.00  0.00     0.440 C 
ENDBRANCH  12  13
ENDBRANCH   8  11
ENDBRANCH   1   7
BRANCH   5  24
ATOM     24  C   UNL     1      29.391  26.175 -11.600  1.00  0.00     0.289 C 
ATOM     25  O   UNL     1      29.538  27.200 -12.260  1.00  0.00    -0.266 OA
ATOM     26  N   UNL     1      30.115  25.005 -11.786  1.00  0.00    -0.242 N 
ATOM     27  H   UNL     1      29.955  24.218 -11.165  1.00  0.00     0.194 HD
BRANCH  26  28
ATOM     28  N   UNL     1      31.083  24.985 -12.738  1.00  0.00    -0.180 NA
ATOM     29  C   UNL     1      32.103  24.215 -12.543  1.00  0.00     0.142 C 
BRANCH  29  30
ATOM     30  C   UNL     1      33.192  24.176 -13.559  1.00  0.00     0.014 A 
ATOM     31  C   UNL     1      33.094  23.197 -14.547  1.00  0.00     0.081 A 
ATOM     32  C   UNL     1      34.284  25.070 -13.562  1.00  0.00     0.055 A 
ATOM     33  C   UNL     1      34.065  23.112 -15.521  1.00  0.00     0.309 A 
ATOM     34  C   UNL     1      34.468  26.095 -12.602  1.00  0.00     0.016 A 
ATOM     35  C   UNL     1      35.263  24.938 -14.594  1.00  0.00     0.212 A 
ATOM     36  N   UNL     1      35.117  23.958 -15.542  1.00  0.00    -0.201 N 
ATOM     37  C   UNL     1      35.565  26.956 -12.646  1.00  0.00     0.001 A 
ATOM     38  C   UNL     1      36.362  25.825 -14.612  1.00  0.00     0.080 A 
ATOM     39  C   UNL     1      36.510  26.822 -13.649  1.00  0.00     0.007 A 
ATOM     40  C   UNL     1      36.108  23.788 -16.631  1.00  0.00     0.440 C 
ENDBRANCH  29  30
ENDBRANCH  26  28
ENDBRANCH   5  24
TORSDOF 6
ENDMDL
