MODEL 1
REMARK VINA RESULT:      -7.3      0.000      0.000
REMARK SMILES CS/C(=N\c1ccc(Cl)cc1)N1CC=Cc2ccccc21
REMARK SMILES IDX 3 1 4 2 2 3 1 4 12 5 13 6 21 7 14 8 20 9 16 10 15 11 19 12
REMARK SMILES IDX 17 13 18 14 5 15 6 16 11 17 7 18 10 19 8 20 9 21
REMARK H PARENT
ROOT
ATOM      1  C   UNL     1      23.931  19.200  -8.296  1.00  0.00     0.168 C 
ATOM      2  N   UNL     1      25.020  19.833  -7.951  1.00  0.00    -0.225 NA
ENDROOT
BRANCH   1   3
ATOM      3  S   UNL     1      22.417  19.343  -7.365  1.00  0.00    -0.091 SA
ATOM      4  C   UNL     1      22.628  17.923  -6.273  1.00  0.00     0.094 C 
ENDBRANCH   1   3
BRANCH   1   5
ATOM      5  N   UNL     1      23.882  18.451  -9.463  1.00  0.00    -0.317 N 
ATOM      6  C   UNL     1      22.565  17.978  -9.915  1.00  0.00     0.152 C 
ATOM      7  C   UNL     1      24.866  18.482 -10.496  1.00  0.00     0.050 A 
ATOM      8  C   UNL     1      22.677  16.759 -10.784  1.00  0.00    -0.005 C 
ATOM      9  C   UNL     1      25.890  19.440 -10.545  1.00  0.00     0.027 A 
ATOM     10  C   UNL     1      24.834  17.503 -11.520  1.00  0.00    -0.002 A 
ATOM     11  C   UNL     1      23.756  16.514 -11.537  1.00  0.00     0.008 C 
ATOM     12  C   UNL     1      26.866  19.412 -11.547  1.00  0.00     0.002 A 
ATOM     13  C   UNL     1      25.820  17.470 -12.516  1.00  0.00     0.010 A 
ATOM     14  C   UNL     1      26.835  18.424 -12.526  1.00  0.00     0.001 A 
ENDBRANCH   1   5
BRANCH   2  15
ATOM     15  C   UNL     1      25.087  20.613  -6.791  1.00  0.00     0.066 A 
ATOM     16  C   UNL     1      24.590  21.920  -6.789  1.00  0.00     0.030 A 
ATOM     17  C   UNL     1      25.586  20.066  -5.605  1.00  0.00     0.030 A 
ATOM     18  C   UNL     1      24.625  22.688  -5.622  1.00  0.00     0.023 A 
ATOM     19  C   UNL     1      25.623  20.831  -4.435  1.00  0.00     0.023 A 
ATOM     20  C   UNL     1      25.145  22.140  -4.451  1.00  0.00     0.041 A 
ATOM     21  Cl  UNL     1      25.188  23.082  -3.012  1.00  0.00    -0.084 Cl
ENDBRANCH   2  15
TORSDOF 3
ENDMDL
MODEL 2
REMARK VINA RESULT:      -7.3      0.106      1.060
REMARK SMILES CS/C(=N\c1ccc(Cl)cc1)N1CC=Cc2ccccc21
REMARK SMILES IDX 3 1 4 2 2 3 1 4 12 5 13 6 21 7 14 8 20 9 16 10 15 11 19 12
REMARK SMILES IDX 17 13 18 14 5 15 6 16 11 17 7 18 10 19 8 20 9 21
REMARK H PARENT
ROOT
ATOM      1  C   UNL     1      23.871  19.220  -8.314  1.00  0.00     0.168 C 
ATOM      2  N   UNL     1      24.934  19.897  -7.970  1.00  0.00    -0.225 NA
ENDROOT
BRANCH   1   3
ATOM      3  S   UNL     1      22.350  19.308  -7.388  1.00  0.00    -0.091 SA
ATOM      4  C   UNL     1      22.637  17.933  -6.254  1.00  0.00     0.094 C 
ENDBRANCH   1   3
BRANCH   1   5
ATOM      5  N   UNL     1      23.855  18.463  -9.478  1.00  0.00    -0.317 N 
ATOM      6  C   UNL     1      22.551  17.976  -9.956  1.00  0.00     0.152 C 
ATOM      7  C   UNL     1      24.861  18.497 -10.489  1.00  0.00     0.050 A 
ATOM      8  C   UNL     1      22.694  16.753 -10.815  1.00  0.00    -0.005 C 
ATOM      9  C   UNL     1      25.877  19.465 -10.522  1.00  0.00     0.027 A 
ATOM     10  C   UNL     1      24.860  17.513 -11.508  1.00  0.00    -0.002 A 
ATOM     11  C   UNL     1      23.791  16.514 -11.542  1.00  0.00     0.008 C 
ATOM     12  C   UNL     1      26.875  19.439 -11.502  1.00  0.00     0.002 A 
ATOM     13  C   UNL     1      25.868  17.483 -12.481  1.00  0.00     0.010 A 
ATOM     14  C   UNL     1      26.874  18.445 -12.475  1.00  0.00     0.001 A 
ENDBRANCH   1   5
BRANCH   2  15
ATOM     15  C   UNL     1      24.966  20.685  -6.814  1.00  0.00     0.066 A 
ATOM     16  C   UNL     1      25.540  20.191  -5.639  1.00  0.00     0.030 A 
ATOM     17  C   UNL     1      24.490  21.999  -6.846  1.00  0.00     0.030 A 
ATOM     18  C   UNL     1      25.603  20.989  -4.493  1.00  0.00     0.023 A 
ATOM     19  C   UNL     1      24.551  22.801  -5.703  1.00  0.00     0.023 A 
ATOM     20  C   UNL     1      25.105  22.290  -4.531  1.00  0.00     0.041 A 
ATOM     21  Cl  UNL     1      25.183  23.276  -3.123  1.00  0.00    -0.084 Cl
ENDBRANCH   2  15
TORSDOF 3
ENDMDL
MODEL 3
REMARK VINA RESULT:      -6.8      3.299      6.882
REMARK SMILES CS/C(=N\c1ccc(Cl)cc1)N1CC=Cc2ccccc21
REMARK SMILES IDX 3 1 4 2 2 3 1 4 12 5 13 6 21 7 14 8 20 9 16 10 15 11 19 12
REMARK SMILES IDX 17 13 18 14 5 15 6 16 11 17 7 18 10 19 8 20 9 21
REMARK H PARENT
ROOT
ATOM      1  C   UNL     1      23.972  19.408  -7.569  1.00  0.00     0.168 C 
ATOM      2  N   UNL     1      23.492  18.991  -8.711  1.00  0.00    -0.225 NA
ENDROOT
BRANCH   1   3
ATOM      3  S   UNL     1      25.706  19.747  -7.339  1.00  0.00    -0.091 SA
ATOM      4  C   UNL     1      25.588  21.480  -6.852  1.00  0.00     0.094 C 
ENDBRANCH   1   3
BRANCH   1   5
ATOM      5  N   UNL     1      23.130  19.689  -6.502  1.00  0.00    -0.317 N 
ATOM      6  C   UNL     1      22.053  20.666  -6.724  1.00  0.00     0.152 C 
ATOM      7  C   UNL     1      22.899  18.822  -5.393  1.00  0.00     0.050 A 
ATOM      8  C   UNL     1      21.609  21.308  -5.440  1.00  0.00    -0.005 C 
ATOM      9  C   UNL     1      23.335  17.488  -5.363  1.00  0.00     0.027 A 
ATOM     10  C   UNL     1      22.212  19.313  -4.255  1.00  0.00    -0.002 A 
ATOM     11  C   UNL     1      21.696  20.682  -4.261  1.00  0.00     0.008 C 
ATOM     12  C   UNL     1      23.132  16.681  -4.238  1.00  0.00     0.002 A 
ATOM     13  C   UNL     1      22.021  18.506  -3.125  1.00  0.00     0.010 A 
ATOM     14  C   UNL     1      22.483  17.192  -3.119  1.00  0.00     0.001 A 
ENDBRANCH   1   5
BRANCH   2  15
ATOM     15  C   UNL     1      24.318  18.724  -9.807  1.00  0.00     0.066 A 
ATOM     16  C   UNL     1      25.528  19.406  -9.964  1.00  0.00     0.030 A 
ATOM     17  C   UNL     1      23.974  17.719 -10.717  1.00  0.00     0.030 A 
ATOM     18  C   UNL     1      26.370  19.115 -11.041  1.00  0.00     0.023 A 
ATOM     19  C   UNL     1      24.812  17.425 -11.796  1.00  0.00     0.023 A 
ATOM     20  C   UNL     1      26.006  18.128 -11.953  1.00  0.00     0.041 A 
ATOM     21  Cl  UNL     1      27.041  17.766 -13.279  1.00  0.00    -0.084 Cl
ENDBRANCH   2  15
TORSDOF 3
ENDMDL
