MODEL 1
REMARK VINA RESULT:      -7.6      0.000      0.000
REMARK SMILES CCn1c2ccccc2c2cc(/C=C/c3cc(N4CCN(C)CC4)c4ccccc4[n+]3C)ccc21
REMARK SMILES IDX 13 1 14 2 12 3 3 4 4 5 35 6 5 7 9 8 34 9 10 10 6 11 8 12
REMARK SMILES IDX 33 13 11 14 7 15 2 16 1 17 15 18 16 19 31 20 17 21 30 22
REMARK SMILES IDX 25 23 29 24 26 25 28 26 27 27 32 28 18 29 19 30 24 31 20 32
REMARK SMILES IDX 23 33 21 34 22 35
REMARK H PARENT
ROOT
ATOM      1  C   UNL     1      30.102  12.344 -23.131  1.00  0.00     0.015 C 
ATOM      2  C   UNL     1      30.316  11.346 -22.259  1.00  0.00     0.080 C 
ENDROOT
BRANCH   1   3
ATOM      3  C   UNL     1      28.942  12.414 -24.032  1.00  0.00    -0.025 A 
ATOM      4  N   UNL     1      25.403  12.496 -26.211  1.00  0.00    -0.341 N 
ATOM      5  C   UNL     1      24.533  11.784 -25.405  1.00  0.00     0.049 A 
ATOM      6  C   UNL     1      26.659  12.569 -25.636  1.00  0.00     0.049 A 
ATOM      7  C   UNL     1      23.176  11.454 -25.570  1.00  0.00     0.027 A 
ATOM      8  C   UNL     1      25.253  11.394 -24.276  1.00  0.00     0.007 A 
ATOM      9  C   UNL     1      27.845  13.181 -26.073  1.00  0.00     0.027 A 
ATOM     10  C   UNL     1      26.587  11.891 -24.420  1.00  0.00     0.008 A 
ATOM     11  C   UNL     1      22.550  10.709 -24.566  1.00  0.00     0.002 A 
ATOM     12  C   UNL     1      24.595  10.645 -23.274  1.00  0.00     0.011 A 
ATOM     13  C   UNL     1      28.977  13.095 -25.252  1.00  0.00     0.010 A 
ATOM     14  C   UNL     1      27.742  11.822 -23.610  1.00  0.00     0.019 A 
ATOM     15  C   UNL     1      23.247  10.309 -23.432  1.00  0.00     0.001 A 
BRANCH   4  16
ATOM     16  C   UNL     1      25.040  13.098 -27.488  1.00  0.00     0.119 C 
ATOM     17  C   UNL     1      24.563  14.532 -27.331  1.00  0.00     0.027 C 
ENDBRANCH   4  16
ENDBRANCH   1   3
BRANCH   2  18
ATOM     18  C   UNL     1      31.467  11.344 -21.343  1.00  0.00     0.207 A 
ATOM     19  C   UNL     1      32.026  12.572 -20.990  1.00  0.00     0.106 A 
ATOM     20  N   UNL     1      31.966  10.184 -20.833  1.00  0.00    -0.194 N 
ATOM     21  C   UNL     1      33.110  12.648 -20.126  1.00  0.00     0.057 A 
ATOM     22  C   UNL     1      33.030  10.201 -19.962  1.00  0.00     0.214 A 
ATOM     23  C   UNL     1      33.623  11.443 -19.602  1.00  0.00     0.070 A 
ATOM     24  C   UNL     1      33.561   9.016 -19.398  1.00  0.00     0.080 A 
ATOM     25  C   UNL     1      34.709  11.437 -18.699  1.00  0.00     0.017 A 
ATOM     26  C   UNL     1      34.644   9.043 -18.514  1.00  0.00     0.007 A 
ATOM     27  C   UNL     1      35.216  10.255 -18.165  1.00  0.00     0.001 A 
ATOM     28  C   UNL     1      31.386   8.880 -21.236  1.00  0.00     0.441 C 
BRANCH  21  29
ATOM     29  N   UNL     1      33.691  13.878 -19.803  1.00  0.00    -0.368 N 
ATOM     30  C   UNL     1      34.604  14.428 -20.842  1.00  0.00     0.132 C 
ATOM     31  C   UNL     1      32.858  14.887 -19.115  1.00  0.00     0.132 C 
ATOM     32  C   UNL     1      34.354  15.930 -21.118  1.00  0.00     0.105 C 
ATOM     33  C   UNL     1      33.730  16.109 -18.755  1.00  0.00     0.105 C 
ATOM     34  N   UNL     1      34.283  16.808 -19.935  1.00  0.00    -0.303 NA
ATOM     35  C   UNL     1      35.579  17.407 -19.619  1.00  0.00     0.105 C 
ENDBRANCH  21  29
ENDBRANCH   2  18
TORSDOF 4
ENDMDL
MODEL 2
REMARK VINA RESULT:      -7.3      3.349      7.505
REMARK SMILES CCn1c2ccccc2c2cc(/C=C/c3cc(N4CCN(C)CC4)c4ccccc4[n+]3C)ccc21
REMARK SMILES IDX 13 1 14 2 12 3 3 4 4 5 35 6 5 7 9 8 34 9 10 10 6 11 8 12
REMARK SMILES IDX 33 13 11 14 7 15 2 16 1 17 15 18 16 19 31 20 17 21 30 22
REMARK SMILES IDX 25 23 29 24 26 25 28 26 27 27 32 28 18 29 19 30 24 31 20 32
REMARK SMILES IDX 23 33 21 34 22 35
REMARK H PARENT
ROOT
ATOM      1  C   UNL     1      24.760  11.076 -24.618  1.00  0.00     0.015 C 
ATOM      2  C   UNL     1      25.262  12.264 -24.245  1.00  0.00     0.080 C 
ENDROOT
BRANCH   1   3
ATOM      3  C   UNL     1      23.424  10.591 -24.240  1.00  0.00    -0.025 A 
ATOM      4  N   UNL     1      19.539   9.665 -23.086  1.00  0.00    -0.341 N 
ATOM      5  C   UNL     1      19.145  10.803 -22.404  1.00  0.00     0.049 A 
ATOM      6  C   UNL     1      20.836   9.794 -23.548  1.00  0.00     0.049 A 
ATOM      7  C   UNL     1      17.935  11.130 -21.767  1.00  0.00     0.027 A 
ATOM      8  C   UNL     1      20.223  11.689 -22.436  1.00  0.00     0.007 A 
ATOM      9  C   UNL     1      21.650   8.916 -24.283  1.00  0.00     0.027 A 
ATOM     10  C   UNL     1      21.282  11.055 -23.158  1.00  0.00     0.008 A 
ATOM     11  C   UNL     1      17.829  12.380 -21.150  1.00  0.00     0.002 A 
ATOM     12  C   UNL     1      20.088  12.947 -21.807  1.00  0.00     0.011 A 
ATOM     13  C   UNL     1      22.942   9.337 -24.624  1.00  0.00     0.010 A 
ATOM     14  C   UNL     1      22.588  11.456 -23.517  1.00  0.00     0.019 A 
ATOM     15  C   UNL     1      18.889  13.279 -21.169  1.00  0.00     0.001 A 
BRANCH   4  16
ATOM     16  C   UNL     1      18.696   8.496 -23.299  1.00  0.00     0.119 C 
ATOM     17  C   UNL     1      18.871   7.456 -22.204  1.00  0.00     0.027 C 
ENDBRANCH   4  16
ENDBRANCH   1   3
BRANCH   2  18
ATOM     18  C   UNL     1      26.586  12.726 -24.688  1.00  0.00     0.207 A 
ATOM     19  C   UNL     1      27.708  12.036 -24.229  1.00  0.00     0.106 A 
ATOM     20  N   UNL     1      26.721  13.781 -25.537  1.00  0.00    -0.194 N 
ATOM     21  C   UNL     1      28.989  12.410 -24.610  1.00  0.00     0.057 A 
ATOM     22  C   UNL     1      27.966  14.187 -25.958  1.00  0.00     0.214 A 
ATOM     23  C   UNL     1      29.123  13.505 -25.489  1.00  0.00     0.070 A 
ATOM     24  C   UNL     1      28.142  15.269 -26.855  1.00  0.00     0.080 A 
ATOM     25  C   UNL     1      30.391  13.935 -25.942  1.00  0.00     0.017 A 
ATOM     26  C   UNL     1      29.411  15.675 -27.277  1.00  0.00     0.007 A 
ATOM     27  C   UNL     1      30.535  15.006 -26.819  1.00  0.00     0.001 A 
ATOM     28  C   UNL     1      25.526  14.529 -25.997  1.00  0.00     0.441 C 
BRANCH  21  29
ATOM     29  N   UNL     1      30.114  11.739 -24.120  1.00  0.00    -0.368 N 
ATOM     30  C   UNL     1      30.496  12.099 -22.727  1.00  0.00     0.132 C 
ATOM     31  C   UNL     1      30.278  10.309 -24.456  1.00  0.00     0.132 C 
ATOM     32  C   UNL     1      30.811  10.858 -21.857  1.00  0.00     0.105 C 
ATOM     33  C   UNL     1      31.634   9.810 -23.915  1.00  0.00     0.105 C 
ATOM     34  N   UNL     1      31.740   9.872 -22.441  1.00  0.00    -0.303 NA
ATOM     35  C   UNL     1      33.124  10.115 -22.033  1.00  0.00     0.105 C 
ENDBRANCH  21  29
ENDBRANCH   2  18
TORSDOF 4
ENDMDL
MODEL 3
REMARK VINA RESULT:      -7.3      1.024      2.620
REMARK SMILES CCn1c2ccccc2c2cc(/C=C/c3cc(N4CCN(C)CC4)c4ccccc4[n+]3C)ccc21
REMARK SMILES IDX 13 1 14 2 12 3 3 4 4 5 35 6 5 7 9 8 34 9 10 10 6 11 8 12
REMARK SMILES IDX 33 13 11 14 7 15 2 16 1 17 15 18 16 19 31 20 17 21 30 22
REMARK SMILES IDX 25 23 29 24 26 25 28 26 27 27 32 28 18 29 19 30 24 31 20 32
REMARK SMILES IDX 23 33 21 34 22 35
REMARK H PARENT
ROOT
ATOM      1  C   UNL     1      28.923  11.991 -22.261  1.00  0.00     0.015 C 
ATOM      2  C   UNL     1      30.078  11.473 -22.708  1.00  0.00     0.080 C 
ENDROOT
BRANCH   1   3
ATOM      3  C   UNL     1      27.708  12.124 -23.079  1.00  0.00    -0.025 A 
ATOM      4  N   UNL     1      24.534  12.748 -25.689  1.00  0.00    -0.341 N 
ATOM      5  C   UNL     1      24.978  13.807 -26.459  1.00  0.00     0.049 A 
ATOM      6  C   UNL     1      25.479  12.398 -24.742  1.00  0.00     0.049 A 
ATOM      7  C   UNL     1      24.373  14.496 -27.526  1.00  0.00     0.027 A 
ATOM      8  C   UNL     1      26.249  14.143 -25.995  1.00  0.00     0.007 A 
ATOM      9  C   UNL     1      25.479  11.399 -23.755  1.00  0.00     0.027 A 
ATOM     10  C   UNL     1      26.565  13.255 -24.919  1.00  0.00     0.008 A 
ATOM     11  C   UNL     1      25.079  15.546 -28.122  1.00  0.00     0.002 A 
ATOM     12  C   UNL     1      26.943  15.206 -26.616  1.00  0.00     0.011 A 
ATOM     13  C   UNL     1      26.607  11.275 -22.935  1.00  0.00     0.010 A 
ATOM     14  C   UNL     1      27.692  13.107 -24.080  1.00  0.00     0.019 A 
ATOM     15  C   UNL     1      26.348  15.897 -27.675  1.00  0.00     0.001 A 
BRANCH   4  16
ATOM     16  C   UNL     1      23.248  12.082 -25.861  1.00  0.00     0.119 C 
ATOM     17  C   UNL     1      23.334  10.912 -26.827  1.00  0.00     0.027 C 
ENDBRANCH   4  16
ENDBRANCH   1   3
BRANCH   2  18
ATOM     18  C   UNL     1      31.252  11.316 -21.837  1.00  0.00     0.207 A 
ATOM     19  C   UNL     1      31.877  12.471 -21.366  1.00  0.00     0.106 A 
ATOM     20  N   UNL     1      31.711  10.086 -21.479  1.00  0.00    -0.194 N 
ATOM     21  C   UNL     1      32.987  12.401 -20.535  1.00  0.00     0.057 A 
ATOM     22  C   UNL     1      32.798   9.957 -20.646  1.00  0.00     0.214 A 
ATOM     23  C   UNL     1      33.458  11.123 -20.168  1.00  0.00     0.070 A 
ATOM     24  C   UNL     1      33.290   8.693 -20.238  1.00  0.00     0.080 A 
ATOM     25  C   UNL     1      34.568  10.967 -19.308  1.00  0.00     0.017 A 
ATOM     26  C   UNL     1      34.396   8.573 -19.393  1.00  0.00     0.007 A 
ATOM     27  C   UNL     1      35.034   9.711 -18.928  1.00  0.00     0.001 A 
ATOM     28  C   UNL     1      31.060   8.862 -22.007  1.00  0.00     0.441 C 
BRANCH  21  29
ATOM     29  N   UNL     1      33.633  13.560 -20.094  1.00  0.00    -0.368 N 
ATOM     30  C   UNL     1      34.549  14.180 -21.091  1.00  0.00     0.132 C 
ATOM     31  C   UNL     1      32.864  14.523 -19.278  1.00  0.00     0.132 C 
ATOM     32  C   UNL     1      34.365  15.714 -21.193  1.00  0.00     0.105 C 
ATOM     33  C   UNL     1      33.801  15.657 -18.808  1.00  0.00     0.105 C 
ATOM     34  N   UNL     1      34.362  16.457 -19.919  1.00  0.00    -0.303 NA
ATOM     35  C   UNL     1      35.692  16.958 -19.573  1.00  0.00     0.105 C 
ENDBRANCH  21  29
ENDBRANCH   2  18
TORSDOF 4
ENDMDL
