MODEL 1
REMARK VINA RESULT:      -8.0      0.000      0.000
REMARK SMILES COc1ccc2c(c[n+](C)c3c4cc5c(cc4ccc23)OCO5)c1OC
REMARK SMILES IDX 3 1 4 2 5 3 6 4 7 5 8 6 9 7 10 8 11 9 12 10 13 11 14 12
REMARK SMILES IDX 15 13 16 14 17 15 18 16 19 17 20 18 21 19 22 20 23 21 24 22
REMARK SMILES IDX 2 23 1 24 25 25 26 26
REMARK H PARENT
ROOT
ATOM      1  C   UNL     1      25.651  17.886 -12.122  1.00  0.00     0.161 A 
ATOM      2  C   UNL     1      26.593  18.725 -11.538  1.00  0.00     0.051 A 
ATOM      3  C   UNL     1      26.327  19.354 -10.315  1.00  0.00     0.014 A 
ATOM      4  C   UNL     1      25.112  19.169  -9.608  1.00  0.00     0.006 A 
ATOM      5  C   UNL     1      24.170  18.324 -10.209  1.00  0.00     0.092 A 
ATOM      6  C   UNL     1      22.997  18.071  -9.515  1.00  0.00     0.321 A 
ATOM      7  N   UNL     1      22.711  18.614  -8.311  1.00  0.00    -0.200 N 
ATOM      8  C   UNL     1      21.599  17.954  -7.587  1.00  0.00     0.440 C 
ATOM      9  C   UNL     1      23.501  19.589  -7.750  1.00  0.00     0.220 A 
ATOM     10  C   UNL     1      23.111  20.387  -6.600  1.00  0.00     0.058 A 
ATOM     11  C   UNL     1      21.795  20.513  -6.064  1.00  0.00     0.066 A 
ATOM     12  C   UNL     1      21.561  21.269  -4.931  1.00  0.00     0.166 A 
ATOM     13  C   UNL     1      22.561  21.952  -4.303  1.00  0.00     0.166 A 
ATOM     14  C   UNL     1      23.840  21.935  -4.798  1.00  0.00     0.059 A 
ATOM     15  C   UNL     1      24.110  21.184  -5.956  1.00  0.00    -0.008 A 
ATOM     16  C   UNL     1      25.389  21.260  -6.489  1.00  0.00     0.010 A 
ATOM     17  C   UNL     1      25.705  20.617  -7.681  1.00  0.00     0.016 A 
ATOM     18  C   UNL     1      24.786  19.792  -8.358  1.00  0.00     0.055 A 
ATOM     19  O   UNL     1      22.125  22.637  -3.218  1.00  0.00    -0.454 OA
ATOM     20  C   UNL     1      20.718  22.312  -3.234  1.00  0.00     0.468 C 
ATOM     21  O   UNL     1      20.356  21.439  -4.329  1.00  0.00    -0.454 OA
ATOM     22  C   UNL     1      24.420  17.713 -11.469  1.00  0.00     0.174 A 
ENDROOT
BRANCH   1  23
ATOM     23  O   UNL     1      25.860  17.195 -13.282  1.00  0.00    -0.493 OA
ATOM     24  C   UNL     1      26.527  15.939 -13.209  1.00  0.00     0.278 C 
ENDBRANCH   1  23
BRANCH  22  25
ATOM     25  O   UNL     1      23.403  16.903 -11.932  1.00  0.00    -0.492 OA
ATOM     26  C   UNL     1      22.551  17.476 -12.926  1.00  0.00     0.278 C 
ENDBRANCH  22  25
TORSDOF 2
ENDMDL
MODEL 2
REMARK VINA RESULT:      -7.3      1.344      7.559
REMARK SMILES COc1ccc2c(c[n+](C)c3c4cc5c(cc4ccc23)OCO5)c1OC
REMARK SMILES IDX 3 1 4 2 5 3 6 4 7 5 8 6 9 7 10 8 11 9 12 10 13 11 14 12
REMARK SMILES IDX 15 13 16 14 17 15 18 16 19 17 20 18 21 19 22 20 23 21 24 22
REMARK SMILES IDX 2 23 1 24 25 25 26 26
REMARK H PARENT
ROOT
ATOM      1  C   UNL     1      22.346  20.626  -4.314  1.00  0.00     0.161 A 
ATOM      2  C   UNL     1      23.345  21.534  -4.645  1.00  0.00     0.051 A 
ATOM      3  C   UNL     1      24.032  21.428  -5.861  1.00  0.00     0.014 A 
ATOM      4  C   UNL     1      23.749  20.416  -6.813  1.00  0.00     0.006 A 
ATOM      5  C   UNL     1      22.742  19.506  -6.466  1.00  0.00     0.092 A 
ATOM      6  C   UNL     1      22.395  18.542  -7.400  1.00  0.00     0.321 A 
ATOM      7  N   UNL     1      22.992  18.425  -8.608  1.00  0.00    -0.200 N 
ATOM      8  C   UNL     1      22.254  17.585  -9.580  1.00  0.00     0.440 C 
ATOM      9  C   UNL     1      24.105  19.161  -8.940  1.00  0.00     0.220 A 
ATOM     10  C   UNL     1      24.936  18.895 -10.102  1.00  0.00     0.058 A 
ATOM     11  C   UNL     1      24.932  17.708 -10.892  1.00  0.00     0.066 A 
ATOM     12  C   UNL     1      25.742  17.596 -12.006  1.00  0.00     0.166 A 
ATOM     13  C   UNL     1      26.598  18.590 -12.376  1.00  0.00     0.166 A 
ATOM     14  C   UNL     1      26.708  19.735 -11.629  1.00  0.00     0.059 A 
ATOM     15  C   UNL     1      25.906  19.876 -10.482  1.00  0.00    -0.008 A 
ATOM     16  C   UNL     1      26.104  21.000  -9.691  1.00  0.00     0.010 A 
ATOM     17  C   UNL     1      25.413  21.163  -8.496  1.00  0.00     0.016 A 
ATOM     18  C   UNL     1      24.423  20.258  -8.069  1.00  0.00     0.055 A 
ATOM     19  O   UNL     1      27.306  18.284 -13.490  1.00  0.00    -0.454 OA
ATOM     20  C   UNL     1      26.800  16.963 -13.783  1.00  0.00     0.468 C 
ATOM     21  O   UNL     1      25.801  16.521 -12.835  1.00  0.00    -0.454 OA
ATOM     22  C   UNL     1      22.068  19.587  -5.216  1.00  0.00     0.174 A 
ENDROOT
BRANCH   1  23
ATOM     23  O   UNL     1      21.596  20.700  -3.174  1.00  0.00    -0.493 OA
ATOM     24  C   UNL     1      20.478  21.581  -3.157  1.00  0.00     0.278 C 
ENDBRANCH   1  23
BRANCH  22  25
ATOM     25  O   UNL     1      21.097  18.626  -5.018  1.00  0.00    -0.492 OA
ATOM     26  C   UNL     1      21.415  17.602  -4.072  1.00  0.00     0.278 C 
ENDBRANCH  22  25
TORSDOF 2
ENDMDL
MODEL 3
REMARK VINA RESULT:      -7.2      1.427      2.955
REMARK SMILES COc1ccc2c(c[n+](C)c3c4cc5c(cc4ccc23)OCO5)c1OC
REMARK SMILES IDX 3 1 4 2 5 3 6 4 7 5 8 6 9 7 10 8 11 9 12 10 13 11 14 12
REMARK SMILES IDX 15 13 16 14 17 15 18 16 19 17 20 18 21 19 22 20 23 21 24 22
REMARK SMILES IDX 2 23 1 24 25 25 26 26
REMARK H PARENT
ROOT
ATOM      1  C   UNL     1      25.756  17.303 -12.449  1.00  0.00     0.161 A 
ATOM      2  C   UNL     1      24.515  16.759 -12.139  1.00  0.00     0.051 A 
ATOM      3  C   UNL     1      23.798  17.207 -11.023  1.00  0.00     0.014 A 
ATOM      4  C   UNL     1      24.277  18.229 -10.166  1.00  0.00     0.006 A 
ATOM      5  C   UNL     1      25.530  18.768 -10.487  1.00  0.00     0.092 A 
ATOM      6  C   UNL     1      26.001  19.813  -9.708  1.00  0.00     0.321 A 
ATOM      7  N   UNL     1      25.328  20.316  -8.649  1.00  0.00    -0.200 N 
ATOM      8  C   UNL     1      25.816  21.633  -8.179  1.00  0.00     0.440 C 
ATOM      9  C   UNL     1      24.187  19.720  -8.167  1.00  0.00     0.220 A 
ATOM     10  C   UNL     1      23.574  20.054  -6.892  1.00  0.00     0.058 A 
ATOM     11  C   UNL     1      24.174  20.794  -5.832  1.00  0.00     0.066 A 
ATOM     12  C   UNL     1      23.466  21.086  -4.682  1.00  0.00     0.166 A 
ATOM     13  C   UNL     1      22.186  20.654  -4.496  1.00  0.00     0.166 A 
ATOM     14  C   UNL     1      21.563  19.879  -5.442  1.00  0.00     0.059 A 
ATOM     15  C   UNL     1      22.261  19.554  -6.619  1.00  0.00    -0.008 A 
ATOM     16  C   UNL     1      21.644  18.692  -7.515  1.00  0.00     0.010 A 
ATOM     17  C   UNL     1      22.308  18.254  -8.656  1.00  0.00     0.016 A 
ATOM     18  C   UNL     1      23.588  18.722  -9.009  1.00  0.00     0.055 A 
ATOM     19  O   UNL     1      21.671  21.040  -3.304  1.00  0.00    -0.454 OA
ATOM     20  C   UNL     1      22.786  21.769  -2.745  1.00  0.00     0.468 C 
ATOM     21  O   UNL     1      23.934  21.799  -3.624  1.00  0.00    -0.454 OA
ATOM     22  C   UNL     1      26.280  18.290 -11.598  1.00  0.00     0.174 A 
ENDROOT
BRANCH   1  23
ATOM     23  O   UNL     1      26.487  16.958 -13.551  1.00  0.00    -0.493 OA
ATOM     24  C   UNL     1      26.867  15.595 -13.710  1.00  0.00     0.278 C 
ENDBRANCH   1  23
BRANCH  22  25
ATOM     25  O   UNL     1      27.492  18.919 -11.793  1.00  0.00    -0.492 OA
ATOM     26  C   UNL     1      27.529  19.899 -12.833  1.00  0.00     0.278 C 
ENDBRANCH  22  25
TORSDOF 2
ENDMDL
