MODEL 1
REMARK VINA RESULT:      -7.6      0.000      0.000
REMARK SMILES CCN1CCN(c2ccc3cc(-c4cn5cc(C)nc(C)c5n4)c(=O)oc3c2)C[C@@H]1C
REMARK SMILES IDX 7 1 8 2 9 3 10 4 11 5 12 6 24 7 25 8 26 9 27 10 28 11 6 12
REMARK SMILES IDX 3 13 4 14 30 15 5 16 29 17 31 18 2 19 1 20 13 21 14 22 23 23
REMARK SMILES IDX 15 24 22 25 16 26 20 27 17 28 19 29 21 30 18 31
REMARK H PARENT
ROOT
ATOM      1  C   UNL     1      19.259  11.671 -21.991  1.00  0.00     0.040 A 
ATOM      2  C   UNL     1      19.279  13.076 -22.134  1.00  0.00     0.027 A 
ATOM      3  C   UNL     1      20.315  13.763 -22.791  1.00  0.00     0.014 A 
ATOM      4  C   UNL     1      21.392  13.061 -23.311  1.00  0.00     0.018 A 
ATOM      5  C   UNL     1      22.483  13.707 -24.018  1.00  0.00     0.030 C 
ATOM      6  C   UNL     1      23.539  12.997 -24.456  1.00  0.00     0.088 C 
ATOM      7  C   UNL     1      23.630  11.533 -24.176  1.00  0.00     0.345 C 
ATOM      8  O   UNL     1      24.644  10.875 -24.384  1.00  0.00    -0.246 OA
ATOM      9  O   UNL     1      22.501  10.930 -23.618  1.00  0.00    -0.422 OA
ATOM     10  C   UNL     1      21.408  11.686 -23.158  1.00  0.00     0.140 A 
ATOM     11  C   UNL     1      20.372  10.996 -22.518  1.00  0.00     0.073 A 
ENDROOT
BRANCH   1  12
ATOM     12  N   UNL     1      18.227  11.016 -21.324  1.00  0.00    -0.369 N 
ATOM     13  N   UNL     1      15.896   9.479 -20.405  1.00  0.00    -0.297 NA
ATOM     14  C   UNL     1      17.263   9.118 -19.978  1.00  0.00     0.106 C 
ATOM     15  C   UNL     1      15.814  10.947 -20.653  1.00  0.00     0.073 C 
ATOM     16  C   UNL     1      18.399   9.608 -20.906  1.00  0.00     0.132 C 
ATOM     17  C   UNL     1      17.162  11.739 -20.602  1.00  0.00     0.135 C 
ATOM     18  C   UNL     1      14.843  11.535 -19.623  1.00  0.00     0.026 C 
BRANCH  13  19
ATOM     19  C   UNL     1      15.501   8.705 -21.594  1.00  0.00     0.081 C 
ATOM     20  C   UNL     1      14.381   7.716 -21.286  1.00  0.00     0.021 C 
ENDBRANCH  13  19
ENDBRANCH   1  12
BRANCH   6  21
ATOM     21  C   UNL     1      24.601  13.602 -25.186  1.00  0.00     0.097 A 
ATOM     22  C   UNL     1      25.938  13.644 -24.843  1.00  0.00     0.122 A 
ATOM     23  N   UNL     1      24.353  14.294 -26.345  1.00  0.00    -0.226 NA
ATOM     24  N   UNL     1      26.532  14.343 -25.858  1.00  0.00    -0.303 N 
ATOM     25  C   UNL     1      25.541  14.701 -26.734  1.00  0.00     0.158 A 
ATOM     26  C   UNL     1      27.843  14.704 -26.097  1.00  0.00     0.116 C 
ATOM     27  C   UNL     1      25.909  15.445 -27.913  1.00  0.00     0.081 C 
ATOM     28  C   UNL     1      28.124  15.408 -27.212  1.00  0.00     0.054 C 
ATOM     29  N   UNL     1      27.153  15.787 -28.137  1.00  0.00    -0.253 NA
ATOM     30  C   UNL     1      24.834  15.829 -28.891  1.00  0.00     0.071 C 
ATOM     31  C   UNL     1      29.524  15.838 -27.539  1.00  0.00     0.068 C 
ENDBRANCH   6  21
TORSDOF 3
ENDMDL
MODEL 2
REMARK VINA RESULT:      -7.5      1.613     10.857
REMARK SMILES CCN1CCN(c2ccc3cc(-c4cn5cc(C)nc(C)c5n4)c(=O)oc3c2)C[C@@H]1C
REMARK SMILES IDX 7 1 8 2 9 3 10 4 11 5 12 6 24 7 25 8 26 9 27 10 28 11 6 12
REMARK SMILES IDX 3 13 4 14 30 15 5 16 29 17 31 18 2 19 1 20 13 21 14 22 23 23
REMARK SMILES IDX 15 24 22 25 16 26 20 27 17 28 19 29 21 30 18 31
REMARK H PARENT
ROOT
ATOM      1  C   UNL     1      25.042  12.461 -25.027  1.00  0.00     0.040 A 
ATOM      2  C   UNL     1      24.878  11.094 -24.715  1.00  0.00     0.027 A 
ATOM      3  C   UNL     1      23.731  10.585 -24.080  1.00  0.00     0.014 A 
ATOM      4  C   UNL     1      22.706  11.443 -23.710  1.00  0.00     0.018 A 
ATOM      5  C   UNL     1      21.488  10.982 -23.071  1.00  0.00     0.030 C 
ATOM      6  C   UNL     1      20.543  11.854 -22.674  1.00  0.00     0.088 C 
ATOM      7  C   UNL     1      20.756  13.322 -22.839  1.00  0.00     0.345 C 
ATOM      8  O   UNL     1      20.023  14.164 -22.333  1.00  0.00    -0.246 OA
ATOM      9  O   UNL     1      21.874  13.714 -23.578  1.00  0.00    -0.422 OA
ATOM     10  C   UNL     1      22.856  12.792 -23.981  1.00  0.00     0.140 A 
ATOM     11  C   UNL     1      23.990  13.300 -24.626  1.00  0.00     0.073 A 
ENDROOT
BRANCH   1  12
ATOM     12  N   UNL     1      26.194  12.940 -25.644  1.00  0.00    -0.369 N 
ATOM     13  N   UNL     1      28.352  14.407 -26.999  1.00  0.00    -0.297 NA
ATOM     14  C   UNL     1      28.532  13.878 -25.631  1.00  0.00     0.106 C 
ATOM     15  C   UNL     1      27.402  13.542 -27.755  1.00  0.00     0.073 C 
ATOM     16  C   UNL     1      27.227  13.628 -24.840  1.00  0.00     0.132 C 
ATOM     17  C   UNL     1      26.678  12.422 -26.939  1.00  0.00     0.135 C 
ATOM     18  C   UNL     1      28.182  12.902 -28.910  1.00  0.00     0.026 C 
BRANCH  13  19
ATOM     19  C   UNL     1      27.897  15.807 -26.959  1.00  0.00     0.081 C 
ATOM     20  C   UNL     1      26.637  16.022 -27.793  1.00  0.00     0.021 C 
ENDBRANCH  13  19
ENDBRANCH   1  12
BRANCH   6  21
ATOM     21  C   UNL     1      19.322  11.421 -22.081  1.00  0.00     0.097 A 
ATOM     22  C   UNL     1      18.067  11.970 -22.250  1.00  0.00     0.122 A 
ATOM     23  N   UNL     1      19.306  10.383 -21.183  1.00  0.00    -0.226 NA
ATOM     24  N   UNL     1      17.249  11.204 -21.465  1.00  0.00    -0.303 N 
ATOM     25  C   UNL     1      18.038  10.264 -20.856  1.00  0.00     0.158 A 
ATOM     26  C   UNL     1      15.890  11.243 -21.221  1.00  0.00     0.116 C 
ATOM     27  C   UNL     1      17.408   9.313 -19.974  1.00  0.00     0.081 C 
ATOM     28  C   UNL     1      15.361  10.332 -20.380  1.00  0.00     0.054 C 
ATOM     29  N   UNL     1      16.120   9.352 -19.744  1.00  0.00    -0.253 NA
ATOM     30  C   UNL     1      18.262   8.266 -19.313  1.00  0.00     0.071 C 
ATOM     31  C   UNL     1      13.893  10.311 -20.063  1.00  0.00     0.068 C 
ENDBRANCH   6  21
TORSDOF 3
ENDMDL
MODEL 3
REMARK VINA RESULT:      -7.5      2.144     10.614
REMARK SMILES CCN1CCN(c2ccc3cc(-c4cn5cc(C)nc(C)c5n4)c(=O)oc3c2)C[C@@H]1C
REMARK SMILES IDX 7 1 8 2 9 3 10 4 11 5 12 6 24 7 25 8 26 9 27 10 28 11 6 12
REMARK SMILES IDX 3 13 4 14 30 15 5 16 29 17 31 18 2 19 1 20 13 21 14 22 23 23
REMARK SMILES IDX 15 24 22 25 16 26 20 27 17 28 19 29 21 30 18 31
REMARK H PARENT
ROOT
ATOM      1  C   UNL     1      25.664  12.096 -24.692  1.00  0.00     0.040 A 
ATOM      2  C   UNL     1      25.305  10.820 -24.204  1.00  0.00     0.027 A 
ATOM      3  C   UNL     1      24.029  10.527 -23.691  1.00  0.00     0.014 A 
ATOM      4  C   UNL     1      23.064  11.522 -23.626  1.00  0.00     0.018 A 
ATOM      5  C   UNL     1      21.722  11.283 -23.127  1.00  0.00     0.030 C 
ATOM      6  C   UNL     1      20.833  12.288 -23.024  1.00  0.00     0.088 C 
ATOM      7  C   UNL     1      21.231  13.683 -23.376  1.00  0.00     0.345 C 
ATOM      8  O   UNL     1      20.532  14.659 -23.128  1.00  0.00    -0.246 OA
ATOM      9  O   UNL     1      22.480  13.846 -23.977  1.00  0.00    -0.422 OA
ATOM     10  C   UNL     1      23.401  12.787 -24.072  1.00  0.00     0.140 A 
ATOM     11  C   UNL     1      24.666  13.079 -24.597  1.00  0.00     0.073 A 
ENDROOT
BRANCH   1  12
ATOM     12  N   UNL     1      26.939  12.361 -25.182  1.00  0.00    -0.369 N 
ATOM     13  N   UNL     1      29.407  13.359 -26.430  1.00  0.00    -0.297 NA
ATOM     14  C   UNL     1      29.307  13.192 -24.965  1.00  0.00     0.106 C 
ATOM     15  C   UNL     1      28.535  12.362 -27.113  1.00  0.00     0.073 C 
ATOM     16  C   UNL     1      27.870  13.197 -24.394  1.00  0.00     0.132 C 
ATOM     17  C   UNL     1      27.594  11.514 -26.197  1.00  0.00     0.135 C 
ATOM     18  C   UNL     1      29.447  11.422 -27.910  1.00  0.00     0.026 C 
BRANCH  13  19
ATOM     19  C   UNL     1      29.065  14.738 -26.820  1.00  0.00     0.081 C 
ATOM     20  C   UNL     1      27.917  14.779 -27.825  1.00  0.00     0.021 C 
ENDBRANCH  13  19
ENDBRANCH   1  12
BRANCH   6  21
ATOM     21  C   UNL     1      19.500  12.069 -22.575  1.00  0.00     0.097 A 
ATOM     22  C   UNL     1      19.090  11.303 -21.502  1.00  0.00     0.122 A 
ATOM     23  N   UNL     1      18.433  12.595 -23.260  1.00  0.00    -0.226 NA
ATOM     24  N   UNL     1      17.726  11.409 -21.505  1.00  0.00    -0.303 N 
ATOM     25  C   UNL     1      17.385  12.199 -22.570  1.00  0.00     0.158 A 
ATOM     26  C   UNL     1      16.750  10.886 -20.679  1.00  0.00     0.116 C 
ATOM     27  C   UNL     1      15.988  12.481 -22.792  1.00  0.00     0.081 C 
ATOM     28  C   UNL     1      15.461  11.178 -20.942  1.00  0.00     0.054 C 
ATOM     29  N   UNL     1      15.065  11.983 -22.008  1.00  0.00    -0.253 NA
ATOM     30  C   UNL     1      15.602  13.360 -23.948  1.00  0.00     0.071 C 
ATOM     31  C   UNL     1      14.344  10.645 -20.092  1.00  0.00     0.068 C 
ENDBRANCH   6  21
TORSDOF 3
ENDMDL
