MODEL 1
REMARK VINA RESULT:      -7.5      0.000      0.000
REMARK SMILES O=C(Nc1ccc(NC(=O)c2ccc(F)cc2)nc1)c1ccncc1
REMARK SMILES IDX 4 1 5 2 6 3 7 4 18 5 19 6 3 7 1 8 2 9 20 11 21 12 25 13
REMARK SMILES IDX 22 14 24 15 23 16 8 17 9 18 10 19 11 21 12 22 17 23 13 24
REMARK SMILES IDX 16 25 14 26 15 27
REMARK H PARENT 3 10 8 20
ROOT
ATOM      1  C   UNL     1      25.725  23.195  -8.379  1.00  0.00     0.060 A 
ATOM      2  C   UNL     1      26.577  24.028  -7.665  1.00  0.00     0.031 A 
ATOM      3  C   UNL     1      27.461  24.874  -8.346  1.00  0.00     0.049 A 
ATOM      4  C   UNL     1      27.471  24.867  -9.732  1.00  0.00     0.132 A 
ATOM      5  N   UNL     1      26.662  24.063 -10.456  1.00  0.00    -0.237 NA
ATOM      6  C   UNL     1      25.816  23.257  -9.768  1.00  0.00     0.139 A 
ENDROOT
BRANCH   1   7
ATOM      7  N   UNL     1      24.801  22.300  -7.797  1.00  0.00    -0.321 N 
ATOM      8  O   UNL     1      25.891  20.252  -8.044  1.00  0.00    -0.269 OA
ATOM      9  C   UNL     1      24.927  20.926  -7.702  1.00  0.00     0.255 C 
ATOM     10  H   UNL     1      24.004  22.723  -7.340  1.00  0.00     0.170 HD
BRANCH   9  11
ATOM     11  C   UNL     1      23.771  20.229  -7.077  1.00  0.00     0.043 A 
ATOM     12  C   UNL     1      23.198  20.676  -5.886  1.00  0.00     0.034 A 
ATOM     13  C   UNL     1      23.233  19.120  -7.731  1.00  0.00     0.034 A 
ATOM     14  C   UNL     1      22.121  19.967  -5.383  1.00  0.00     0.112 A 
ATOM     15  C   UNL     1      22.159  18.480  -7.144  1.00  0.00     0.112 A 
ATOM     16  N   UNL     1      21.599  18.875  -5.979  1.00  0.00    -0.265 NA
ENDBRANCH   9  11
ENDBRANCH   1   7
BRANCH   4  17
ATOM     17  N   UNL     1      28.306  25.657 -10.522  1.00  0.00    -0.307 N 
ATOM     18  C   UNL     1      28.366  27.028 -10.584  1.00  0.00     0.256 C 
ATOM     19  O   UNL     1      27.652  27.818  -9.980  1.00  0.00    -0.269 OA
ATOM     20  H   UNL     1      28.863  25.096 -11.150  1.00  0.00     0.171 HD
BRANCH  18  21
ATOM     21  C   UNL     1      29.394  27.575 -11.518  1.00  0.00     0.040 A 
ATOM     22  C   UNL     1      30.474  28.349 -11.064  1.00  0.00     0.017 A 
ATOM     23  C   UNL     1      29.247  27.325 -12.891  1.00  0.00     0.017 A 
ATOM     24  C   UNL     1      31.409  28.844 -11.977  1.00  0.00     0.040 A 
ATOM     25  C   UNL     1      30.185  27.823 -13.799  1.00  0.00     0.040 A 
ATOM     26  C   UNL     1      31.257  28.573 -13.334  1.00  0.00     0.123 A 
ATOM     27  F   UNL     1      32.155  29.051 -14.204  1.00  0.00    -0.207 F 
ENDBRANCH  18  21
ENDBRANCH   4  17
TORSDOF 4
ENDMDL
MODEL 2
REMARK VINA RESULT:      -7.5      0.115      1.356
REMARK SMILES O=C(Nc1ccc(NC(=O)c2ccc(F)cc2)nc1)c1ccncc1
REMARK SMILES IDX 4 1 5 2 6 3 7 4 18 5 19 6 3 7 1 8 2 9 20 11 21 12 25 13
REMARK SMILES IDX 22 14 24 15 23 16 8 17 9 18 10 19 11 21 12 22 17 23 13 24
REMARK SMILES IDX 16 25 14 26 15 27
REMARK H PARENT 3 10 8 20
ROOT
ATOM      1  C   UNL     1      25.743  23.165  -8.378  1.00  0.00     0.060 A 
ATOM      2  C   UNL     1      26.636  23.969  -7.682  1.00  0.00     0.031 A 
ATOM      3  C   UNL     1      27.510  24.811  -8.379  1.00  0.00     0.049 A 
ATOM      4  C   UNL     1      27.470  24.828  -9.765  1.00  0.00     0.132 A 
ATOM      5  N   UNL     1      26.621  24.053 -10.472  1.00  0.00    -0.237 NA
ATOM      6  C   UNL     1      25.785  23.250  -9.768  1.00  0.00     0.139 A 
ENDROOT
BRANCH   1   7
ATOM      7  N   UNL     1      24.824  22.277  -7.779  1.00  0.00    -0.321 N 
ATOM      8  O   UNL     1      25.865  20.214  -8.098  1.00  0.00    -0.269 OA
ATOM      9  C   UNL     1      24.927  20.900  -7.711  1.00  0.00     0.255 C 
ATOM     10  H   UNL     1      24.051  22.707  -7.287  1.00  0.00     0.170 HD
BRANCH   9  11
ATOM     11  C   UNL     1      23.781  20.213  -7.057  1.00  0.00     0.043 A 
ATOM     12  C   UNL     1      23.147  19.117  -7.643  1.00  0.00     0.034 A 
ATOM     13  C   UNL     1      23.361  20.669  -5.807  1.00  0.00     0.034 A 
ATOM     14  C   UNL     1      22.093  18.540  -6.957  1.00  0.00     0.112 A 
ATOM     15  C   UNL     1      22.297  20.025  -5.206  1.00  0.00     0.112 A 
ATOM     16  N   UNL     1      21.648  18.977  -5.761  1.00  0.00    -0.265 NA
ENDBRANCH   9  11
ENDBRANCH   1   7
BRANCH   4  17
ATOM     17  N   UNL     1      28.292  25.617 -10.571  1.00  0.00    -0.307 N 
ATOM     18  C   UNL     1      28.343  26.988 -10.645  1.00  0.00     0.256 C 
ATOM     19  O   UNL     1      27.631  27.779 -10.038  1.00  0.00    -0.269 OA
ATOM     20  H   UNL     1      28.844  25.055 -11.201  1.00  0.00     0.171 HD
BRANCH  18  21
ATOM     21  C   UNL     1      29.357  27.533 -11.594  1.00  0.00     0.040 A 
ATOM     22  C   UNL     1      29.259  27.336 -12.980  1.00  0.00     0.017 A 
ATOM     23  C   UNL     1      30.452  28.236 -11.069  1.00  0.00     0.017 A 
ATOM     24  C   UNL     1      30.235  27.862 -13.830  1.00  0.00     0.040 A 
ATOM     25  C   UNL     1      31.425  28.759 -11.922  1.00  0.00     0.040 A 
ATOM     26  C   UNL     1      31.306  28.570 -13.293  1.00  0.00     0.123 A 
ATOM     27  F   UNL     1      32.240  29.071 -14.112  1.00  0.00    -0.207 F 
ENDBRANCH  18  21
ENDBRANCH   4  17
TORSDOF 4
ENDMDL
MODEL 3
REMARK VINA RESULT:      -7.3     18.465     19.339
REMARK SMILES O=C(Nc1ccc(NC(=O)c2ccc(F)cc2)nc1)c1ccncc1
REMARK SMILES IDX 4 1 5 2 6 3 7 4 18 5 19 6 3 7 1 8 2 9 20 11 21 12 25 13
REMARK SMILES IDX 22 14 24 15 23 16 8 17 9 18 10 19 11 21 12 22 17 23 13 24
REMARK SMILES IDX 16 25 14 26 15 27
REMARK H PARENT 3 10 8 20
ROOT
ATOM      1  C   UNL     1      17.374  12.734 -21.513  1.00  0.00     0.060 A 
ATOM      2  C   UNL     1      18.560  13.033 -20.856  1.00  0.00     0.031 A 
ATOM      3  C   UNL     1      19.717  13.312 -21.593  1.00  0.00     0.049 A 
ATOM      4  C   UNL     1      19.660  13.285 -22.978  1.00  0.00     0.132 A 
ATOM      5  N   UNL     1      18.525  12.989 -23.647  1.00  0.00    -0.237 NA
ATOM      6  C   UNL     1      17.421  12.725 -22.905  1.00  0.00     0.139 A 
ENDROOT
BRANCH   1   7
ATOM      7  N   UNL     1      16.153  12.431 -20.872  1.00  0.00    -0.321 N 
ATOM      8  O   UNL     1      16.751  10.631 -19.515  1.00  0.00    -0.269 OA
ATOM      9  C   UNL     1      15.922  11.410 -19.969  1.00  0.00     0.255 C 
ATOM     10  H   UNL     1      15.393  13.079 -21.041  1.00  0.00     0.170 HD
BRANCH   9  11
ATOM     11  C   UNL     1      14.519  11.299 -19.488  1.00  0.00     0.043 A 
ATOM     12  C   UNL     1      13.574  10.513 -20.147  1.00  0.00     0.034 A 
ATOM     13  C   UNL     1      14.163  11.979 -18.323  1.00  0.00     0.034 A 
ATOM     14  C   UNL     1      12.295  10.466 -19.622  1.00  0.00     0.112 A 
ATOM     15  C   UNL     1      12.858  11.870 -17.882  1.00  0.00     0.112 A 
ATOM     16  N   UNL     1      11.915  11.136 -18.514  1.00  0.00    -0.265 NA
ENDBRANCH   9  11
ENDBRANCH   1   7
BRANCH   4  17
ATOM     17  N   UNL     1      20.742  13.539 -23.820  1.00  0.00    -0.307 N 
ATOM     18  C   UNL     1      21.860  12.766 -24.021  1.00  0.00     0.256 C 
ATOM     19  O   UNL     1      22.135  11.718 -23.450  1.00  0.00    -0.269 OA
ATOM     20  H   UNL     1      20.668  14.446 -24.257  1.00  0.00     0.171 HD
BRANCH  18  21
ATOM     21  C   UNL     1      22.833  13.306 -25.015  1.00  0.00     0.040 A 
ATOM     22  C   UNL     1      22.543  13.354 -26.388  1.00  0.00     0.017 A 
ATOM     23  C   UNL     1      24.082  13.747 -24.553  1.00  0.00     0.017 A 
ATOM     24  C   UNL     1      23.488  13.864 -27.282  1.00  0.00     0.040 A 
ATOM     25  C   UNL     1      25.024  14.255 -25.452  1.00  0.00     0.040 A 
ATOM     26  C   UNL     1      24.716  14.312 -26.805  1.00  0.00     0.123 A 
ATOM     27  F   UNL     1      25.619  14.799 -27.667  1.00  0.00    -0.207 F 
ENDBRANCH  18  21
ENDBRANCH   4  17
TORSDOF 4
ENDMDL
