MODEL 1
REMARK VINA RESULT:      -6.3      0.000      0.000
REMARK SMILES CCCC(=O)N1CCN(c2nc(N)c3cc(OC)c(OC)cc3n2)CC1
REMARK SMILES IDX 4 1 5 2 6 3 7 4 8 5 9 6 25 7 26 8 3 9 2 10 1 11 10 12 11 13
REMARK SMILES IDX 24 14 12 15 23 16 14 17 22 18 15 19 19 20 16 21 13 22 20 25
REMARK SMILES IDX 21 26 17 27 18 28
REMARK H PARENT 13 23 13 24
ROOT
ATOM      1  C   UNL     1      17.826  11.923 -21.375  1.00  0.00     0.222 C 
ATOM      2  O   UNL     1      17.593  10.973 -20.628  1.00  0.00    -0.275 OA
ATOM      3  N   UNL     1      19.062  12.090 -21.982  1.00  0.00    -0.339 N 
ATOM      4  C   UNL     1      19.437  13.237 -22.820  1.00  0.00     0.141 C 
ATOM      5  C   UNL     1      20.959  13.437 -22.926  1.00  0.00     0.141 C 
ATOM      6  N   UNL     1      21.612  12.214 -23.388  1.00  0.00    -0.337 N 
ATOM      7  C   UNL     1      21.051  10.922 -22.978  1.00  0.00     0.141 C 
ATOM      8  C   UNL     1      20.095  11.068 -21.778  1.00  0.00     0.141 C 
ENDROOT
BRANCH   1   9
ATOM      9  C   UNL     1      16.776  12.989 -21.668  1.00  0.00     0.100 C 
BRANCH   9  10
ATOM     10  C   UNL     1      15.765  12.576 -22.738  1.00  0.00     0.006 C 
ATOM     11  C   UNL     1      15.472  13.692 -23.733  1.00  0.00     0.004 C 
ENDBRANCH   9  10
ENDBRANCH   1   9
BRANCH   6  12
ATOM     12  C   UNL     1      22.958  12.275 -23.687  1.00  0.00     0.228 A 
ATOM     13  N   UNL     1      23.738  11.235 -23.373  1.00  0.00    -0.195 NA
ATOM     14  N   UNL     1      23.431  13.370 -24.301  1.00  0.00    -0.213 NA
ATOM     15  C   UNL     1      25.040  11.295 -23.675  1.00  0.00     0.137 A 
ATOM     16  C   UNL     1      24.732  13.431 -24.601  1.00  0.00     0.082 A 
ATOM     17  C   UNL     1      25.620  12.400 -24.304  1.00  0.00     0.047 A 
ATOM     18  C   UNL     1      25.215  14.570 -25.231  1.00  0.00     0.079 A 
ATOM     19  C   UNL     1      26.993  12.532 -24.641  1.00  0.00     0.064 A 
ATOM     20  C   UNL     1      26.565  14.716 -25.572  1.00  0.00     0.162 A 
ATOM     21  C   UNL     1      27.468  13.685 -25.266  1.00  0.00     0.161 A 
BRANCH  15  22
ATOM     22  N   UNL     1      25.803  10.170 -23.312  1.00  0.00    -0.383 N 
ATOM     23  H   UNL     1      25.189   9.383 -23.128  1.00  0.00     0.158 HD
ATOM     24  H   UNL     1      26.339  10.375 -22.476  1.00  0.00     0.158 HD
ENDBRANCH  15  22
BRANCH  20  25
ATOM     25  O   UNL     1      27.096  15.821 -26.187  1.00  0.00    -0.493 OA
ATOM     26  C   UNL     1      26.548  16.208 -27.439  1.00  0.00     0.278 C 
ENDBRANCH  20  25
BRANCH  21  27
ATOM     27  O   UNL     1      28.774  13.897 -25.625  1.00  0.00    -0.493 OA
ATOM     28  C   UNL     1      29.771  13.089 -25.015  1.00  0.00     0.278 C 
ENDBRANCH  21  27
ENDBRANCH   6  12
TORSDOF 6
ENDMDL
MODEL 2
REMARK VINA RESULT:      -6.1     17.672     20.244
REMARK SMILES CCCC(=O)N1CCN(c2nc(N)c3cc(OC)c(OC)cc3n2)CC1
REMARK SMILES IDX 4 1 5 2 6 3 7 4 8 5 9 6 25 7 26 8 3 9 2 10 1 11 10 12 11 13
REMARK SMILES IDX 24 14 12 15 23 16 14 17 22 18 15 19 19 20 16 21 13 22 20 25
REMARK SMILES IDX 21 26 17 27 18 28
REMARK H PARENT 13 23 13 24
ROOT
ATOM      1  C   UNL     1      35.682  21.040 -14.158  1.00  0.00     0.222 C 
ATOM      2  O   UNL     1      36.856  21.396 -14.260  1.00  0.00    -0.275 OA
ATOM      3  N   UNL     1      34.668  21.940 -13.869  1.00  0.00    -0.339 N 
ATOM      4  C   UNL     1      33.261  21.579 -13.656  1.00  0.00     0.141 C 
ATOM      5  C   UNL     1      32.477  22.638 -12.861  1.00  0.00     0.141 C 
ATOM      6  N   UNL     1      32.591  23.950 -13.493  1.00  0.00    -0.337 N 
ATOM      7  C   UNL     1      33.846  24.295 -14.169  1.00  0.00     0.141 C 
ATOM      8  C   UNL     1      34.999  23.365 -13.747  1.00  0.00     0.141 C 
ENDROOT
BRANCH   1   9
ATOM      9  C   UNL     1      35.269  19.583 -14.327  1.00  0.00     0.100 C 
BRANCH   9  10
ATOM     10  C   UNL     1      35.463  19.051 -15.747  1.00  0.00     0.006 C 
ATOM     11  C   UNL     1      34.274  19.344 -16.653  1.00  0.00     0.004 C 
ENDBRANCH   9  10
ENDBRANCH   1   9
BRANCH   6  12
ATOM     12  C   UNL     1      31.817  24.978 -12.992  1.00  0.00     0.228 A 
ATOM     13  N   UNL     1      32.074  26.230 -13.381  1.00  0.00    -0.195 NA
ATOM     14  N   UNL     1      30.820  24.677 -12.146  1.00  0.00    -0.213 NA
ATOM     15  C   UNL     1      31.313  27.221 -12.901  1.00  0.00     0.137 A 
ATOM     16  C   UNL     1      30.061  25.666 -11.664  1.00  0.00     0.082 A 
ATOM     17  C   UNL     1      30.261  27.001 -12.007  1.00  0.00     0.047 A 
ATOM     18  C   UNL     1      29.035  25.347 -10.784  1.00  0.00     0.079 A 
ATOM     19  C   UNL     1      29.425  28.005 -11.452  1.00  0.00     0.064 A 
ATOM     20  C   UNL     1      28.201  26.325 -10.229  1.00  0.00     0.162 A 
ATOM     21  C   UNL     1      28.403  27.673 -10.563  1.00  0.00     0.161 A 
BRANCH  15  22
ATOM     22  N   UNL     1      31.641  28.513 -13.347  1.00  0.00    -0.383 N 
ATOM     23  H   UNL     1      31.584  28.553 -14.360  1.00  0.00     0.158 HD
ATOM     24  H   UNL     1      32.586  28.746 -13.060  1.00  0.00     0.158 HD
ENDBRANCH  15  22
BRANCH  20  25
ATOM     25  O   UNL     1      27.179  26.066  -9.350  1.00  0.00    -0.493 OA
ATOM     26  C   UNL     1      27.323  24.953  -8.479  1.00  0.00     0.278 C 
ENDBRANCH  20  25
BRANCH  21  27
ATOM     27  O   UNL     1      27.552  28.576  -9.980  1.00  0.00    -0.493 OA
ATOM     28  C   UNL     1      28.115  29.753  -9.416  1.00  0.00     0.278 C 
ENDBRANCH  21  27
ENDBRANCH   6  12
TORSDOF 6
ENDMDL
MODEL 3
REMARK VINA RESULT:      -6.1      2.476      9.467
REMARK SMILES CCCC(=O)N1CCN(c2nc(N)c3cc(OC)c(OC)cc3n2)CC1
REMARK SMILES IDX 4 1 5 2 6 3 7 4 8 5 9 6 25 7 26 8 3 9 2 10 1 11 10 12 11 13
REMARK SMILES IDX 24 14 12 15 23 16 14 17 22 18 15 19 19 20 16 21 13 22 20 25
REMARK SMILES IDX 21 26 17 27 18 28
REMARK H PARENT 13 23 13 24
ROOT
ATOM      1  C   UNL     1      24.415  14.065 -26.858  1.00  0.00     0.222 C 
ATOM      2  O   UNL     1      24.212  14.171 -28.068  1.00  0.00    -0.275 OA
ATOM      3  N   UNL     1      23.422  13.650 -25.984  1.00  0.00    -0.339 N 
ATOM      4  C   UNL     1      23.566  13.575 -24.524  1.00  0.00     0.141 C 
ATOM      5  C   UNL     1      22.220  13.598 -23.780  1.00  0.00     0.141 C 
ATOM      6  N   UNL     1      21.336  12.546 -24.274  1.00  0.00    -0.337 N 
ATOM      7  C   UNL     1      21.403  12.182 -25.693  1.00  0.00     0.141 C 
ATOM      8  C   UNL     1      22.114  13.264 -26.528  1.00  0.00     0.141 C 
ENDROOT
BRANCH   1   9
ATOM      9  C   UNL     1      25.767  14.399 -26.240  1.00  0.00     0.100 C 
BRANCH   9  10
ATOM     10  C   UNL     1      26.621  15.331 -27.101  1.00  0.00     0.006 C 
ATOM     11  C   UNL     1      26.401  16.803 -26.772  1.00  0.00     0.004 C 
ENDBRANCH   9  10
ENDBRANCH   1   9
BRANCH   6  12
ATOM     12  C   UNL     1      20.149  12.331 -23.602  1.00  0.00     0.228 A 
ATOM     13  N   UNL     1      19.057  12.997 -23.990  1.00  0.00    -0.195 NA
ATOM     14  N   UNL     1      20.132  11.446 -22.594  1.00  0.00    -0.213 NA
ATOM     15  C   UNL     1      17.907  12.777 -23.342  1.00  0.00     0.137 A 
ATOM     16  C   UNL     1      18.984  11.227 -21.945  1.00  0.00     0.082 A 
ATOM     17  C   UNL     1      17.800  11.880 -22.274  1.00  0.00     0.047 A 
ATOM     18  C   UNL     1      18.977  10.313 -20.900  1.00  0.00     0.079 A 
ATOM     19  C   UNL     1      16.616  11.610 -21.539  1.00  0.00     0.064 A 
ATOM     20  C   UNL     1      17.818  10.033 -20.165  1.00  0.00     0.162 A 
ATOM     21  C   UNL     1      16.623  10.696 -20.485  1.00  0.00     0.161 A 
BRANCH  15  22
ATOM     22  N   UNL     1      16.799  13.513 -23.798  1.00  0.00    -0.383 N 
ATOM     23  H   UNL     1      16.477  14.140 -23.068  1.00  0.00     0.158 HD
ATOM     24  H   UNL     1      16.046  12.880 -24.047  1.00  0.00     0.158 HD
ENDBRANCH  15  22
BRANCH  20  25
ATOM     25  O   UNL     1      17.757   9.147 -19.120  1.00  0.00    -0.493 OA
ATOM     26  C   UNL     1      17.952   7.770 -19.408  1.00  0.00     0.278 C 
ENDBRANCH  20  25
BRANCH  21  27
ATOM     27  O   UNL     1      15.530  10.376 -19.723  1.00  0.00    -0.493 OA
ATOM     28  C   UNL     1      14.703  11.438 -19.266  1.00  0.00     0.278 C 
ENDBRANCH  21  27
ENDBRANCH   6  12
TORSDOF 6
ENDMDL
