MODEL 1
REMARK VINA RESULT:      -7.3      0.000      0.000
REMARK SMILES C[n+]1c(/C=C/c2cc3ccccc3[nH]2)ccc2ccccc21
REMARK SMILES IDX 4 1 5 2 3 3 2 4 22 5 15 6 21 7 17 8 16 9 20 10 18 11 19 12
REMARK SMILES IDX 1 13 6 14 7 15 14 16 8 17 13 18 9 19 12 20 10 21 11 22
REMARK H PARENT 14 23
ROOT
ATOM      1  C   UNL     1      25.606  21.132  -8.276  1.00  0.00     0.081 C 
ATOM      2  C   UNL     1      25.672  22.408  -8.687  1.00  0.00     0.033 C 
ENDROOT
BRANCH   1   3
ATOM      3  C   UNL     1      25.314  20.019  -9.186  1.00  0.00     0.205 A 
ATOM      4  N   UNL     1      24.191  19.260  -9.028  1.00  0.00    -0.195 N 
ATOM      5  C   UNL     1      23.877  18.273  -9.934  1.00  0.00     0.212 A 
ATOM      6  C   UNL     1      26.184  19.785 -10.253  1.00  0.00     0.080 A 
ATOM      7  C   UNL     1      22.708  17.490  -9.842  1.00  0.00     0.080 A 
ATOM      8  C   UNL     1      24.759  18.022 -11.019  1.00  0.00     0.046 A 
ATOM      9  C   UNL     1      25.913  18.780 -11.165  1.00  0.00     0.022 A 
ATOM     10  C   UNL     1      22.427  16.490 -10.779  1.00  0.00     0.007 A 
ATOM     11  C   UNL     1      24.464  17.014 -11.950  1.00  0.00     0.015 A 
ATOM     12  C   UNL     1      23.305  16.251 -11.827  1.00  0.00     0.001 A 
ATOM     13  C   UNL     1      23.307  19.473  -7.855  1.00  0.00     0.441 C 
ENDBRANCH   1   3
BRANCH   2  14
ATOM     14  C   UNL     1      25.975  23.447  -7.773  1.00  0.00     0.039 A 
ATOM     15  C   UNL     1      26.723  23.546  -6.613  1.00  0.00     0.036 A 
ATOM     16  N   UNL     1      25.443  24.696  -8.006  1.00  0.00    -0.355 N 
ATOM     17  C   UNL     1      26.648  24.887  -6.143  1.00  0.00    -0.000 A 
ATOM     18  C   UNL     1      25.841  25.587  -7.036  1.00  0.00     0.046 A 
ATOM     19  C   UNL     1      27.191  25.570  -5.038  1.00  0.00     0.010 A 
ATOM     20  C   UNL     1      25.546  26.947  -6.882  1.00  0.00     0.026 A 
ATOM     21  C   UNL     1      26.908  26.930  -4.869  1.00  0.00     0.001 A 
ATOM     22  C   UNL     1      26.097  27.607  -5.779  1.00  0.00     0.002 A 
ATOM     23  H   UNL     1      24.840  24.950  -8.776  1.00  0.00     0.167 HD
ENDBRANCH   2  14
TORSDOF 2
ENDMDL
MODEL 2
REMARK VINA RESULT:      -7.2      1.359      8.539
REMARK SMILES C[n+]1c(/C=C/c2cc3ccccc3[nH]2)ccc2ccccc21
REMARK SMILES IDX 4 1 5 2 3 3 2 4 22 5 15 6 21 7 17 8 16 9 20 10 18 11 19 12
REMARK SMILES IDX 1 13 6 14 7 15 14 16 8 17 13 18 9 19 12 20 10 21 11 22
REMARK H PARENT 14 23
ROOT
ATOM      1  C   UNL     1      25.469  22.114  -8.242  1.00  0.00     0.081 C 
ATOM      2  C   UNL     1      25.819  20.823  -8.123  1.00  0.00     0.033 C 
ENDROOT
BRANCH   1   3
ATOM      3  C   UNL     1      25.864  23.137  -7.268  1.00  0.00     0.205 A 
ATOM      4  N   UNL     1      25.063  23.440  -6.205  1.00  0.00    -0.195 N 
ATOM      5  C   UNL     1      25.476  24.337  -5.248  1.00  0.00     0.212 A 
ATOM      6  C   UNL     1      27.105  23.760  -7.421  1.00  0.00     0.080 A 
ATOM      7  C   UNL     1      24.708  24.652  -4.108  1.00  0.00     0.080 A 
ATOM      8  C   UNL     1      26.734  24.982  -5.397  1.00  0.00     0.046 A 
ATOM      9  C   UNL     1      27.537  24.689  -6.492  1.00  0.00     0.022 A 
ATOM     10  C   UNL     1      25.159  25.577  -3.160  1.00  0.00     0.007 A 
ATOM     11  C   UNL     1      27.172  25.908  -4.439  1.00  0.00     0.015 A 
ATOM     12  C   UNL     1      26.386  26.205  -3.328  1.00  0.00     0.001 A 
ATOM     13  C   UNL     1      23.719  22.822  -6.085  1.00  0.00     0.441 C 
ENDBRANCH   1   3
BRANCH   2  14
ATOM     14  C   UNL     1      25.428  19.875  -9.100  1.00  0.00     0.039 A 
ATOM     15  C   UNL     1      25.998  19.359 -10.250  1.00  0.00     0.036 A 
ATOM     16  N   UNL     1      24.199  19.268  -8.963  1.00  0.00    -0.355 N 
ATOM     17  C   UNL     1      25.097  18.411 -10.812  1.00  0.00    -0.000 A 
ATOM     18  C   UNL     1      23.979  18.372  -9.984  1.00  0.00     0.046 A 
ATOM     19  C   UNL     1      25.130  17.583 -11.950  1.00  0.00     0.010 A 
ATOM     20  C   UNL     1      22.880  17.541 -10.236  1.00  0.00     0.026 A 
ATOM     21  C   UNL     1      24.042  16.745 -12.216  1.00  0.00     0.001 A 
ATOM     22  C   UNL     1      22.934  16.726 -11.371  1.00  0.00     0.002 A 
ATOM     23  H   UNL     1      23.532  19.439  -8.224  1.00  0.00     0.167 HD
ENDBRANCH   2  14
TORSDOF 2
ENDMDL
MODEL 3
REMARK VINA RESULT:      -7.2      0.940      8.613
REMARK SMILES C[n+]1c(/C=C/c2cc3ccccc3[nH]2)ccc2ccccc21
REMARK SMILES IDX 4 1 5 2 3 3 2 4 22 5 15 6 21 7 17 8 16 9 20 10 18 11 19 12
REMARK SMILES IDX 1 13 6 14 7 15 14 16 8 17 13 18 9 19 12 20 10 21 11 22
REMARK H PARENT 14 23
ROOT
ATOM      1  C   UNL     1      25.526  22.384  -8.719  1.00  0.00     0.081 C 
ATOM      2  C   UNL     1      25.702  21.100  -8.366  1.00  0.00     0.033 C 
ENDROOT
BRANCH   1   3
ATOM      3  C   UNL     1      25.833  23.502  -7.822  1.00  0.00     0.205 A 
ATOM      4  N   UNL     1      24.886  24.436  -7.513  1.00  0.00    -0.195 N 
ATOM      5  C   UNL     1      25.153  25.434  -6.605  1.00  0.00     0.212 A 
ATOM      6  C   UNL     1      27.104  23.565  -7.245  1.00  0.00     0.080 A 
ATOM      7  C   UNL     1      24.197  26.395  -6.218  1.00  0.00     0.080 A 
ATOM      8  C   UNL     1      26.445  25.510  -6.018  1.00  0.00     0.046 A 
ATOM      9  C   UNL     1      27.414  24.573  -6.351  1.00  0.00     0.022 A 
ATOM     10  C   UNL     1      24.509  27.400  -5.297  1.00  0.00     0.007 A 
ATOM     11  C   UNL     1      26.743  26.526  -5.096  1.00  0.00     0.015 A 
ATOM     12  C   UNL     1      25.779  27.467  -4.741  1.00  0.00     0.001 A 
ATOM     13  C   UNL     1      23.561  24.400  -8.180  1.00  0.00     0.441 C 
ENDBRANCH   1   3
BRANCH   2  14
ATOM     14  C   UNL     1      25.407  20.054  -9.275  1.00  0.00     0.039 A 
ATOM     15  C   UNL     1      26.059  19.473 -10.347  1.00  0.00     0.036 A 
ATOM     16  N   UNL     1      24.203  19.397  -9.143  1.00  0.00    -0.355 N 
ATOM     17  C   UNL     1      25.235  18.435 -10.866  1.00  0.00    -0.000 A 
ATOM     18  C   UNL     1      24.078  18.409 -10.092  1.00  0.00     0.046 A 
ATOM     19  C   UNL     1      25.366  17.518 -11.926  1.00  0.00     0.010 A 
ATOM     20  C   UNL     1      23.035  17.503 -10.322  1.00  0.00     0.026 A 
ATOM     21  C   UNL     1      24.334  16.605 -12.170  1.00  0.00     0.001 A 
ATOM     22  C   UNL     1      23.186  16.599 -11.379  1.00  0.00     0.002 A 
ATOM     23  H   UNL     1      23.491  19.595  -8.454  1.00  0.00     0.167 HD
ENDBRANCH   2  14
TORSDOF 2
ENDMDL
