MODEL 1
REMARK VINA RESULT:      -6.9      0.000      0.000
REMARK SMILES O=C(Nc1ccccn1)c1cccc(OCc2cscn2)c1
REMARK SMILES IDX 10 1 11 2 12 3 13 4 14 5 22 6 2 7 1 8 3 9 4 11 5 12 9 13
REMARK SMILES IDX 6 14 8 15 7 16 15 17 16 18 17 19 18 20 21 21 19 22 20 23
REMARK H PARENT 3 10
ROOT
ATOM      1  C   UNL     1      29.411  27.262 -11.690  1.00  0.00     0.043 A 
ATOM      2  C   UNL     1      29.555  28.578 -12.144  1.00  0.00     0.014 A 
ATOM      3  C   UNL     1      30.549  28.884 -13.074  1.00  0.00     0.005 A 
ATOM      4  C   UNL     1      31.404  27.884 -13.550  1.00  0.00     0.046 A 
ATOM      5  C   UNL     1      31.275  26.572 -13.093  1.00  0.00     0.120 A 
ATOM      6  C   UNL     1      30.282  26.269 -12.156  1.00  0.00     0.060 A 
ENDROOT
BRANCH   1   7
ATOM      7  C   UNL     1      28.371  26.882 -10.693  1.00  0.00     0.256 C 
ATOM      8  O   UNL     1      27.742  27.773 -10.133  1.00  0.00    -0.269 OA
ATOM      9  N   UNL     1      28.243  25.531 -10.475  1.00  0.00    -0.307 N 
ATOM     10  H   UNL     1      28.889  24.885 -10.904  1.00  0.00     0.171 HD
BRANCH   9  11
ATOM     11  C   UNL     1      27.350  24.873  -9.628  1.00  0.00     0.132 A 
ATOM     12  C   UNL     1      27.227  25.126  -8.271  1.00  0.00     0.047 A 
ATOM     13  N   UNL     1      26.593  23.954 -10.269  1.00  0.00    -0.239 NA
ATOM     14  C   UNL     1      26.291  24.401  -7.534  1.00  0.00     0.005 A 
ATOM     15  C   UNL     1      25.694  23.265  -9.530  1.00  0.00     0.113 A 
ATOM     16  C   UNL     1      25.507  23.451  -8.173  1.00  0.00     0.020 A 
ENDBRANCH   9  11
ENDBRANCH   1   7
BRANCH   5  17
ATOM     17  O   UNL     1      32.048  25.507 -13.460  1.00  0.00    -0.487 OA
BRANCH  17  18
ATOM     18  C   UNL     1      32.600  24.677 -12.428  1.00  0.00     0.286 C 
BRANCH  18  19
ATOM     19  C   UNL     1      32.658  23.225 -12.795  1.00  0.00     0.089 A 
ATOM     20  C   UNL     1      33.354  22.672 -13.855  1.00  0.00     0.093 A 
ATOM     21  N   UNL     1      31.958  22.306 -12.020  1.00  0.00    -0.246 NA
ATOM     22  S   UNL     1      33.130  20.974 -13.892  1.00  0.00    -0.130 S 
ATOM     23  C   UNL     1      32.135  21.096 -12.504  1.00  0.00     0.176 A 
ENDBRANCH  18  19
ENDBRANCH  17  18
ENDBRANCH   5  17
TORSDOF 5
ENDMDL
MODEL 2
REMARK VINA RESULT:      -6.7      6.859     10.461
REMARK SMILES O=C(Nc1ccccn1)c1cccc(OCc2cscn2)c1
REMARK SMILES IDX 10 1 11 2 12 3 13 4 14 5 22 6 2 7 1 8 3 9 4 11 5 12 9 13
REMARK SMILES IDX 6 14 8 15 7 16 15 17 16 18 17 19 18 20 21 21 19 22 20 23
REMARK H PARENT 3 10
ROOT
ATOM      1  C   UNL     1      22.858  18.051  -9.312  1.00  0.00     0.043 A 
ATOM      2  C   UNL     1      21.823  17.274  -8.782  1.00  0.00     0.014 A 
ATOM      3  C   UNL     1      21.290  17.591  -7.531  1.00  0.00     0.005 A 
ATOM      4  C   UNL     1      21.788  18.677  -6.805  1.00  0.00     0.046 A 
ATOM      5  C   UNL     1      22.829  19.450  -7.321  1.00  0.00     0.120 A 
ATOM      6  C   UNL     1      23.365  19.127  -8.571  1.00  0.00     0.060 A 
ENDROOT
BRANCH   1   7
ATOM      7  C   UNL     1      23.468  17.754 -10.638  1.00  0.00     0.256 C 
ATOM      8  O   UNL     1      22.768  17.243 -11.504  1.00  0.00    -0.269 OA
ATOM      9  N   UNL     1      24.803  18.065 -10.745  1.00  0.00    -0.307 N 
ATOM     10  H   UNL     1      25.317  18.377  -9.934  1.00  0.00     0.171 HD
BRANCH   9  11
ATOM     11  C   UNL     1      25.636  17.926 -11.856  1.00  0.00     0.132 A 
ATOM     12  C   UNL     1      25.819  16.743 -12.555  1.00  0.00     0.047 A 
ATOM     13  N   UNL     1      26.253  19.078 -12.201  1.00  0.00    -0.239 NA
ATOM     14  C   UNL     1      26.677  16.737 -13.654  1.00  0.00     0.005 A 
ATOM     15  C   UNL     1      27.081  19.044 -13.270  1.00  0.00     0.113 A 
ATOM     16  C   UNL     1      27.323  17.909 -14.022  1.00  0.00     0.020 A 
ENDBRANCH   9  11
ENDBRANCH   1   7
BRANCH   5  17
ATOM     17  O   UNL     1      23.418  20.524  -6.714  1.00  0.00    -0.487 OA
BRANCH  17  18
ATOM     18  C   UNL     1      24.848  20.549  -6.613  1.00  0.00     0.286 C 
BRANCH  18  19
ATOM     19  C   UNL     1      25.460  21.826  -7.107  1.00  0.00     0.089 A 
ATOM     20  C   UNL     1      25.384  22.330  -8.393  1.00  0.00     0.093 A 
ATOM     21  N   UNL     1      26.185  22.613  -6.218  1.00  0.00    -0.246 NA
ATOM     22  S   UNL     1      26.235  23.812  -8.501  1.00  0.00    -0.130 S 
ATOM     23  C   UNL     1      26.637  23.680  -6.841  1.00  0.00     0.176 A 
ENDBRANCH  18  19
ENDBRANCH  17  18
ENDBRANCH   5  17
TORSDOF 5
ENDMDL
MODEL 3
REMARK VINA RESULT:      -6.7      4.409      7.345
REMARK SMILES O=C(Nc1ccccn1)c1cccc(OCc2cscn2)c1
REMARK SMILES IDX 10 1 11 2 12 3 13 4 14 5 22 6 2 7 1 8 3 9 4 11 5 12 9 13
REMARK SMILES IDX 6 14 8 15 7 16 15 17 16 18 17 19 18 20 21 21 19 22 20 23
REMARK H PARENT 3 10
ROOT
ATOM      1  C   UNL     1      25.564  21.428  -8.488  1.00  0.00     0.043 A 
ATOM      2  C   UNL     1      25.535  21.658  -7.108  1.00  0.00     0.014 A 
ATOM      3  C   UNL     1      25.842  22.925  -6.611  1.00  0.00     0.005 A 
ATOM      4  C   UNL     1      26.183  23.963  -7.484  1.00  0.00     0.046 A 
ATOM      5  C   UNL     1      26.226  23.739  -8.860  1.00  0.00     0.120 A 
ATOM      6  C   UNL     1      25.925  22.467  -9.355  1.00  0.00     0.060 A 
ENDROOT
BRANCH   1   7
ATOM      7  C   UNL     1      25.253  20.093  -9.071  1.00  0.00     0.256 C 
ATOM      8  O   UNL     1      24.532  19.330  -8.437  1.00  0.00    -0.269 OA
ATOM      9  N   UNL     1      25.848  19.836 -10.284  1.00  0.00    -0.307 N 
ATOM     10  H   UNL     1      26.516  20.488 -10.667  1.00  0.00     0.171 HD
BRANCH   9  11
ATOM     11  C   UNL     1      25.729  18.697 -11.081  1.00  0.00     0.132 A 
ATOM     12  C   UNL     1      24.568  17.951 -11.213  1.00  0.00     0.047 A 
ATOM     13  N   UNL     1      26.872  18.388 -11.734  1.00  0.00    -0.239 NA
ATOM     14  C   UNL     1      24.579  16.834 -12.048  1.00  0.00     0.005 A 
ATOM     15  C   UNL     1      26.855  17.300 -12.536  1.00  0.00     0.113 A 
ATOM     16  C   UNL     1      25.743  16.498 -12.724  1.00  0.00     0.020 A 
ENDBRANCH   9  11
ENDBRANCH   1   7
BRANCH   5  17
ATOM     17  O   UNL     1      26.557  24.655  -9.820  1.00  0.00    -0.487 OA
BRANCH  17  18
ATOM     18  C   UNL     1      27.529  25.658  -9.498  1.00  0.00     0.286 C 
BRANCH  18  19
ATOM     19  C   UNL     1      28.470  25.963 -10.625  1.00  0.00     0.089 A 
ATOM     20  C   UNL     1      28.626  27.183 -11.258  1.00  0.00     0.093 A 
ATOM     21  N   UNL     1      29.287  24.948 -11.113  1.00  0.00    -0.246 NA
ATOM     22  S   UNL     1      29.810  27.066 -12.490  1.00  0.00    -0.130 S 
ATOM     23  C   UNL     1      30.031  25.414 -12.092  1.00  0.00     0.176 A 
ENDBRANCH  18  19
ENDBRANCH  17  18
ENDBRANCH   5  17
TORSDOF 5
ENDMDL
