MODEL 1
REMARK VINA RESULT:      -6.8      0.000      0.000
REMARK SMILES COc1cc2nc(N3CCN(C(=O)C(C)C)CC3)nc(N)c2cc1OC
REMARK SMILES IDX 3 1 4 2 5 3 6 4 7 5 19 6 20 7 22 8 23 9 24 10 2 11 1 12
REMARK SMILES IDX 25 13 26 14 8 15 9 16 18 17 10 18 17 19 11 20 12 21 13 22
REMARK SMILES IDX 14 23 15 24 16 25 21 26
REMARK H PARENT 21 27 21 28
ROOT
ATOM      1  C   UNL     1      26.350  18.406 -11.760  1.00  0.00     0.162 A 
ATOM      2  C   UNL     1      26.283  19.232 -10.632  1.00  0.00     0.079 A 
ATOM      3  C   UNL     1      25.202  19.200  -9.759  1.00  0.00     0.082 A 
ATOM      4  N   UNL     1      25.209  20.018  -8.704  1.00  0.00    -0.213 NA
ATOM      5  C   UNL     1      24.174  19.989  -7.851  1.00  0.00     0.228 A 
ATOM      6  N   UNL     1      23.128  19.175  -8.024  1.00  0.00    -0.195 NA
ATOM      7  C   UNL     1      23.117  18.360  -9.084  1.00  0.00     0.137 A 
ATOM      8  C   UNL     1      24.157  18.317 -10.018  1.00  0.00     0.047 A 
ATOM      9  C   UNL     1      24.210  17.471 -11.156  1.00  0.00     0.064 A 
ATOM     10  C   UNL     1      25.301  17.512 -12.026  1.00  0.00     0.161 A 
ENDROOT
BRANCH   1  11
ATOM     11  O   UNL     1      27.393  18.395 -12.654  1.00  0.00    -0.493 OA
ATOM     12  C   UNL     1      27.463  19.455 -13.599  1.00  0.00     0.278 C 
ENDBRANCH   1  11
BRANCH  10  13
ATOM     13  O   UNL     1      25.435  16.733 -13.147  1.00  0.00    -0.493 OA
ATOM     14  C   UNL     1      26.406  15.698 -13.130  1.00  0.00     0.278 C 
ENDBRANCH  10  13
BRANCH   5  15
ATOM     15  N   UNL     1      24.211  20.826  -6.744  1.00  0.00    -0.337 N 
ATOM     16  C   UNL     1      25.539  20.954  -6.121  1.00  0.00     0.141 C 
ATOM     17  C   UNL     1      23.368  22.026  -6.763  1.00  0.00     0.141 C 
ATOM     18  C   UNL     1      25.666  22.250  -5.301  1.00  0.00     0.141 C 
ATOM     19  C   UNL     1      24.206  23.286  -7.037  1.00  0.00     0.141 C 
ATOM     20  N   UNL     1      25.328  23.442  -6.093  1.00  0.00    -0.339 N 
ATOM     21  C   UNL     1      25.981  24.633  -5.814  1.00  0.00     0.225 C 
ATOM     22  O   UNL     1      26.784  24.718  -4.882  1.00  0.00    -0.275 OA
BRANCH  21  23
ATOM     23  C   UNL     1      25.724  25.833  -6.734  1.00  0.00     0.072 C 
ATOM     24  C   UNL     1      26.657  25.775  -7.942  1.00  0.00     0.018 C 
ATOM     25  C   UNL     1      25.938  27.148  -5.981  1.00  0.00     0.018 C 
ENDBRANCH  21  23
ENDBRANCH   5  15
BRANCH   7  26
ATOM     26  N   UNL     1      21.985  17.533  -9.206  1.00  0.00    -0.383 N 
ATOM     27  H   UNL     1      22.051  16.767  -8.543  1.00  0.00     0.158 HD
ATOM     28  H   UNL     1      21.938  17.150 -10.145  1.00  0.00     0.158 HD
ENDBRANCH   7  26
TORSDOF 5
ENDMDL
MODEL 2
REMARK VINA RESULT:      -6.5     16.832     19.327
REMARK SMILES COc1cc2nc(N3CCN(C(=O)C(C)C)CC3)nc(N)c2cc1OC
REMARK SMILES IDX 3 1 4 2 5 3 6 4 7 5 19 6 20 7 22 8 23 9 24 10 2 11 1 12
REMARK SMILES IDX 25 13 26 14 8 15 9 16 18 17 10 18 17 19 11 20 12 21 13 22
REMARK SMILES IDX 14 23 15 24 16 25 21 26
REMARK H PARENT 21 27 21 28
ROOT
ATOM      1  C   UNL     1      14.430   6.304 -20.930  1.00  0.00     0.162 A 
ATOM      2  C   UNL     1      14.772   7.533 -21.506  1.00  0.00     0.079 A 
ATOM      3  C   UNL     1      15.837   8.294 -21.041  1.00  0.00     0.082 A 
ATOM      4  N   UNL     1      16.103   9.456 -21.642  1.00  0.00    -0.213 NA
ATOM      5  C   UNL     1      17.133  10.195 -21.205  1.00  0.00     0.228 A 
ATOM      6  N   UNL     1      17.901   9.815 -20.178  1.00  0.00    -0.195 NA
ATOM      7  C   UNL     1      17.631   8.654 -19.571  1.00  0.00     0.137 A 
ATOM      8  C   UNL     1      16.584   7.817 -19.966  1.00  0.00     0.047 A 
ATOM      9  C   UNL     1      16.251   6.572 -19.371  1.00  0.00     0.064 A 
ATOM     10  C   UNL     1      15.180   5.816 -19.848  1.00  0.00     0.161 A 
ENDROOT
BRANCH   1  11
ATOM     11  O   UNL     1      13.390   5.511 -21.350  1.00  0.00    -0.493 OA
ATOM     12  C   UNL     1      12.935   5.673 -22.687  1.00  0.00     0.278 C 
ENDBRANCH   1  11
BRANCH  10  13
ATOM     13  O   UNL     1      14.788   4.606 -19.334  1.00  0.00    -0.493 OA
ATOM     14  C   UNL     1      14.043   4.602 -18.126  1.00  0.00     0.278 C 
ENDBRANCH  10  13
BRANCH   5  15
ATOM     15  N   UNL     1      17.414  11.386 -21.860  1.00  0.00    -0.337 N 
ATOM     16  C   UNL     1      18.258  12.319 -21.094  1.00  0.00     0.141 C 
ATOM     17  C   UNL     1      17.626  11.337 -23.311  1.00  0.00     0.141 C 
ATOM     18  C   UNL     1      18.985  13.320 -22.009  1.00  0.00     0.141 C 
ATOM     19  C   UNL     1      19.121  11.451 -23.655  1.00  0.00     0.141 C 
ATOM     20  N   UNL     1      19.753  12.647 -23.068  1.00  0.00    -0.339 N 
ATOM     21  C   UNL     1      20.923  13.238 -23.518  1.00  0.00     0.225 C 
ATOM     22  O   UNL     1      21.289  14.336 -23.093  1.00  0.00    -0.275 OA
BRANCH  21  23
ATOM     23  C   UNL     1      21.788  12.463 -24.519  1.00  0.00     0.072 C 
ATOM     24  C   UNL     1      22.885  11.697 -23.781  1.00  0.00     0.018 C 
ATOM     25  C   UNL     1      22.420  13.413 -25.538  1.00  0.00     0.018 C 
ENDBRANCH  21  23
ENDBRANCH   5  15
BRANCH   7  26
ATOM     26  N   UNL     1      18.476   8.317 -18.498  1.00  0.00    -0.383 N 
ATOM     27  H   UNL     1      17.927   8.222 -17.649  1.00  0.00     0.158 HD
ATOM     28  H   UNL     1      19.165   9.050 -18.360  1.00  0.00     0.158 HD
ENDBRANCH   7  26
TORSDOF 5
ENDMDL
MODEL 3
REMARK VINA RESULT:      -6.4     17.156     18.534
REMARK SMILES COc1cc2nc(N3CCN(C(=O)C(C)C)CC3)nc(N)c2cc1OC
REMARK SMILES IDX 3 1 4 2 5 3 6 4 7 5 19 6 20 7 22 8 23 9 24 10 2 11 1 12
REMARK SMILES IDX 25 13 26 14 8 15 9 16 18 17 10 18 17 19 11 20 12 21 13 22
REMARK SMILES IDX 14 23 15 24 16 25 21 26
REMARK H PARENT 21 27 21 28
ROOT
ATOM      1  C   UNL     1      17.616   9.989 -20.186  1.00  0.00     0.162 A 
ATOM      2  C   UNL     1      18.697  10.101 -21.069  1.00  0.00     0.079 A 
ATOM      3  C   UNL     1      18.697  11.007 -22.121  1.00  0.00     0.082 A 
ATOM      4  N   UNL     1      19.765  11.057 -22.921  1.00  0.00    -0.213 NA
ATOM      5  C   UNL     1      19.778  11.933 -23.936  1.00  0.00     0.228 A 
ATOM      6  N   UNL     1      18.753  12.756 -24.184  1.00  0.00    -0.195 NA
ATOM      7  C   UNL     1      17.680  12.703 -23.387  1.00  0.00     0.137 A 
ATOM      8  C   UNL     1      17.585  11.827 -22.301  1.00  0.00     0.047 A 
ATOM      9  C   UNL     1      16.481  11.726 -21.415  1.00  0.00     0.064 A 
ATOM     10  C   UNL     1      16.493  10.813 -20.360  1.00  0.00     0.161 A 
ENDROOT
BRANCH   1  11
ATOM     11  O   UNL     1      17.564   9.113 -19.129  1.00  0.00    -0.493 OA
ATOM     12  C   UNL     1      17.589   7.722 -19.422  1.00  0.00     0.278 C 
ENDBRANCH   1  11
BRANCH  10  13
ATOM     13  O   UNL     1      15.473  10.649 -19.459  1.00  0.00    -0.493 OA
ATOM     14  C   UNL     1      14.651  11.769 -19.168  1.00  0.00     0.278 C 
ENDBRANCH  10  13
BRANCH   5  15
ATOM     15  N   UNL     1      20.908  11.992 -24.741  1.00  0.00    -0.337 N 
ATOM     16  C   UNL     1      21.656  13.258 -24.647  1.00  0.00     0.141 C 
ATOM     17  C   UNL     1      21.695  10.766 -24.908  1.00  0.00     0.141 C 
ATOM     18  C   UNL     1      23.124  13.090 -25.081  1.00  0.00     0.141 C 
ATOM     19  C   UNL     1      22.982  10.815 -24.067  1.00  0.00     0.141 C 
ATOM     20  N   UNL     1      23.799  12.011 -24.344  1.00  0.00    -0.339 N 
ATOM     21  C   UNL     1      25.156  12.134 -24.082  1.00  0.00     0.225 C 
ATOM     22  O   UNL     1      25.804  13.092 -24.507  1.00  0.00    -0.275 OA
BRANCH  21  23
ATOM     23  C   UNL     1      25.820  11.075 -23.195  1.00  0.00     0.072 C 
ATOM     24  C   UNL     1      27.009  11.683 -22.453  1.00  0.00     0.018 C 
ATOM     25  C   UNL     1      26.291   9.884 -24.034  1.00  0.00     0.018 C 
ENDBRANCH  21  23
ENDBRANCH   5  15
BRANCH   7  26
ATOM     26  N   UNL     1      16.639  13.593 -23.707  1.00  0.00    -0.383 N 
ATOM     27  H   UNL     1      15.750  13.103 -23.672  1.00  0.00     0.158 HD
ATOM     28  H   UNL     1      16.774  13.958 -24.644  1.00  0.00     0.158 HD
ENDBRANCH   7  26
TORSDOF 5
ENDMDL
