MODEL 1
REMARK VINA RESULT:      -6.8      0.000      0.000
REMARK SMILES Cn1c(-c2ccc(OCCCN3CCCCC3)c(N)c2)cc(=O)c2ccccc21
REMARK SMILES IDX 8 1 7 2 4 3 5 4 20 5 6 6 18 7 3 8 2 9 29 10 21 11 28 12
REMARK SMILES IDX 24 13 22 14 27 15 25 16 23 17 26 18 1 19 19 20 9 23 10 24
REMARK SMILES IDX 11 25 12 26 13 27 17 28 14 29 16 30 15 31
REMARK H PARENT 19 21 19 22
ROOT
ATOM      1  O   UNL     1      22.017  21.020  -3.398  1.00  0.00    -0.491 OA
ENDROOT
BRANCH   1   2
ATOM      2  C   UNL     1      22.323  20.584  -4.663  1.00  0.00     0.142 A 
ATOM      3  C   UNL     1      23.109  19.541  -7.150  1.00  0.00     0.001 A 
ATOM      4  C   UNL     1      22.120  20.527  -7.077  1.00  0.00     0.014 A 
ATOM      5  C   UNL     1      23.690  19.062  -5.970  1.00  0.00     0.039 A 
ATOM      6  C   UNL     1      21.731  21.049  -5.840  1.00  0.00     0.049 A 
ATOM      7  C   UNL     1      23.276  19.544  -4.725  1.00  0.00     0.075 A 
BRANCH   3   8
ATOM      8  C   UNL     1      23.534  19.004  -8.457  1.00  0.00     0.052 C 
ATOM      9  N   UNL     1      24.766  19.383  -9.001  1.00  0.00    -0.343 N 
ATOM     10  C   UNL     1      25.185  18.815 -10.235  1.00  0.00     0.052 A 
ATOM     11  C   UNL     1      22.677  18.153  -9.038  1.00  0.00     0.079 C 
ATOM     12  C   UNL     1      26.426  19.098 -10.838  1.00  0.00     0.027 A 
ATOM     13  C   UNL     1      24.342  17.913 -10.919  1.00  0.00     0.046 A 
ATOM     14  C   UNL     1      23.029  17.560 -10.337  1.00  0.00     0.190 C 
ATOM     15  C   UNL     1      26.798  18.519 -12.058  1.00  0.00     0.002 A 
ATOM     16  C   UNL     1      24.712  17.332 -12.141  1.00  0.00     0.014 A 
ATOM     17  O   UNL     1      22.251  16.795 -10.898  1.00  0.00    -0.289 OA
ATOM     18  C   UNL     1      25.944  17.639 -12.711  1.00  0.00     0.001 A 
ATOM     19  C   UNL     1      25.681  20.336  -8.363  1.00  0.00     0.150 C 
ENDBRANCH   3   8
BRANCH   7  20
ATOM     20  N   UNL     1      23.964  19.138  -3.562  1.00  0.00    -0.396 N 
ATOM     21  H   UNL     1      24.972  19.168  -3.657  1.00  0.00     0.156 HD
ATOM     22  H   UNL     1      23.620  18.232  -3.246  1.00  0.00     0.156 HD
ENDBRANCH   7  20
ENDBRANCH   1   2
BRANCH   1  23
ATOM     23  C   UNL     1      21.977  22.425  -3.152  1.00  0.00     0.231 C 
BRANCH  23  24
ATOM     24  C   UNL     1      23.373  22.999  -2.908  1.00  0.00     0.057 C 
BRANCH  24  25
ATOM     25  C   UNL     1      23.545  24.378  -3.558  1.00  0.00     0.088 C 
BRANCH  25  26
ATOM     26  N   UNL     1      24.264  24.312  -4.841  1.00  0.00    -0.303 NA
ATOM     27  C   UNL     1      23.360  24.392  -6.002  1.00  0.00     0.084 C 
ATOM     28  C   UNL     1      25.127  23.131  -4.908  1.00  0.00     0.084 C 
ATOM     29  C   UNL     1      23.900  23.716  -7.271  1.00  0.00     0.016 C 
ATOM     30  C   UNL     1      26.075  23.228  -6.110  1.00  0.00     0.016 C 
ATOM     31  C   UNL     1      25.414  23.825  -7.354  1.00  0.00     0.003 C 
ENDBRANCH  25  26
ENDBRANCH  24  25
ENDBRANCH  23  24
ENDBRANCH   1  23
TORSDOF 7
ENDMDL
MODEL 2
REMARK VINA RESULT:      -6.6      0.694      1.119
REMARK SMILES Cn1c(-c2ccc(OCCCN3CCCCC3)c(N)c2)cc(=O)c2ccccc21
REMARK SMILES IDX 8 1 7 2 4 3 5 4 20 5 6 6 18 7 3 8 2 9 29 10 21 11 28 12
REMARK SMILES IDX 24 13 22 14 27 15 25 16 23 17 26 18 1 19 19 20 9 23 10 24
REMARK SMILES IDX 11 25 12 26 13 27 17 28 14 29 16 30 15 31
REMARK H PARENT 19 21 19 22
ROOT
ATOM      1  O   UNL     1      21.534  20.635  -3.526  1.00  0.00    -0.491 OA
ENDROOT
BRANCH   1   2
ATOM      2  C   UNL     1      21.949  20.265  -4.781  1.00  0.00     0.142 A 
ATOM      3  C   UNL     1      22.882  19.304  -7.250  1.00  0.00     0.001 A 
ATOM      4  C   UNL     1      22.234  20.542  -7.170  1.00  0.00     0.014 A 
ATOM      5  C   UNL     1      23.043  18.537  -6.089  1.00  0.00     0.039 A 
ATOM      6  C   UNL     1      21.773  21.022  -5.942  1.00  0.00     0.049 A 
ATOM      7  C   UNL     1      22.544  18.988  -4.863  1.00  0.00     0.075 A 
BRANCH   3   8
ATOM      8  C   UNL     1      23.388  18.806  -8.543  1.00  0.00     0.052 C 
ATOM      9  N   UNL     1      24.634  19.228  -9.016  1.00  0.00    -0.343 N 
ATOM     10  C   UNL     1      25.131  18.697 -10.238  1.00  0.00     0.052 A 
ATOM     11  C   UNL     1      22.584  17.944  -9.182  1.00  0.00     0.079 C 
ATOM     12  C   UNL     1      26.392  19.025 -10.771  1.00  0.00     0.027 A 
ATOM     13  C   UNL     1      24.349  17.787 -10.981  1.00  0.00     0.046 A 
ATOM     14  C   UNL     1      23.019  17.387 -10.473  1.00  0.00     0.190 C 
ATOM     15  C   UNL     1      26.841  18.482 -11.982  1.00  0.00     0.002 A 
ATOM     16  C   UNL     1      24.796  17.241 -12.193  1.00  0.00     0.014 A 
ATOM     17  O   UNL     1      22.291  16.613 -11.088  1.00  0.00    -0.289 OA
ATOM     18  C   UNL     1      26.046  17.592 -12.694  1.00  0.00     0.001 A 
ATOM     19  C   UNL     1      25.489  20.193  -8.315  1.00  0.00     0.150 C 
ENDBRANCH   3   8
BRANCH   7  20
ATOM     20  N   UNL     1      22.830  18.258  -3.689  1.00  0.00    -0.396 N 
ATOM     21  H   UNL     1      23.815  18.055  -3.569  1.00  0.00     0.156 HD
ATOM     22  H   UNL     1      22.243  17.426  -3.639  1.00  0.00     0.156 HD
ENDBRANCH   7  20
ENDBRANCH   1   2
BRANCH   1  23
ATOM     23  C   UNL     1      22.338  21.551  -2.784  1.00  0.00     0.231 C 
BRANCH  23  24
ATOM     24  C   UNL     1      23.683  21.806  -3.465  1.00  0.00     0.057 C 
BRANCH  24  25
ATOM     25  C   UNL     1      23.865  23.285  -3.833  1.00  0.00     0.088 C 
BRANCH  25  26
ATOM     26  N   UNL     1      24.406  23.465  -5.191  1.00  0.00    -0.303 NA
ATOM     27  C   UNL     1      25.767  24.030  -5.189  1.00  0.00     0.084 C 
ATOM     28  C   UNL     1      23.495  24.250  -6.027  1.00  0.00     0.084 C 
ATOM     29  C   UNL     1      26.127  24.815  -6.459  1.00  0.00     0.016 C 
ATOM     30  C   UNL     1      23.926  24.184  -7.496  1.00  0.00     0.016 C 
ATOM     31  C   UNL     1      25.443  24.227  -7.684  1.00  0.00     0.003 C 
ENDBRANCH  25  26
ENDBRANCH  24  25
ENDBRANCH  23  24
ENDBRANCH   1  23
TORSDOF 7
ENDMDL
MODEL 3
REMARK VINA RESULT:      -6.4      1.916      2.775
REMARK SMILES Cn1c(-c2ccc(OCCCN3CCCCC3)c(N)c2)cc(=O)c2ccccc21
REMARK SMILES IDX 8 1 7 2 4 3 5 4 20 5 6 6 18 7 3 8 2 9 29 10 21 11 28 12
REMARK SMILES IDX 24 13 22 14 27 15 25 16 23 17 26 18 1 19 19 20 9 23 10 24
REMARK SMILES IDX 11 25 12 26 13 27 17 28 14 29 16 30 15 31
REMARK H PARENT 19 21 19 22
ROOT
ATOM      1  O   UNL     1      23.670  22.605  -3.415  1.00  0.00    -0.491 OA
ENDROOT
BRANCH   1   2
ATOM      2  C   UNL     1      23.933  21.895  -4.560  1.00  0.00     0.142 A 
ATOM      3  C   UNL     1      24.246  20.499  -6.977  1.00  0.00     0.001 A 
ATOM      4  C   UNL     1      25.294  20.558  -6.052  1.00  0.00     0.014 A 
ATOM      5  C   UNL     1      23.045  21.161  -6.697  1.00  0.00     0.039 A 
ATOM      6  C   UNL     1      25.138  21.250  -4.848  1.00  0.00     0.049 A 
ATOM      7  C   UNL     1      22.894  21.894  -5.516  1.00  0.00     0.075 A 
BRANCH   3   8
ATOM      8  C   UNL     1      24.404  19.751  -8.239  1.00  0.00     0.052 C 
ATOM      9  N   UNL     1      23.459  18.787  -8.603  1.00  0.00    -0.343 N 
ATOM     10  C   UNL     1      23.596  18.114  -9.848  1.00  0.00     0.052 A 
ATOM     11  C   UNL     1      25.479  20.076  -8.971  1.00  0.00     0.079 C 
ATOM     12  C   UNL     1      22.672  17.163 -10.322  1.00  0.00     0.027 A 
ATOM     13  C   UNL     1      24.701  18.390 -10.681  1.00  0.00     0.046 A 
ATOM     14  C   UNL     1      25.704  19.389 -10.252  1.00  0.00     0.190 C 
ATOM     15  C   UNL     1      22.848  16.519 -11.554  1.00  0.00     0.002 A 
ATOM     16  C   UNL     1      24.880  17.747 -11.915  1.00  0.00     0.014 A 
ATOM     17  O   UNL     1      26.692  19.654 -10.929  1.00  0.00    -0.289 OA
ATOM     18  C   UNL     1      23.950  16.809 -12.350  1.00  0.00     0.001 A 
ATOM     19  C   UNL     1      22.302  18.425  -7.776  1.00  0.00     0.150 C 
ENDBRANCH   3   8
BRANCH   7  20
ATOM     20  N   UNL     1      21.634  22.445  -5.199  1.00  0.00    -0.396 N 
ATOM     21  H   UNL     1      20.968  21.762  -4.859  1.00  0.00     0.156 HD
ATOM     22  H   UNL     1      21.280  22.990  -5.984  1.00  0.00     0.156 HD
ENDBRANCH   7  20
ENDBRANCH   1   2
BRANCH   1  23
ATOM     23  C   UNL     1      23.746  24.029  -3.462  1.00  0.00     0.231 C 
BRANCH  23  24
ATOM     24  C   UNL     1      25.116  24.509  -3.944  1.00  0.00     0.057 C 
BRANCH  24  25
ATOM     25  C   UNL     1      24.993  25.607  -5.009  1.00  0.00     0.088 C 
BRANCH  25  26
ATOM     26  N   UNL     1      25.602  25.218  -6.292  1.00  0.00    -0.303 NA
ATOM     27  C   UNL     1      24.614  24.698  -7.254  1.00  0.00     0.084 C 
ATOM     28  C   UNL     1      26.710  24.281  -6.094  1.00  0.00     0.084 C 
ATOM     29  C   UNL     1      25.193  23.724  -8.290  1.00  0.00     0.016 C 
ATOM     30  C   UNL     1      27.508  24.114  -7.392  1.00  0.00     0.016 C 
ATOM     31  C   UNL     1      26.628  24.081  -8.643  1.00  0.00     0.003 C 
ENDBRANCH  25  26
ENDBRANCH  24  25
ENDBRANCH  23  24
ENDBRANCH   1  23
TORSDOF 7
ENDMDL
