MODEL 1
REMARK VINA RESULT:      -6.1      0.000      0.000
REMARK SMILES CCCCCc1cc(/C=C2\N=CC(c3ccc[nH]3)=C2OC)[nH]c1C
REMARK SMILES IDX 5 1 4 2 3 3 2 4 1 5 6 6 7 7 23 8 8 9 22 10 24 11 9 13 10 14
REMARK SMILES IDX 11 15 19 16 12 17 13 18 20 19 21 20 14 21 15 22 18 23 16 24
REMARK SMILES IDX 17 25
REMARK H PARENT 22 12 18 26
ROOT
ATOM      1  C   UNL     1      30.606  28.665 -13.044  1.00  0.00     0.037 C 
ENDROOT
BRANCH   1   2
ATOM      2  C   UNL     1      30.373  29.398 -11.719  1.00  0.00     0.005 C 
BRANCH   2   3
ATOM      3  C   UNL     1      30.050  28.504 -10.515  1.00  0.00     0.000 C 
BRANCH   3   4
ATOM      4  C   UNL     1      28.566  28.155 -10.396  1.00  0.00    -0.003 C 
ATOM      5  C   UNL     1      28.322  26.676 -10.658  1.00  0.00     0.004 C 
ENDBRANCH   3   4
ENDBRANCH   2   3
ENDBRANCH   1   2
BRANCH   1   6
ATOM      6  C   UNL     1      31.569  27.524 -12.943  1.00  0.00    -0.027 A 
ATOM      7  C   UNL     1      31.227  26.142 -12.922  1.00  0.00     0.031 A 
ATOM      8  C   UNL     1      32.950  27.590 -12.862  1.00  0.00     0.015 A 
ATOM      9  C   UNL     1      32.387  25.400 -12.820  1.00  0.00     0.041 A 
ATOM     10  N   UNL     1      33.425  26.301 -12.788  1.00  0.00    -0.359 N 
ATOM     11  C   UNL     1      33.867  28.758 -12.852  1.00  0.00     0.064 C 
ATOM     12  H   UNL     1      34.402  26.056 -12.713  1.00  0.00     0.166 HD
BRANCH   9  13
ATOM     13  C   UNL     1      32.704  24.017 -12.753  1.00  0.00     0.058 C 
ATOM     14  C   UNL     1      33.252  23.314 -13.757  1.00  0.00     0.108 C 
ATOM     15  N   UNL     1      33.576  23.774 -15.018  1.00  0.00    -0.252 NA
ATOM     16  C   UNL     1      33.584  21.899 -13.716  1.00  0.00     0.155 C 
ATOM     17  C   UNL     1      33.990  22.726 -15.662  1.00  0.00     0.126 C 
ATOM     18  C   UNL     1      34.005  21.470 -14.910  1.00  0.00     0.061 C 
BRANCH  16  19
ATOM     19  O   UNL     1      33.398  21.148 -12.581  1.00  0.00    -0.494 OA
ATOM     20  C   UNL     1      32.027  20.756 -12.466  1.00  0.00     0.278 C 
ENDBRANCH  16  19
BRANCH  18  21
ATOM     21  C   UNL     1      34.385  20.194 -15.347  1.00  0.00     0.051 A 
ATOM     22  C   UNL     1      34.322  19.549 -16.567  1.00  0.00     0.028 A 
ATOM     23  N   UNL     1      34.926  19.300 -14.449  1.00  0.00    -0.361 N 
ATOM     24  C   UNL     1      34.856  18.246 -16.401  1.00  0.00     0.020 A 
ATOM     25  C   UNL     1      35.220  18.121 -15.081  1.00  0.00     0.083 A 
ATOM     26  H   UNL     1      35.073  19.490 -13.463  1.00  0.00     0.166 HD
ENDBRANCH  18  21
ENDBRANCH   9  13
ENDBRANCH   1   6
TORSDOF 7
ENDMDL
MODEL 2
REMARK VINA RESULT:      -5.8      7.750     11.922
REMARK SMILES CCCCCc1cc(/C=C2\N=CC(c3ccc[nH]3)=C2OC)[nH]c1C
REMARK SMILES IDX 5 1 4 2 3 3 2 4 1 5 6 6 7 7 23 8 8 9 22 10 24 11 9 13 10 14
REMARK SMILES IDX 11 15 19 16 12 17 13 18 20 19 21 20 14 21 15 22 18 23 16 24
REMARK SMILES IDX 17 25
REMARK H PARENT 22 12 18 26
ROOT
ATOM      1  C   UNL     1      24.648  17.113 -12.033  1.00  0.00     0.037 C 
ENDROOT
BRANCH   1   2
ATOM      2  C   UNL     1      23.123  16.995 -11.944  1.00  0.00     0.005 C 
BRANCH   2   3
ATOM      3  C   UNL     1      22.577  16.452 -10.618  1.00  0.00     0.000 C 
BRANCH   3   4
ATOM      4  C   UNL     1      22.046  17.543  -9.686  1.00  0.00    -0.003 C 
ATOM      5  C   UNL     1      21.699  16.980  -8.315  1.00  0.00     0.004 C 
ENDBRANCH   3   4
ENDBRANCH   2   3
ENDBRANCH   1   2
BRANCH   1   6
ATOM      6  C   UNL     1      25.213  18.256 -11.250  1.00  0.00    -0.027 A 
ATOM      7  C   UNL     1      24.742  18.718  -9.988  1.00  0.00     0.031 A 
ATOM      8  C   UNL     1      26.287  19.062 -11.588  1.00  0.00     0.015 A 
ATOM      9  C   UNL     1      25.518  19.788  -9.590  1.00  0.00     0.041 A 
ATOM     10  N   UNL     1      26.455  19.979 -10.578  1.00  0.00    -0.359 N 
ATOM     11  C   UNL     1      27.176  19.045 -12.779  1.00  0.00     0.064 C 
ATOM     12  H   UNL     1      27.166  20.696 -10.570  1.00  0.00     0.166 HD
BRANCH   9  13
ATOM     13  C   UNL     1      25.550  20.655  -8.466  1.00  0.00     0.058 C 
ATOM     14  C   UNL     1      25.661  21.991  -8.540  1.00  0.00     0.108 C 
ATOM     15  N   UNL     1      25.791  22.755  -9.682  1.00  0.00    -0.252 NA
ATOM     16  C   UNL     1      25.698  22.901  -7.406  1.00  0.00     0.155 C 
ATOM     17  C   UNL     1      25.953  23.971  -9.258  1.00  0.00     0.126 C 
ATOM     18  C   UNL     1      25.933  24.155  -7.805  1.00  0.00     0.061 C 
BRANCH  16  19
ATOM     19  O   UNL     1      25.571  22.450  -6.116  1.00  0.00    -0.494 OA
ATOM     20  C   UNL     1      24.207  22.534  -5.693  1.00  0.00     0.278 C 
ENDBRANCH  16  19
BRANCH  18  21
ATOM     21  C   UNL     1      26.094  25.339  -7.072  1.00  0.00     0.051 A 
ATOM     22  C   UNL     1      25.884  26.674  -7.363  1.00  0.00     0.028 A 
ATOM     23  N   UNL     1      26.583  25.281  -5.786  1.00  0.00    -0.361 N 
ATOM     24  C   UNL     1      26.234  27.430  -6.217  1.00  0.00     0.020 A 
ATOM     25  C   UNL     1      26.663  26.542  -5.258  1.00  0.00     0.083 A 
ATOM     26  H   UNL     1      26.850  24.427  -5.308  1.00  0.00     0.166 HD
ENDBRANCH  18  21
ENDBRANCH   9  13
ENDBRANCH   1   6
TORSDOF 7
ENDMDL
MODEL 3
REMARK VINA RESULT:      -5.8      1.159      1.675
REMARK SMILES CCCCCc1cc(/C=C2\N=CC(c3ccc[nH]3)=C2OC)[nH]c1C
REMARK SMILES IDX 5 1 4 2 3 3 2 4 1 5 6 6 7 7 23 8 8 9 22 10 24 11 9 13 10 14
REMARK SMILES IDX 11 15 19 16 12 17 13 18 20 19 21 20 14 21 15 22 18 23 16 24
REMARK SMILES IDX 17 25
REMARK H PARENT 22 12 18 26
ROOT
ATOM      1  C   UNL     1      29.172  27.777 -12.340  1.00  0.00     0.037 C 
ENDROOT
BRANCH   1   2
ATOM      2  C   UNL     1      29.115  28.414 -10.948  1.00  0.00     0.005 C 
BRANCH   2   3
ATOM      3  C   UNL     1      30.016  29.638 -10.743  1.00  0.00     0.000 C 
BRANCH   3   4
ATOM      4  C   UNL     1      31.071  29.441  -9.653  1.00  0.00    -0.003 C 
ATOM      5  C   UNL     1      32.452  29.219 -10.253  1.00  0.00     0.004 C 
ENDBRANCH   3   4
ENDBRANCH   2   3
ENDBRANCH   1   2
BRANCH   1   6
ATOM      6  C   UNL     1      30.376  26.916 -12.562  1.00  0.00    -0.027 A 
ATOM      7  C   UNL     1      30.522  25.561 -12.149  1.00  0.00     0.031 A 
ATOM      8  C   UNL     1      31.552  27.260 -13.209  1.00  0.00     0.015 A 
ATOM      9  C   UNL     1      31.769  25.113 -12.535  1.00  0.00     0.041 A 
ATOM     10  N   UNL     1      32.379  26.163 -13.181  1.00  0.00    -0.359 N 
ATOM     11  C   UNL     1      31.967  28.532 -13.855  1.00  0.00     0.064 C 
ATOM     12  H   UNL     1      33.308  26.138 -13.577  1.00  0.00     0.166 HD
BRANCH   9  13
ATOM     13  C   UNL     1      32.490  23.895 -12.418  1.00  0.00     0.058 C 
ATOM     14  C   UNL     1      33.124  23.287 -13.434  1.00  0.00     0.108 C 
ATOM     15  N   UNL     1      33.173  23.696 -14.752  1.00  0.00    -0.252 NA
ATOM     16  C   UNL     1      33.867  22.040 -13.342  1.00  0.00     0.155 C 
ATOM     17  C   UNL     1      33.817  22.757 -15.372  1.00  0.00     0.126 C 
ATOM     18  C   UNL     1      34.279  21.638 -14.548  1.00  0.00     0.061 C 
BRANCH  16  19
ATOM     19  O   UNL     1      34.023  21.381 -12.148  1.00  0.00    -0.494 OA
ATOM     20  C   UNL     1      32.983  20.415 -11.974  1.00  0.00     0.278 C 
ENDBRANCH  16  19
BRANCH  18  21
ATOM     21  C   UNL     1      34.980  20.490 -14.946  1.00  0.00     0.051 A 
ATOM     22  C   UNL     1      36.322  20.203 -15.102  1.00  0.00     0.028 A 
ATOM     23  N   UNL     1      34.282  19.358 -15.303  1.00  0.00    -0.361 N 
ATOM     24  C   UNL     1      36.433  18.860 -15.543  1.00  0.00     0.020 A 
ATOM     25  C   UNL     1      35.155  18.363 -15.658  1.00  0.00     0.083 A 
ATOM     26  H   UNL     1      33.271  19.280 -15.308  1.00  0.00     0.166 HD
ENDBRANCH  18  21
ENDBRANCH   9  13
ENDBRANCH   1   6
TORSDOF 7
ENDMDL
