MODEL 1
REMARK VINA RESULT:      -8.1      0.000      0.000
REMARK SMILES Cc1c2cc[n+](C)cc2c(C)c2c1[nH]c1ccc(O)cc12
REMARK SMILES IDX 1 1 2 2 3 3 4 4 5 5 6 6 7 7 8 8 9 9 10 10 11 11 12 12 13 13
REMARK SMILES IDX 14 14 15 15 16 16 17 17 18 18 20 19 21 20 19 22
REMARK H PARENT 14 21 19 23
ROOT
ATOM      1  C   UNL     1      26.460  21.172  -6.835  1.00  0.00     0.047 C 
ATOM      2  C   UNL     1      25.171  20.406  -7.009  1.00  0.00    -0.019 A 
ATOM      3  C   UNL     1      24.153  20.429  -6.018  1.00  0.00    -0.001 A 
ATOM      4  C   UNL     1      24.297  21.191  -4.844  1.00  0.00     0.080 A 
ATOM      5  C   UNL     1      23.298  21.223  -3.884  1.00  0.00     0.308 A 
ATOM      6  N   UNL     1      22.167  20.522  -4.065  1.00  0.00    -0.207 N 
ATOM      7  C   UNL     1      21.097  20.570  -3.053  1.00  0.00     0.439 C 
ATOM      8  C   UNL     1      21.988  19.778  -5.176  1.00  0.00     0.316 A 
ATOM      9  C   UNL     1      22.961  19.684  -6.189  1.00  0.00     0.050 A 
ATOM     10  C   UNL     1      22.768  18.875  -7.358  1.00  0.00    -0.027 A 
ATOM     11  C   UNL     1      21.535  18.012  -7.497  1.00  0.00     0.046 C 
ATOM     12  C   UNL     1      23.746  18.924  -8.392  1.00  0.00     0.011 A 
ATOM     13  C   UNL     1      24.911  19.660  -8.176  1.00  0.00     0.050 A 
ATOM     14  N   UNL     1      25.702  19.494  -9.294  1.00  0.00    -0.354 N 
ATOM     15  C   UNL     1      25.080  18.732 -10.245  1.00  0.00     0.047 A 
ATOM     16  C   UNL     1      25.530  18.357 -11.517  1.00  0.00     0.030 A 
ATOM     17  C   UNL     1      24.678  17.583 -12.303  1.00  0.00     0.048 A 
ATOM     18  C   UNL     1      23.430  17.212 -11.827  1.00  0.00     0.116 A 
ATOM     19  C   UNL     1      22.991  17.590 -10.554  1.00  0.00     0.057 A 
ATOM     20  C   UNL     1      23.841  18.363  -9.726  1.00  0.00     0.011 A 
ATOM     21  H   UNL     1      26.616  19.901  -9.420  1.00  0.00     0.167 HD
ENDROOT
BRANCH  18  22
ATOM     22  O   UNL     1      22.642  16.466 -12.653  1.00  0.00    -0.508 OA
ATOM     23  H   UNL     1      21.906  17.011 -12.975  1.00  0.00     0.293 HD
ENDBRANCH  18  22
TORSDOF 1
ENDMDL
MODEL 2
REMARK VINA RESULT:      -8.0      1.781      3.174
REMARK SMILES Cc1c2cc[n+](C)cc2c(C)c2c1[nH]c1ccc(O)cc12
REMARK SMILES IDX 1 1 2 2 3 3 4 4 5 5 6 6 7 7 8 8 9 9 10 10 11 11 12 12 13 13
REMARK SMILES IDX 14 14 15 15 16 16 17 17 18 18 20 19 21 20 19 22
REMARK H PARENT 14 21 19 23
ROOT
ATOM      1  C   UNL     1      21.285  17.463  -7.963  1.00  0.00     0.047 C 
ATOM      2  C   UNL     1      22.464  18.404  -7.912  1.00  0.00    -0.019 A 
ATOM      3  C   UNL     1      22.695  19.245  -6.790  1.00  0.00    -0.001 A 
ATOM      4  C   UNL     1      21.846  19.213  -5.669  1.00  0.00     0.080 A 
ATOM      5  C   UNL     1      22.080  20.024  -4.570  1.00  0.00     0.308 A 
ATOM      6  N   UNL     1      23.133  20.858  -4.560  1.00  0.00    -0.207 N 
ATOM      7  C   UNL     1      23.392  21.708  -3.385  1.00  0.00     0.439 C 
ATOM      8  C   UNL     1      23.972  20.921  -5.615  1.00  0.00     0.316 A 
ATOM      9  C   UNL     1      23.793  20.139  -6.772  1.00  0.00     0.050 A 
ATOM     10  C   UNL     1      24.680  20.228  -7.896  1.00  0.00    -0.027 A 
ATOM     11  C   UNL     1      25.798  21.246  -7.911  1.00  0.00     0.046 C 
ATOM     12  C   UNL     1      24.503  19.321  -8.980  1.00  0.00     0.011 A 
ATOM     13  C   UNL     1      23.400  18.467  -8.963  1.00  0.00     0.050 A 
ATOM     14  N   UNL     1      23.434  17.747 -10.139  1.00  0.00    -0.354 N 
ATOM     15  C   UNL     1      24.535  18.057 -10.890  1.00  0.00     0.047 A 
ATOM     16  C   UNL     1      24.945  17.535 -12.124  1.00  0.00     0.030 A 
ATOM     17  C   UNL     1      26.134  18.017 -12.667  1.00  0.00     0.048 A 
ATOM     18  C   UNL     1      26.875  18.975 -11.993  1.00  0.00     0.116 A 
ATOM     19  C   UNL     1      26.456  19.490 -10.762  1.00  0.00     0.057 A 
ATOM     20  C   UNL     1      25.243  19.032 -10.193  1.00  0.00     0.011 A 
ATOM     21  H   UNL     1      22.752  17.055 -10.413  1.00  0.00     0.167 HD
ENDROOT
BRANCH  18  22
ATOM     22  O   UNL     1      28.036  19.392 -12.576  1.00  0.00    -0.508 OA
ATOM     23  H   UNL     1      28.505  18.626 -12.943  1.00  0.00     0.293 HD
ENDBRANCH  18  22
TORSDOF 1
ENDMDL
MODEL 3
REMARK VINA RESULT:      -7.3      2.409      4.301
REMARK SMILES Cc1c2cc[n+](C)cc2c(C)c2c1[nH]c1ccc(O)cc12
REMARK SMILES IDX 1 1 2 2 3 3 4 4 5 5 6 6 7 7 8 8 9 9 10 10 11 11 12 12 13 13
REMARK SMILES IDX 14 14 15 15 16 16 17 17 18 18 20 19 21 20 19 22
REMARK H PARENT 14 21 19 23
ROOT
ATOM      1  C   UNL     1      22.081  16.012 -10.785  1.00  0.00     0.047 C 
ATOM      2  C   UNL     1      22.938  17.127 -10.238  1.00  0.00    -0.019 A 
ATOM      3  C   UNL     1      22.670  17.718  -8.974  1.00  0.00    -0.001 A 
ATOM      4  C   UNL     1      21.608  17.268  -8.170  1.00  0.00     0.080 A 
ATOM      5  C   UNL     1      21.355  17.836  -6.932  1.00  0.00     0.308 A 
ATOM      6  N   UNL     1      22.130  18.834  -6.477  1.00  0.00    -0.207 N 
ATOM      7  C   UNL     1      21.872  19.427  -5.154  1.00  0.00     0.439 C 
ATOM      8  C   UNL     1      23.160  19.297  -7.217  1.00  0.00     0.316 A 
ATOM      9  C   UNL     1      23.471  18.781  -8.489  1.00  0.00     0.050 A 
ATOM     10  C   UNL     1      24.556  19.294  -9.274  1.00  0.00    -0.027 A 
ATOM     11  C   UNL     1      25.353  20.485  -8.794  1.00  0.00     0.046 C 
ATOM     12  C   UNL     1      24.882  18.642 -10.498  1.00  0.00     0.011 A 
ATOM     13  C   UNL     1      24.058  17.609 -10.945  1.00  0.00     0.050 A 
ATOM     14  N   UNL     1      24.557  17.197 -12.163  1.00  0.00    -0.354 N 
ATOM     15  C   UNL     1      25.696  17.878 -12.498  1.00  0.00     0.047 A 
ATOM     16  C   UNL     1      26.513  17.741 -13.628  1.00  0.00     0.030 A 
ATOM     17  C   UNL     1      27.641  18.555 -13.714  1.00  0.00     0.048 A 
ATOM     18  C   UNL     1      27.930  19.460 -12.704  1.00  0.00     0.116 A 
ATOM     19  C   UNL     1      27.107  19.589 -11.581  1.00  0.00     0.057 A 
ATOM     20  C   UNL     1      25.945  18.787 -11.473  1.00  0.00     0.011 A 
ATOM     21  H   UNL     1      24.159  16.467 -12.734  1.00  0.00     0.167 HD
ENDROOT
BRANCH  18  22
ATOM     22  O   UNL     1      29.057  20.216 -12.846  1.00  0.00    -0.508 OA
ATOM     23  H   UNL     1      29.733  19.907 -12.222  1.00  0.00     0.293 HD
ENDBRANCH  18  22
TORSDOF 1
ENDMDL
