MODEL 1
REMARK VINA RESULT:      -7.6      0.000      0.000
REMARK SMILES O=C(/C=C/C=C/c1ccc2c(c1)OCO2)N1CCCCC1
REMARK SMILES IDX 3 1 4 2 2 3 1 4 16 5 17 6 21 7 18 8 20 9 19 10 5 11 6 12
REMARK SMILES IDX 7 13 8 14 12 15 9 16 11 17 10 18 13 19 15 20 14 21
REMARK H PARENT
ROOT
ATOM      1  C   UNL     1      26.035  22.240  -6.763  1.00  0.00     0.071 C 
ATOM      2  C   UNL     1      25.823  20.933  -6.547  1.00  0.00     0.006 C 
ENDROOT
BRANCH   1   3
ATOM      3  C   UNL     1      25.960  23.211  -5.646  1.00  0.00     0.246 C 
ATOM      4  O   UNL     1      25.838  22.770  -4.506  1.00  0.00    -0.270 OA
ATOM      5  N   UNL     1      26.029  24.565  -5.954  1.00  0.00    -0.339 N 
ATOM      6  C   UNL     1      25.967  25.492  -4.826  1.00  0.00     0.120 C 
ATOM      7  C   UNL     1      25.554  25.106  -7.232  1.00  0.00     0.120 C 
ATOM      8  C   UNL     1      26.646  26.821  -5.138  1.00  0.00     0.022 C 
ATOM      9  C   UNL     1      26.234  26.426  -7.578  1.00  0.00     0.022 C 
ATOM     10  C   UNL     1      26.113  27.427  -6.433  1.00  0.00     0.004 C 
ENDBRANCH   1   3
BRANCH   2  11
ATOM     11  C   UNL     1      25.819  19.953  -7.610  1.00  0.00     0.001 C 
ATOM     12  C   UNL     1      25.263  20.189  -8.809  1.00  0.00     0.008 C 
BRANCH  12  13
ATOM     13  C   UNL     1      25.238  19.210  -9.905  1.00  0.00    -0.022 A 
ATOM     14  C   UNL     1      24.120  18.376 -10.135  1.00  0.00     0.012 A 
ATOM     15  C   UNL     1      26.380  19.069 -10.707  1.00  0.00     0.058 A 
ATOM     16  C   UNL     1      24.124  17.430 -11.166  1.00  0.00     0.051 A 
ATOM     17  C   UNL     1      26.356  18.129 -11.716  1.00  0.00     0.166 A 
ATOM     18  C   UNL     1      25.258  17.332 -11.941  1.00  0.00     0.165 A 
ATOM     19  O   UNL     1      27.369  17.870 -12.586  1.00  0.00    -0.454 OA
ATOM     20  O   UNL     1      25.441  16.474 -12.979  1.00  0.00    -0.454 OA
ATOM     21  C   UNL     1      26.782  16.821 -13.383  1.00  0.00     0.468 C 
ENDBRANCH  12  13
ENDBRANCH   2  11
TORSDOF 3
ENDMDL
MODEL 2
REMARK VINA RESULT:      -7.0      1.113      1.182
REMARK SMILES O=C(/C=C/C=C/c1ccc2c(c1)OCO2)N1CCCCC1
REMARK SMILES IDX 3 1 4 2 2 3 1 4 16 5 17 6 21 7 18 8 20 9 19 10 5 11 6 12
REMARK SMILES IDX 7 13 8 14 12 15 9 16 11 17 10 18 13 19 15 20 14 21
REMARK H PARENT
ROOT
ATOM      1  C   UNL     1      25.531  22.307  -6.867  1.00  0.00     0.071 C 
ATOM      2  C   UNL     1      25.774  21.002  -6.678  1.00  0.00     0.006 C 
ENDROOT
BRANCH   1   3
ATOM      3  C   UNL     1      25.381  23.222  -5.711  1.00  0.00     0.246 C 
ATOM      4  O   UNL     1      25.854  22.870  -4.632  1.00  0.00    -0.270 OA
ATOM      5  N   UNL     1      24.712  24.424  -5.913  1.00  0.00    -0.339 N 
ATOM      6  C   UNL     1      24.597  25.306  -4.753  1.00  0.00     0.120 C 
ATOM      7  C   UNL     1      23.656  24.576  -6.919  1.00  0.00     0.120 C 
ATOM      8  C   UNL     1      24.441  26.768  -5.159  1.00  0.00     0.022 C 
ATOM      9  C   UNL     1      23.494  26.028  -7.357  1.00  0.00     0.022 C 
ATOM     10  C   UNL     1      23.302  26.950  -6.157  1.00  0.00     0.004 C 
ENDBRANCH   1   3
BRANCH   2  11
ATOM     11  C   UNL     1      25.863  20.055  -7.767  1.00  0.00     0.001 C 
ATOM     12  C   UNL     1      25.031  20.084  -8.820  1.00  0.00     0.008 C 
BRANCH  12  13
ATOM     13  C   UNL     1      25.093  19.131  -9.938  1.00  0.00    -0.022 A 
ATOM     14  C   UNL     1      24.031  18.241 -10.220  1.00  0.00     0.012 A 
ATOM     15  C   UNL     1      26.265  19.072 -10.707  1.00  0.00     0.058 A 
ATOM     16  C   UNL     1      24.119  17.321 -11.271  1.00  0.00     0.051 A 
ATOM     17  C   UNL     1      26.323  18.156 -11.737  1.00  0.00     0.166 A 
ATOM     18  C   UNL     1      25.279  17.305 -12.012  1.00  0.00     0.165 A 
ATOM     19  O   UNL     1      27.375  17.975 -12.580  1.00  0.00    -0.454 OA
ATOM     20  O   UNL     1      25.541  16.483 -13.063  1.00  0.00    -0.454 OA
ATOM     21  C   UNL     1      26.872  16.913 -13.418  1.00  0.00     0.468 C 
ENDBRANCH  12  13
ENDBRANCH   2  11
TORSDOF 3
ENDMDL
MODEL 3
REMARK VINA RESULT:      -6.8      1.164      1.925
REMARK SMILES O=C(/C=C/C=C/c1ccc2c(c1)OCO2)N1CCCCC1
REMARK SMILES IDX 3 1 4 2 2 3 1 4 16 5 17 6 21 7 18 8 20 9 19 10 5 11 6 12
REMARK SMILES IDX 7 13 8 14 12 15 9 16 11 17 10 18 13 19 15 20 14 21
REMARK H PARENT
ROOT
ATOM      1  C   UNL     1      25.339  22.091  -5.976  1.00  0.00     0.071 C 
ATOM      2  C   UNL     1      26.232  21.130  -6.256  1.00  0.00     0.006 C 
ENDROOT
BRANCH   1   3
ATOM      3  C   UNL     1      25.577  23.037  -4.860  1.00  0.00     0.246 C 
ATOM      4  O   UNL     1      25.534  22.600  -3.713  1.00  0.00    -0.270 OA
ATOM      5  N   UNL     1      25.831  24.367  -5.177  1.00  0.00    -0.339 N 
ATOM      6  C   UNL     1      26.075  25.267  -4.052  1.00  0.00     0.120 C 
ATOM      7  C   UNL     1      25.290  25.006  -6.381  1.00  0.00     0.120 C 
ATOM      8  C   UNL     1      26.921  26.471  -4.455  1.00  0.00     0.022 C 
ATOM      9  C   UNL     1      26.131  26.202  -6.817  1.00  0.00     0.022 C 
ATOM     10  C   UNL     1      26.331  27.184  -5.668  1.00  0.00     0.004 C 
ENDBRANCH   1   3
BRANCH   2  11
ATOM     11  C   UNL     1      26.020  20.141  -7.290  1.00  0.00     0.001 C 
ATOM     12  C   UNL     1      25.428  20.432  -8.459  1.00  0.00     0.008 C 
BRANCH  12  13
ATOM     13  C   UNL     1      25.192  19.447  -9.524  1.00  0.00    -0.022 A 
ATOM     14  C   UNL     1      26.143  19.208 -10.543  1.00  0.00     0.012 A 
ATOM     15  C   UNL     1      23.965  18.769  -9.554  1.00  0.00     0.058 A 
ATOM     16  C   UNL     1      25.891  18.287 -11.565  1.00  0.00     0.051 A 
ATOM     17  C   UNL     1      23.744  17.865 -10.573  1.00  0.00     0.166 A 
ATOM     18  C   UNL     1      24.681  17.630 -11.551  1.00  0.00     0.165 A 
ATOM     19  O   UNL     1      22.619  17.121 -10.745  1.00  0.00    -0.454 OA
ATOM     20  O   UNL     1      24.266  16.708 -12.459  1.00  0.00    -0.454 OA
ATOM     21  C   UNL     1      22.957  16.390 -11.942  1.00  0.00     0.468 C 
ENDBRANCH  12  13
ENDBRANCH   2  11
TORSDOF 3
ENDMDL
