MODEL 1
REMARK VINA RESULT:      -7.1      0.000      0.000
REMARK SMILES CSc1ccc(/C=C/c2ccc3nc4c(oc5ccccc54)c(NCCN4CCN(C)CC4)c3c2)cc1
REMARK SMILES IDX 9 1 10 2 11 3 12 4 13 5 14 6 15 7 16 8 17 9 18 10 19 11
REMARK SMILES IDX 20 12 21 13 22 14 23 15 34 16 35 17 8 18 7 19 6 20 3 21 4 22
REMARK SMILES IDX 37 23 5 24 36 25 2 26 1 27 24 28 25 30 26 31 27 32 28 33
REMARK SMILES IDX 33 34 29 35 32 36 30 37 31 38
REMARK H PARENT 24 29
ROOT
ATOM      1  C   UNL     1      22.383  10.947 -24.317  1.00  0.00    -0.025 A 
ATOM      2  C   UNL     1      22.176   9.688 -24.877  1.00  0.00     0.010 A 
ATOM      3  C   UNL     1      21.133   8.878 -24.422  1.00  0.00     0.029 A 
ATOM      4  C   UNL     1      20.286   9.270 -23.397  1.00  0.00     0.073 A 
ATOM      5  N   UNL     1      19.292   8.427 -23.093  1.00  0.00    -0.244 NA
ATOM      6  C   UNL     1      18.439   8.847 -22.134  1.00  0.00     0.119 A 
ATOM      7  C   UNL     1      18.614  10.033 -21.445  1.00  0.00     0.177 A 
ATOM      8  O   UNL     1      17.617  10.201 -20.527  1.00  0.00    -0.452 OA
ATOM      9  C   UNL     1      16.791   9.125 -20.644  1.00  0.00     0.137 A 
ATOM     10  C   UNL     1      15.632   8.914 -19.900  1.00  0.00     0.048 A 
ATOM     11  C   UNL     1      14.919   7.743 -20.175  1.00  0.00     0.004 A 
ATOM     12  C   UNL     1      15.358   6.838 -21.145  1.00  0.00     0.001 A 
ATOM     13  C   UNL     1      16.530   7.075 -21.877  1.00  0.00     0.014 A 
ATOM     14  C   UNL     1      17.259   8.250 -21.620  1.00  0.00     0.047 A 
ATOM     15  C   UNL     1      19.684  10.902 -21.674  1.00  0.00     0.089 A 
ATOM     16  C   UNL     1      20.520  10.520 -22.758  1.00  0.00     0.028 A 
ATOM     17  C   UNL     1      21.558  11.345 -23.258  1.00  0.00     0.020 A 
ENDROOT
BRANCH   1  18
ATOM     18  C   UNL     1      23.452  11.842 -24.776  1.00  0.00     0.009 C 
ATOM     19  C   UNL     1      23.216  13.005 -25.402  1.00  0.00     0.009 C 
BRANCH  19  20
ATOM     20  C   UNL     1      24.281  13.900 -25.863  1.00  0.00    -0.026 A 
ATOM     21  C   UNL     1      26.413  15.517 -26.727  1.00  0.00     0.007 A 
ATOM     22  C   UNL     1      26.385  15.032 -25.419  1.00  0.00     0.015 A 
ATOM     23  C   UNL     1      25.375  15.189 -27.605  1.00  0.00     0.015 A 
ATOM     24  C   UNL     1      25.327  14.224 -24.991  1.00  0.00     0.009 A 
ATOM     25  C   UNL     1      24.312  14.388 -27.175  1.00  0.00     0.009 A 
BRANCH  21  26
ATOM     26  S   UNL     1      27.803  16.494 -27.262  1.00  0.00    -0.130 SA
ATOM     27  C   UNL     1      26.952  18.048 -27.635  1.00  0.00     0.091 C 
ENDBRANCH  21  26
ENDBRANCH  19  20
ENDBRANCH   1  18
BRANCH  15  28
ATOM     28  N   UNL     1      19.850  12.063 -20.888  1.00  0.00    -0.380 N 
ATOM     29  H   UNL     1      20.795  12.417 -21.089  1.00  0.00     0.160 HD
BRANCH  28  30
ATOM     30  C   UNL     1      18.924  13.175 -21.200  1.00  0.00     0.128 C 
BRANCH  30  31
ATOM     31  C   UNL     1      18.887  13.507 -22.713  1.00  0.00     0.105 C 
BRANCH  31  32
ATOM     32  N   UNL     1      17.560  13.300 -23.323  1.00  0.00    -0.299 NA
ATOM     33  C   UNL     1      16.508  13.021 -22.323  1.00  0.00     0.100 C 
ATOM     34  C   UNL     1      17.585  12.250 -24.353  1.00  0.00     0.100 C 
ATOM     35  C   UNL     1      15.316  12.183 -22.861  1.00  0.00     0.099 C 
ATOM     36  C   UNL     1      16.229  12.163 -25.108  1.00  0.00     0.099 C 
ATOM     37  N   UNL     1      15.004  12.367 -24.289  1.00  0.00    -0.304 NA
ATOM     38  C   UNL     1      14.440  13.699 -24.531  1.00  0.00     0.105 C 
ENDBRANCH  31  32
ENDBRANCH  30  31
ENDBRANCH  28  30
ENDBRANCH  15  28
TORSDOF 7
ENDMDL
MODEL 2
REMARK VINA RESULT:      -7.0      2.493      4.871
REMARK SMILES CSc1ccc(/C=C/c2ccc3nc4c(oc5ccccc54)c(NCCN4CCN(C)CC4)c3c2)cc1
REMARK SMILES IDX 9 1 10 2 11 3 12 4 13 5 14 6 15 7 16 8 17 9 18 10 19 11
REMARK SMILES IDX 20 12 21 13 22 14 23 15 34 16 35 17 8 18 7 19 6 20 3 21 4 22
REMARK SMILES IDX 37 23 5 24 36 25 2 26 1 27 24 28 25 30 26 31 27 32 28 33
REMARK SMILES IDX 33 34 29 35 32 36 30 37 31 38
REMARK H PARENT 24 29
ROOT
ATOM      1  C   UNL     1      18.998  11.514 -21.610  1.00  0.00    -0.025 A 
ATOM      2  C   UNL     1      17.916  12.317 -21.259  1.00  0.00     0.010 A 
ATOM      3  C   UNL     1      16.745  11.741 -20.761  1.00  0.00     0.029 A 
ATOM      4  C   UNL     1      16.599  10.370 -20.617  1.00  0.00     0.073 A 
ATOM      5  N   UNL     1      15.449   9.950 -20.076  1.00  0.00    -0.244 NA
ATOM      6  C   UNL     1      15.344   8.616 -19.887  1.00  0.00     0.119 A 
ATOM      7  C   UNL     1      16.318   7.724 -20.293  1.00  0.00     0.177 A 
ATOM      8  O   UNL     1      15.947   6.445 -19.990  1.00  0.00    -0.452 OA
ATOM      9  C   UNL     1      14.738   6.524 -19.370  1.00  0.00     0.137 A 
ATOM     10  C   UNL     1      14.013   5.440 -18.877  1.00  0.00     0.048 A 
ATOM     11  C   UNL     1      12.789   5.735 -18.269  1.00  0.00     0.004 A 
ATOM     12  C   UNL     1      12.326   7.050 -18.169  1.00  0.00     0.001 A 
ATOM     13  C   UNL     1      13.076   8.120 -18.676  1.00  0.00     0.014 A 
ATOM     14  C   UNL     1      14.314   7.847 -19.287  1.00  0.00     0.047 A 
ATOM     15  C   UNL     1      17.496   8.115 -20.936  1.00  0.00     0.089 A 
ATOM     16  C   UNL     1      17.662   9.523 -21.037  1.00  0.00     0.028 A 
ATOM     17  C   UNL     1      18.857  10.125 -21.503  1.00  0.00     0.020 A 
ENDROOT
BRANCH   1  18
ATOM     18  C   UNL     1      20.257  12.076 -22.118  1.00  0.00     0.009 C 
ATOM     19  C   UNL     1      21.041  11.436 -22.999  1.00  0.00     0.009 C 
BRANCH  19  20
ATOM     20  C   UNL     1      22.298  11.994 -23.507  1.00  0.00    -0.026 A 
ATOM     21  C   UNL     1      24.707  12.970 -24.580  1.00  0.00     0.007 A 
ATOM     22  C   UNL     1      24.635  11.666 -24.087  1.00  0.00     0.015 A 
ATOM     23  C   UNL     1      23.571  13.784 -24.539  1.00  0.00     0.015 A 
ATOM     24  C   UNL     1      23.436  11.180 -23.557  1.00  0.00     0.009 A 
ATOM     25  C   UNL     1      22.373  13.301 -24.002  1.00  0.00     0.009 A 
BRANCH  21  26
ATOM     26  S   UNL     1      26.231  13.543 -25.303  1.00  0.00    -0.130 SA
ATOM     27  C   UNL     1      25.757  15.246 -25.691  1.00  0.00     0.091 C 
ENDBRANCH  21  26
ENDBRANCH  19  20
ENDBRANCH   1  18
BRANCH  15  28
ATOM     28  N   UNL     1      18.420   7.152 -21.394  1.00  0.00    -0.380 N 
ATOM     29  H   UNL     1      18.142   6.257 -20.968  1.00  0.00     0.160 HD
BRANCH  28  30
ATOM     30  C   UNL     1      18.421   6.922 -22.857  1.00  0.00     0.128 C 
BRANCH  30  31
ATOM     31  C   UNL     1      19.846   6.981 -23.463  1.00  0.00     0.105 C 
BRANCH  31  32
ATOM     32  N   UNL     1      19.893   7.651 -24.776  1.00  0.00    -0.299 NA
ATOM     33  C   UNL     1      21.243   8.145 -25.119  1.00  0.00     0.100 C 
ATOM     34  C   UNL     1      18.904   8.736 -24.876  1.00  0.00     0.100 C 
ATOM     35  C   UNL     1      21.256   9.362 -26.084  1.00  0.00     0.099 C 
ATOM     36  C   UNL     1      18.842   9.316 -26.317  1.00  0.00     0.099 C 
ATOM     37  N   UNL     1      20.136   9.426 -27.041  1.00  0.00    -0.304 NA
ATOM     38  C   UNL     1      20.253   8.367 -28.049  1.00  0.00     0.105 C 
ENDBRANCH  31  32
ENDBRANCH  30  31
ENDBRANCH  28  30
ENDBRANCH  15  28
TORSDOF 7
ENDMDL
MODEL 3
REMARK VINA RESULT:      -7.0     17.362     19.550
REMARK SMILES CSc1ccc(/C=C/c2ccc3nc4c(oc5ccccc54)c(NCCN4CCN(C)CC4)c3c2)cc1
REMARK SMILES IDX 9 1 10 2 11 3 12 4 13 5 14 6 15 7 16 8 17 9 18 10 19 11
REMARK SMILES IDX 20 12 21 13 22 14 23 15 34 16 35 17 8 18 7 19 6 20 3 21 4 22
REMARK SMILES IDX 37 23 5 24 36 25 2 26 1 27 24 28 25 30 26 31 27 32 28 33
REMARK SMILES IDX 33 34 29 35 32 36 30 37 31 38
REMARK H PARENT 24 29
ROOT
ATOM      1  C   UNL     1      26.424  24.435  -8.228  1.00  0.00    -0.025 A 
ATOM      2  C   UNL     1      25.452  25.261  -7.668  1.00  0.00     0.010 A 
ATOM      3  C   UNL     1      24.457  24.723  -6.849  1.00  0.00     0.029 A 
ATOM      4  C   UNL     1      24.377  23.365  -6.578  1.00  0.00     0.073 A 
ATOM      5  N   UNL     1      23.412  22.985  -5.733  1.00  0.00    -0.244 NA
ATOM      6  C   UNL     1      23.382  21.669  -5.431  1.00  0.00     0.119 A 
ATOM      7  C   UNL     1      24.236  20.749  -6.010  1.00  0.00     0.177 A 
ATOM      8  O   UNL     1      23.978  19.495  -5.535  1.00  0.00    -0.452 OA
ATOM      9  C   UNL     1      22.965  19.619  -4.633  1.00  0.00     0.137 A 
ATOM     10  C   UNL     1      22.409  18.573  -3.898  1.00  0.00     0.048 A 
ATOM     11  C   UNL     1      21.376  18.911  -3.018  1.00  0.00     0.004 A 
ATOM     12  C   UNL     1      20.930  20.230  -2.895  1.00  0.00     0.001 A 
ATOM     13  C   UNL     1      21.507  21.261  -3.650  1.00  0.00     0.014 A 
ATOM     14  C   UNL     1      22.553  20.944  -4.537  1.00  0.00     0.047 A 
ATOM     15  C   UNL     1      25.205  21.093  -6.958  1.00  0.00     0.089 A 
ATOM     16  C   UNL     1      25.314  22.490  -7.195  1.00  0.00     0.028 A 
ATOM     17  C   UNL     1      26.339  23.057  -7.992  1.00  0.00     0.020 A 
ENDROOT
BRANCH   1  18
ATOM     18  C   UNL     1      27.501  24.958  -9.078  1.00  0.00     0.009 C 
ATOM     19  C   UNL     1      27.459  26.170  -9.650  1.00  0.00     0.009 C 
BRANCH  19  20
ATOM     20  C   UNL     1      28.532  26.695 -10.500  1.00  0.00    -0.026 A 
ATOM     21  C   UNL     1      30.525  27.654 -12.237  1.00  0.00     0.007 A 
ATOM     22  C   UNL     1      30.272  26.284 -12.146  1.00  0.00     0.015 A 
ATOM     23  C   UNL     1      29.777  28.544 -11.461  1.00  0.00     0.015 A 
ATOM     24  C   UNL     1      29.278  25.808 -11.284  1.00  0.00     0.009 A 
ATOM     25  C   UNL     1      28.788  28.068 -10.593  1.00  0.00     0.009 A 
BRANCH  21  26
ATOM     26  S   UNL     1      31.756  28.235 -13.385  1.00  0.00    -0.130 SA
ATOM     27  C   UNL     1      33.217  27.418 -12.697  1.00  0.00     0.091 C 
ENDBRANCH  21  26
ENDBRANCH  19  20
ENDBRANCH   1  18
BRANCH  15  28
ATOM     28  N   UNL     1      25.998  20.099  -7.568  1.00  0.00    -0.380 N 
ATOM     29  H   UNL     1      25.906  19.255  -6.986  1.00  0.00     0.160 HD
BRANCH  28  30
ATOM     30  C   UNL     1      25.576  19.700  -8.931  1.00  0.00     0.128 C 
BRANCH  30  31
ATOM     31  C   UNL     1      24.139  19.120  -8.957  1.00  0.00     0.105 C 
BRANCH  31  32
ATOM     32  N   UNL     1      23.777  18.523 -10.256  1.00  0.00    -0.299 NA
ATOM     33  C   UNL     1      22.778  17.440 -10.130  1.00  0.00     0.100 C 
ATOM     34  C   UNL     1      24.959  18.052 -10.995  1.00  0.00     0.100 C 
ATOM     35  C   UNL     1      22.836  16.377 -11.261  1.00  0.00     0.099 C 
ATOM     36  C   UNL     1      24.583  17.588 -12.430  1.00  0.00     0.099 C 
ATOM     37  N   UNL     1      23.288  16.871 -12.574  1.00  0.00    -0.304 NA
ATOM     38  C   UNL     1      22.279  17.750 -13.174  1.00  0.00     0.105 C 
ENDBRANCH  31  32
ENDBRANCH  30  31
ENDBRANCH  28  30
ENDBRANCH  15  28
TORSDOF 7
ENDMDL
