MODEL 1
REMARK VINA RESULT:      -8.1      0.000      0.000
REMARK SMILES c1ccc2c(NCc3cn(CCCN4CCCCC4)nn3)c3oc4ccccc4c3nc2c1
REMARK SMILES IDX 8 1 9 2 10 3 20 4 21 5 7 6 6 7 5 9 1 10 2 11 33 12 3 13
REMARK SMILES IDX 32 14 4 15 31 16 30 17 22 18 29 19 23 20 28 21 24 22 27 23
REMARK SMILES IDX 25 24 26 25 11 26 12 27 13 28 14 29 15 30 19 31 16 32 18 33
REMARK SMILES IDX 17 34
REMARK H PARENT 6 8
ROOT
ATOM      1  C   UNL     1      26.006  23.595  -8.745  1.00  0.00     0.102 A 
ATOM      2  C   UNL     1      26.342  24.015 -10.014  1.00  0.00     0.136 A 
ATOM      3  N   UNL     1      27.385  24.865  -9.809  1.00  0.00    -0.252 N 
ATOM      4  N   UNL     1      27.648  25.015  -8.502  1.00  0.00    -0.067 NA
ATOM      5  N   UNL     1      26.813  24.227  -7.836  1.00  0.00    -0.134 NA
ENDROOT
BRANCH   1   6
ATOM      6  C   UNL     1      24.987  22.593  -8.311  1.00  0.00     0.173 C 
BRANCH   6   7
ATOM      7  N   UNL     1      25.485  21.303  -7.783  1.00  0.00    -0.376 N 
ATOM      8  H   UNL     1      26.469  21.246  -8.070  1.00  0.00     0.161 HD
BRANCH   7   9
ATOM      9  C   UNL     1      24.836  20.180  -8.352  1.00  0.00     0.090 A 
ATOM     10  C   UNL     1      21.423  18.254  -6.750  1.00  0.00     0.002 A 
ATOM     11  C   UNL     1      22.022  19.276  -6.031  1.00  0.00     0.001 A 
ATOM     12  C   UNL     1      21.970  17.858  -7.974  1.00  0.00     0.029 A 
ATOM     13  C   UNL     1      23.151  19.908  -6.549  1.00  0.00     0.012 A 
ATOM     14  C   UNL     1      23.096  18.463  -8.511  1.00  0.00     0.073 A 
ATOM     15  C   UNL     1      23.696  19.540  -7.800  1.00  0.00     0.027 A 
ATOM     16  N   UNL     1      23.541  17.972  -9.676  1.00  0.00    -0.244 NA
ATOM     17  C   UNL     1      24.661  18.552 -10.167  1.00  0.00     0.119 A 
ATOM     18  C   UNL     1      25.294  19.611  -9.542  1.00  0.00     0.177 A 
ATOM     19  C   UNL     1      25.410  18.271 -11.339  1.00  0.00     0.047 A 
ATOM     20  O   UNL     1      26.379  20.013 -10.261  1.00  0.00    -0.452 OA
ATOM     21  C   UNL     1      25.330  17.341 -12.392  1.00  0.00     0.014 A 
ATOM     22  C   UNL     1      26.444  19.201 -11.354  1.00  0.00     0.137 A 
ATOM     23  C   UNL     1      26.287  17.393 -13.415  1.00  0.00     0.001 A 
ATOM     24  C   UNL     1      27.410  19.279 -12.356  1.00  0.00     0.048 A 
ATOM     25  C   UNL     1      27.307  18.347 -13.396  1.00  0.00     0.004 A 
ENDBRANCH   7   9
ENDBRANCH   6   7
ENDBRANCH   1   6
BRANCH   3  26
ATOM     26  C   UNL     1      28.139  25.598 -10.799  1.00  0.00     0.147 C 
BRANCH  26  27
ATOM     27  C   UNL     1      28.202  27.107 -10.549  1.00  0.00     0.039 C 
BRANCH  27  28
ATOM     28  C   UNL     1      29.568  27.703 -10.926  1.00  0.00     0.086 C 
BRANCH  28  29
ATOM     29  N   UNL     1      30.265  26.970 -11.994  1.00  0.00    -0.303 NA
ATOM     30  C   UNL     1      31.696  26.755 -11.757  1.00  0.00     0.084 C 
ATOM     31  C   UNL     1      30.026  27.603 -13.311  1.00  0.00     0.084 C 
ATOM     32  C   UNL     1      32.525  28.043 -11.802  1.00  0.00     0.016 C 
ATOM     33  C   UNL     1      31.259  28.237 -13.971  1.00  0.00     0.016 C 
ATOM     34  C   UNL     1      32.115  28.969 -12.948  1.00  0.00     0.003 C 
ENDBRANCH  28  29
ENDBRANCH  27  28
ENDBRANCH  26  27
ENDBRANCH   3  26
TORSDOF 7
ENDMDL
MODEL 2
REMARK VINA RESULT:      -8.1      1.451      2.217
REMARK SMILES c1ccc2c(NCc3cn(CCCN4CCCCC4)nn3)c3oc4ccccc4c3nc2c1
REMARK SMILES IDX 8 1 9 2 10 3 20 4 21 5 7 6 6 7 5 9 1 10 2 11 33 12 3 13
REMARK SMILES IDX 32 14 4 15 31 16 30 17 22 18 29 19 23 20 28 21 24 22 27 23
REMARK SMILES IDX 25 24 26 25 11 26 12 27 13 28 14 29 15 30 19 31 16 32 18 33
REMARK SMILES IDX 17 34
REMARK H PARENT 6 8
ROOT
ATOM      1  C   UNL     1      26.451  23.565  -8.441  1.00  0.00     0.102 A 
ATOM      2  C   UNL     1      27.144  24.724  -8.716  1.00  0.00     0.136 A 
ATOM      3  N   UNL     1      27.175  24.769 -10.076  1.00  0.00    -0.252 N 
ATOM      4  N   UNL     1      26.597  23.686 -10.617  1.00  0.00    -0.067 NA
ATOM      5  N   UNL     1      26.135  22.942  -9.620  1.00  0.00    -0.134 NA
ENDROOT
BRANCH   1   6
ATOM      6  C   UNL     1      26.019  23.001  -7.127  1.00  0.00     0.173 C 
BRANCH   6   7
ATOM      7  N   UNL     1      26.231  21.554  -6.907  1.00  0.00    -0.376 N 
ATOM      8  H   UNL     1      26.791  21.230  -7.704  1.00  0.00     0.161 HD
BRANCH   7   9
ATOM      9  C   UNL     1      25.029  20.805  -6.933  1.00  0.00     0.090 A 
ATOM     10  C   UNL     1      22.040  20.871  -3.934  1.00  0.00     0.002 A 
ATOM     11  C   UNL     1      23.218  21.571  -3.729  1.00  0.00     0.001 A 
ATOM     12  C   UNL     1      21.869  20.135  -5.110  1.00  0.00     0.029 A 
ATOM     13  C   UNL     1      24.210  21.546  -4.709  1.00  0.00     0.012 A 
ATOM     14  C   UNL     1      22.840  20.085  -6.099  1.00  0.00     0.073 A 
ATOM     15  C   UNL     1      24.038  20.832  -5.916  1.00  0.00     0.027 A 
ATOM     16  N   UNL     1      22.570  19.319  -7.165  1.00  0.00    -0.244 NA
ATOM     17  C   UNL     1      23.544  19.255  -8.103  1.00  0.00     0.119 A 
ATOM     18  C   UNL     1      24.728  19.961  -8.004  1.00  0.00     0.177 A 
ATOM     19  C   UNL     1      23.607  18.532  -9.322  1.00  0.00     0.047 A 
ATOM     20  O   UNL     1      25.515  19.732  -9.092  1.00  0.00    -0.452 OA
ATOM     21  C   UNL     1      22.769  17.636 -10.011  1.00  0.00     0.014 A 
ATOM     22  C   UNL     1      24.830  18.868  -9.894  1.00  0.00     0.137 A 
ATOM     23  C   UNL     1      23.195  17.126 -11.245  1.00  0.00     0.001 A 
ATOM     24  C   UNL     1      25.280  18.378 -11.118  1.00  0.00     0.048 A 
ATOM     25  C   UNL     1      24.428  17.493 -11.787  1.00  0.00     0.004 A 
ENDBRANCH   7   9
ENDBRANCH   6   7
ENDBRANCH   1   6
BRANCH   3  26
ATOM     26  C   UNL     1      27.775  25.779 -10.917  1.00  0.00     0.147 C 
BRANCH  26  27
ATOM     27  C   UNL     1      28.375  26.959 -10.150  1.00  0.00     0.039 C 
BRANCH  27  28
ATOM     28  C   UNL     1      29.375  27.759 -10.999  1.00  0.00     0.086 C 
BRANCH  28  29
ATOM     29  N   UNL     1      30.042  26.964 -12.043  1.00  0.00    -0.303 NA
ATOM     30  C   UNL     1      31.468  26.721 -11.811  1.00  0.00     0.084 C 
ATOM     31  C   UNL     1      29.806  27.548 -13.382  1.00  0.00     0.084 C 
ATOM     32  C   UNL     1      32.331  27.982 -11.916  1.00  0.00     0.016 C 
ATOM     33  C   UNL     1      31.047  28.121 -14.080  1.00  0.00     0.016 C 
ATOM     34  C   UNL     1      31.934  28.871 -13.096  1.00  0.00     0.003 C 
ENDBRANCH  28  29
ENDBRANCH  27  28
ENDBRANCH  26  27
ENDBRANCH   3  26
TORSDOF 7
ENDMDL
MODEL 3
REMARK VINA RESULT:      -7.7      2.790     10.156
REMARK SMILES c1ccc2c(NCc3cn(CCCN4CCCCC4)nn3)c3oc4ccccc4c3nc2c1
REMARK SMILES IDX 8 1 9 2 10 3 20 4 21 5 7 6 6 7 5 9 1 10 2 11 33 12 3 13
REMARK SMILES IDX 32 14 4 15 31 16 30 17 22 18 29 19 23 20 28 21 24 22 27 23
REMARK SMILES IDX 25 24 26 25 11 26 12 27 13 28 14 29 15 30 19 31 16 32 18 33
REMARK SMILES IDX 17 34
REMARK H PARENT 6 8
ROOT
ATOM      1  C   UNL     1      27.868  25.284 -10.122  1.00  0.00     0.102 A 
ATOM      2  C   UNL     1      27.571  25.122  -8.786  1.00  0.00     0.136 A 
ATOM      3  N   UNL     1      26.701  24.075  -8.771  1.00  0.00    -0.252 N 
ATOM      4  N   UNL     1      26.424  23.649 -10.013  1.00  0.00    -0.067 NA
ATOM      5  N   UNL     1      27.147  24.377 -10.855  1.00  0.00    -0.134 NA
ENDROOT
BRANCH   1   6
ATOM      6  C   UNL     1      28.828  26.222 -10.779  1.00  0.00     0.173 C 
BRANCH   6   7
ATOM      7  N   UNL     1      29.228  25.919 -12.170  1.00  0.00    -0.376 N 
ATOM      8  H   UNL     1      28.972  24.937 -12.326  1.00  0.00     0.161 HD
BRANCH   7   9
ATOM      9  C   UNL     1      30.626  26.005 -12.379  1.00  0.00     0.090 A 
ATOM     10  C   UNL     1      32.795  29.593 -12.971  1.00  0.00     0.002 A 
ATOM     11  C   UNL     1      31.412  29.646 -12.888  1.00  0.00     0.001 A 
ATOM     12  C   UNL     1      33.446  28.360 -12.887  1.00  0.00     0.029 A 
ATOM     13  C   UNL     1      30.692  28.466 -12.702  1.00  0.00     0.012 A 
ATOM     14  C   UNL     1      32.756  27.170 -12.709  1.00  0.00     0.073 A 
ATOM     15  C   UNL     1      31.339  27.216 -12.584  1.00  0.00     0.027 A 
ATOM     16  N   UNL     1      33.492  26.051 -12.676  1.00  0.00    -0.244 NA
ATOM     17  C   UNL     1      32.799  24.896 -12.537  1.00  0.00     0.119 A 
ATOM     18  C   UNL     1      31.424  24.860 -12.395  1.00  0.00     0.177 A 
ATOM     19  C   UNL     1      33.245  23.550 -12.493  1.00  0.00     0.047 A 
ATOM     20  O   UNL     1      30.992  23.576 -12.251  1.00  0.00    -0.452 OA
ATOM     21  C   UNL     1      34.485  22.891 -12.583  1.00  0.00     0.014 A 
ATOM     22  C   UNL     1      32.099  22.783 -12.305  1.00  0.00     0.137 A 
ATOM     23  C   UNL     1      34.517  21.494 -12.475  1.00  0.00     0.001 A 
ATOM     24  C   UNL     1      32.100  21.394 -12.193  1.00  0.00     0.048 A 
ATOM     25  C   UNL     1      33.345  20.761 -12.281  1.00  0.00     0.004 A 
ENDBRANCH   7   9
ENDBRANCH   6   7
ENDBRANCH   1   6
BRANCH   3  26
ATOM     26  C   UNL     1      26.064  23.467  -7.626  1.00  0.00     0.147 C 
BRANCH  26  27
ATOM     27  C   UNL     1      24.623  23.017  -7.876  1.00  0.00     0.039 C 
BRANCH  27  28
ATOM     28  C   UNL     1      24.147  21.986  -6.840  1.00  0.00     0.086 C 
BRANCH  28  29
ATOM     29  N   UNL     1      24.993  20.784  -6.762  1.00  0.00    -0.303 NA
ATOM     30  C   UNL     1      24.860  19.866  -7.898  1.00  0.00     0.084 C 
ATOM     31  C   UNL     1      24.793  20.081  -5.475  1.00  0.00     0.084 C 
ATOM     32  C   UNL     1      23.498  19.168  -7.966  1.00  0.00     0.016 C 
ATOM     33  C   UNL     1      24.137  18.697  -5.574  1.00  0.00     0.016 C 
ATOM     34  C   UNL     1      23.008  18.696  -6.596  1.00  0.00     0.003 C 
ENDBRANCH  28  29
ENDBRANCH  27  28
ENDBRANCH  26  27
ENDBRANCH   3  26
TORSDOF 7
ENDMDL
