MODEL 1
REMARK VINA RESULT:      -6.8      0.000      0.000
REMARK SMILES CCN(CC)CCOc1ccc(/C(=C(/Cl)c2ccccc2)c2ccccc2)cc1
REMARK SMILES IDX 7 1 6 2 3 3 2 4 1 5 4 6 5 7 8 8 9 9 10 10 29 11 11 12 28 13
REMARK SMILES IDX 12 14 13 15 14 16 15 17 22 18 23 19 27 20 24 21 26 22 25 23
REMARK SMILES IDX 16 24 17 25 21 26 18 27 20 28 19 29
REMARK H PARENT
ROOT
ATOM      1  C   UNL     1      26.724  25.128  -6.928  1.00  0.00     0.245 C 
ENDROOT
BRANCH   1   2
ATOM      2  C   UNL     1      26.103  25.729  -5.652  1.00  0.00     0.126 C 
BRANCH   2   3
ATOM      3  N   UNL     1      26.468  24.996  -4.411  1.00  0.00    -0.301 NA
BRANCH   3   4
ATOM      4  C   UNL     1      25.305  24.228  -3.921  1.00  0.00     0.081 C 
ATOM      5  C   UNL     1      24.108  24.326  -4.863  1.00  0.00     0.021 C 
ENDBRANCH   3   4
BRANCH   3   6
ATOM      6  C   UNL     1      26.942  25.932  -3.372  1.00  0.00     0.081 C 
ATOM      7  C   UNL     1      26.919  27.377  -3.863  1.00  0.00     0.021 C 
ENDBRANCH   3   6
ENDBRANCH   2   3
ENDBRANCH   1   2
BRANCH   1   8
ATOM      8  O   UNL     1      27.355  23.872  -6.670  1.00  0.00    -0.492 OA
BRANCH   8   9
ATOM      9  C   UNL     1      26.720  22.754  -7.129  1.00  0.00     0.119 A 
ATOM     10  C   UNL     1      25.889  22.948  -8.234  1.00  0.00     0.047 A 
ATOM     11  C   UNL     1      26.787  21.493  -6.536  1.00  0.00     0.047 A 
ATOM     12  C   UNL     1      25.161  21.884  -8.770  1.00  0.00     0.012 A 
ATOM     13  C   UNL     1      26.060  20.426  -7.071  1.00  0.00     0.012 A 
ATOM     14  C   UNL     1      25.251  20.609  -8.200  1.00  0.00    -0.016 A 
BRANCH  14  15
ATOM     15  C   UNL     1      24.461  19.483  -8.766  1.00  0.00     0.008 C 
ATOM     16  C   UNL     1      23.323  19.073  -8.150  1.00  0.00     0.056 C 
ATOM     17  Cl  UNL     1      22.309  17.804  -8.789  1.00  0.00    -0.083 Cl
BRANCH  15  18
ATOM     18  C   UNL     1      24.917  18.819 -10.015  1.00  0.00    -0.016 A 
ATOM     19  C   UNL     1      24.083  17.926 -10.702  1.00  0.00     0.009 A 
ATOM     20  C   UNL     1      26.209  19.057 -10.499  1.00  0.00     0.009 A 
ATOM     21  C   UNL     1      24.530  17.293 -11.862  1.00  0.00     0.001 A 
ATOM     22  C   UNL     1      26.656  18.421 -11.659  1.00  0.00     0.001 A 
ATOM     23  C   UNL     1      25.816  17.541 -12.340  1.00  0.00     0.000 A 
ENDBRANCH  15  18
BRANCH  16  24
ATOM     24  C   UNL     1      22.801  19.642  -6.890  1.00  0.00    -0.006 A 
ATOM     25  C   UNL     1      23.026  18.987  -5.671  1.00  0.00     0.009 A 
ATOM     26  C   UNL     1      22.080  20.843  -6.894  1.00  0.00     0.009 A 
ATOM     27  C   UNL     1      22.531  19.520  -4.479  1.00  0.00     0.001 A 
ATOM     28  C   UNL     1      21.584  21.375  -5.701  1.00  0.00     0.001 A 
ATOM     29  C   UNL     1      21.809  20.714  -4.496  1.00  0.00     0.000 A 
ENDBRANCH  16  24
ENDBRANCH  14  15
ENDBRANCH   8   9
ENDBRANCH   1   8
TORSDOF 9
ENDMDL
MODEL 2
REMARK VINA RESULT:      -6.8      1.293      2.387
REMARK SMILES CCN(CC)CCOc1ccc(/C(=C(/Cl)c2ccccc2)c2ccccc2)cc1
REMARK SMILES IDX 7 1 6 2 3 3 2 4 1 5 4 6 5 7 8 8 9 9 10 10 29 11 11 12 28 13
REMARK SMILES IDX 12 14 13 15 14 16 15 17 22 18 23 19 27 20 24 21 26 22 25 23
REMARK SMILES IDX 16 24 17 25 21 26 18 27 20 28 19 29
REMARK H PARENT
ROOT
ATOM      1  C   UNL     1      27.156  25.001  -7.390  1.00  0.00     0.245 C 
ENDROOT
BRANCH   1   2
ATOM      2  C   UNL     1      26.377  26.126  -6.681  1.00  0.00     0.126 C 
BRANCH   2   3
ATOM      3  N   UNL     1      25.003  26.323  -7.212  1.00  0.00    -0.301 NA
BRANCH   3   4
ATOM      4  C   UNL     1      24.650  27.758  -7.172  1.00  0.00     0.081 C 
ATOM      5  C   UNL     1      25.740  28.638  -7.778  1.00  0.00     0.021 C 
ENDBRANCH   3   4
BRANCH   3   6
ATOM      6  C   UNL     1      24.026  25.531  -6.438  1.00  0.00     0.081 C 
ATOM      7  C   UNL     1      22.816  25.147  -7.285  1.00  0.00     0.021 C 
ENDBRANCH   3   6
ENDBRANCH   2   3
ENDBRANCH   1   2
BRANCH   1   8
ATOM      8  O   UNL     1      27.242  23.825  -6.583  1.00  0.00    -0.492 OA
BRANCH   8   9
ATOM      9  C   UNL     1      26.623  22.703  -7.056  1.00  0.00     0.119 A 
ATOM     10  C   UNL     1      25.831  22.889  -8.190  1.00  0.00     0.047 A 
ATOM     11  C   UNL     1      26.670  21.446  -6.452  1.00  0.00     0.047 A 
ATOM     12  C   UNL     1      25.122  21.821  -8.743  1.00  0.00     0.012 A 
ATOM     13  C   UNL     1      25.961  20.375  -7.004  1.00  0.00     0.012 A 
ATOM     14  C   UNL     1      25.192  20.549  -8.161  1.00  0.00    -0.016 A 
BRANCH  14  15
ATOM     15  C   UNL     1      24.422  19.420  -8.746  1.00  0.00     0.008 C 
ATOM     16  C   UNL     1      23.281  18.992  -8.147  1.00  0.00     0.056 C 
ATOM     17  Cl  UNL     1      22.290  17.716  -8.810  1.00  0.00    -0.083 Cl
BRANCH  15  18
ATOM     18  C   UNL     1      24.902  18.770  -9.994  1.00  0.00    -0.016 A 
ATOM     19  C   UNL     1      26.188  19.026 -10.490  1.00  0.00     0.009 A 
ATOM     20  C   UNL     1      24.052  17.916 -10.706  1.00  0.00     0.009 A 
ATOM     21  C   UNL     1      26.620  18.426 -11.673  1.00  0.00     0.001 A 
ATOM     22  C   UNL     1      24.486  17.317 -11.891  1.00  0.00     0.001 A 
ATOM     23  C   UNL     1      25.769  17.571 -12.373  1.00  0.00     0.000 A 
ENDBRANCH  15  18
BRANCH  16  24
ATOM     24  C   UNL     1      22.737  19.545  -6.890  1.00  0.00    -0.006 A 
ATOM     25  C   UNL     1      22.077  20.782  -6.887  1.00  0.00     0.009 A 
ATOM     26  C   UNL     1      22.868  18.840  -5.685  1.00  0.00     0.009 A 
ATOM     27  C   UNL     1      21.565  21.307  -5.699  1.00  0.00     0.001 A 
ATOM     28  C   UNL     1      22.357  19.369  -4.498  1.00  0.00     0.001 A 
ATOM     29  C   UNL     1      21.707  20.601  -4.505  1.00  0.00     0.000 A 
ENDBRANCH  16  24
ENDBRANCH  14  15
ENDBRANCH   8   9
ENDBRANCH   1   8
TORSDOF 9
ENDMDL
MODEL 3
REMARK VINA RESULT:      -6.6      1.171      1.711
REMARK SMILES CCN(CC)CCOc1ccc(/C(=C(/Cl)c2ccccc2)c2ccccc2)cc1
REMARK SMILES IDX 7 1 6 2 3 3 2 4 1 5 4 6 5 7 8 8 9 9 10 10 29 11 11 12 28 13
REMARK SMILES IDX 12 14 13 15 14 16 15 17 22 18 23 19 27 20 24 21 26 22 25 23
REMARK SMILES IDX 16 24 17 25 21 26 18 27 20 28 19 29
REMARK H PARENT
ROOT
ATOM      1  C   UNL     1      26.538  24.696  -5.674  1.00  0.00     0.245 C 
ENDROOT
BRANCH   1   2
ATOM      2  C   UNL     1      26.229  26.079  -6.278  1.00  0.00     0.126 C 
BRANCH   2   3
ATOM      3  N   UNL     1      24.816  26.504  -6.101  1.00  0.00    -0.301 NA
BRANCH   3   4
ATOM      4  C   UNL     1      23.984  25.949  -7.189  1.00  0.00     0.081 C 
ATOM      5  C   UNL     1      23.004  24.892  -6.685  1.00  0.00     0.021 C 
ENDBRANCH   3   4
BRANCH   3   6
ATOM      6  C   UNL     1      24.713  27.977  -6.073  1.00  0.00     0.081 C 
ATOM      7  C   UNL     1      25.521  28.619  -7.196  1.00  0.00     0.021 C 
ENDBRANCH   3   6
ENDBRANCH   2   3
ENDBRANCH   1   2
BRANCH   1   8
ATOM      8  O   UNL     1      27.280  23.875  -6.579  1.00  0.00    -0.492 OA
BRANCH   8   9
ATOM      9  C   UNL     1      26.657  22.754  -7.050  1.00  0.00     0.119 A 
ATOM     10  C   UNL     1      25.854  22.944  -8.176  1.00  0.00     0.047 A 
ATOM     11  C   UNL     1      26.711  21.495  -6.452  1.00  0.00     0.047 A 
ATOM     12  C   UNL     1      25.140  21.877  -8.727  1.00  0.00     0.012 A 
ATOM     13  C   UNL     1      25.998  20.425  -7.001  1.00  0.00     0.012 A 
ATOM     14  C   UNL     1      25.218  20.603  -8.150  1.00  0.00    -0.016 A 
BRANCH  14  15
ATOM     15  C   UNL     1      24.443  19.475  -8.731  1.00  0.00     0.008 C 
ATOM     16  C   UNL     1      23.299  19.055  -8.133  1.00  0.00     0.056 C 
ATOM     17  Cl  UNL     1      22.302  17.782  -8.792  1.00  0.00    -0.083 Cl
BRANCH  15  18
ATOM     18  C   UNL     1      24.921  18.819  -9.976  1.00  0.00    -0.016 A 
ATOM     19  C   UNL     1      26.205  19.076 -10.479  1.00  0.00     0.009 A 
ATOM     20  C   UNL     1      24.072  17.957 -10.680  1.00  0.00     0.009 A 
ATOM     21  C   UNL     1      26.636  18.469 -11.659  1.00  0.00     0.001 A 
ATOM     22  C   UNL     1      24.504  17.351 -11.862  1.00  0.00     0.001 A 
ATOM     23  C   UNL     1      25.785  17.607 -12.350  1.00  0.00     0.000 A 
ENDBRANCH  15  18
BRANCH  16  24
ATOM     24  C   UNL     1      22.756  19.615  -6.878  1.00  0.00    -0.006 A 
ATOM     25  C   UNL     1      22.941  18.940  -5.663  1.00  0.00     0.009 A 
ATOM     26  C   UNL     1      22.054  20.828  -6.883  1.00  0.00     0.009 A 
ATOM     27  C   UNL     1      22.425  19.466  -4.477  1.00  0.00     0.001 A 
ATOM     28  C   UNL     1      21.537  21.352  -5.695  1.00  0.00     0.001 A 
ATOM     29  C   UNL     1      21.723  20.671  -4.494  1.00  0.00     0.000 A 
ENDBRANCH  16  24
ENDBRANCH  14  15
ENDBRANCH   8   9
ENDBRANCH   1   8
TORSDOF 9
ENDMDL
