MODEL 1
REMARK VINA RESULT:      -5.8      0.000      0.000
REMARK SMILES COc1cc(CCN)c(-c2cc(C)c(-c3cc(CCN)c(O)c(CCN)c3)c(C)c2)c(CCN)c1
REMARK SMILES IDX 10 1 11 2 12 3 13 4 14 5 28 6 29 7 30 8 9 9 3 10 4 11 35 12
REMARK SMILES IDX 5 13 31 14 2 15 1 16 6 17 7 18 8 19 32 22 33 23 34 24 15 27
REMARK SMILES IDX 16 28 27 29 17 30 23 31 21 32 18 33 19 34 20 35 24 38 25 39
REMARK SMILES IDX 26 40 22 43
REMARK H PARENT 8 20 8 21 34 25 34 26 20 36 20 37 26 41 26 42 22 44
ROOT
ATOM      1  C   UNL     1      18.947   9.810 -22.458  1.00  0.00    -0.017 A 
ATOM      2  C   UNL     1      18.960   9.180 -21.209  1.00  0.00     0.012 A 
ATOM      3  C   UNL     1      17.771   8.910 -20.509  1.00  0.00    -0.042 A 
ATOM      4  C   UNL     1      17.867   8.244 -19.159  1.00  0.00     0.045 C 
ATOM      5  C   UNL     1      16.525   9.293 -21.062  1.00  0.00    -0.012 A 
ATOM      6  C   UNL     1      16.504   9.942 -22.319  1.00  0.00    -0.042 A 
ATOM      7  C   UNL     1      15.212  10.376 -22.962  1.00  0.00     0.045 C 
ATOM      8  C   UNL     1      17.710  10.192 -22.997  1.00  0.00     0.012 A 
ENDROOT
BRANCH   1   9
ATOM      9  C   UNL     1      20.197  10.078 -23.192  1.00  0.00    -0.012 A 
ATOM     10  C   UNL     1      22.655  10.571 -24.529  1.00  0.00     0.119 A 
ATOM     11  C   UNL     1      21.934   9.404 -24.772  1.00  0.00     0.050 A 
ATOM     12  C   UNL     1      22.149  11.499 -23.627  1.00  0.00     0.050 A 
ATOM     13  C   UNL     1      20.706   9.143 -24.129  1.00  0.00    -0.035 A 
ATOM     14  C   UNL     1      20.932  11.270 -22.952  1.00  0.00    -0.035 A 
BRANCH  10  15
ATOM     15  O   UNL     1      23.819  10.683 -25.237  1.00  0.00    -0.497 OA
ATOM     16  C   UNL     1      24.189  11.988 -25.663  1.00  0.00     0.278 C 
ENDBRANCH  10  15
BRANCH  13  17
ATOM     17  C   UNL     1      19.991   7.846 -24.474  1.00  0.00     0.051 C 
BRANCH  17  18
ATOM     18  C   UNL     1      20.451   6.630 -23.651  1.00  0.00     0.082 C 
BRANCH  18  19
ATOM     19  N   UNL     1      21.139   5.616 -24.451  1.00  0.00    -0.330 NA
ATOM     20  H   UNL     1      21.579   4.941 -23.826  1.00  0.00     0.118 HD
ATOM     21  H   UNL     1      21.898   6.065 -24.964  1.00  0.00     0.118 HD
ENDBRANCH  18  19
ENDBRANCH  17  18
ENDBRANCH  13  17
BRANCH  14  22
ATOM     22  C   UNL     1      20.450  12.353 -21.997  1.00  0.00     0.051 C 
BRANCH  22  23
ATOM     23  C   UNL     1      19.713  13.510 -22.688  1.00  0.00     0.082 C 
BRANCH  23  24
ATOM     24  N   UNL     1      20.620  14.556 -23.168  1.00  0.00    -0.330 NA
ATOM     25  H   UNL     1      21.048  15.012 -22.360  1.00  0.00     0.118 HD
ATOM     26  H   UNL     1      21.388  14.119 -23.676  1.00  0.00     0.118 HD
ENDBRANCH  23  24
ENDBRANCH  22  23
ENDBRANCH  14  22
ENDBRANCH   1   9
BRANCH   5  27
ATOM     27  C   UNL     1      15.269   9.022 -20.338  1.00  0.00    -0.017 A 
ATOM     28  C   UNL     1      14.591  10.054 -19.674  1.00  0.00     0.016 A 
ATOM     29  C   UNL     1      14.731   7.730 -20.298  1.00  0.00     0.016 A 
ATOM     30  C   UNL     1      13.393   9.818 -18.975  1.00  0.00    -0.004 A 
ATOM     31  C   UNL     1      13.540   7.461 -19.608  1.00  0.00    -0.004 A 
ATOM     32  C   UNL     1      12.885   8.510 -18.946  1.00  0.00     0.122 A 
BRANCH  30  33
ATOM     33  C   UNL     1      12.733  10.978 -18.266  1.00  0.00     0.054 C 
BRANCH  33  34
ATOM     34  C   UNL     1      13.750  12.058 -17.882  1.00  0.00     0.082 C 
BRANCH  34  35
ATOM     35  N   UNL     1      14.135  11.930 -16.478  1.00  0.00    -0.330 NA
ATOM     36  H   UNL     1      14.117  12.846 -16.031  1.00  0.00     0.118 HD
ATOM     37  H   UNL     1      15.103  11.612 -16.423  1.00  0.00     0.118 HD
ENDBRANCH  34  35
ENDBRANCH  33  34
ENDBRANCH  30  33
BRANCH  31  38
ATOM     38  C   UNL     1      13.005   6.046 -19.573  1.00  0.00     0.054 C 
BRANCH  38  39
ATOM     39  C   UNL     1      13.504   5.280 -18.342  1.00  0.00     0.082 C 
BRANCH  39  40
ATOM     40  N   UNL     1      12.516   5.308 -17.262  1.00  0.00    -0.330 NA
ATOM     41  H   UNL     1      11.595   5.103 -17.649  1.00  0.00     0.118 HD
ATOM     42  H   UNL     1      12.460   6.255 -16.890  1.00  0.00     0.118 HD
ENDBRANCH  39  40
ENDBRANCH  38  39
ENDBRANCH  31  38
BRANCH  32  43
ATOM     43  O   UNL     1      11.738   8.192 -18.269  1.00  0.00    -0.507 OA
ATOM     44  H   UNL     1      11.310   8.996 -17.935  1.00  0.00     0.293 HD
ENDBRANCH  32  43
ENDBRANCH   5  27
TORSDOF 16
ENDMDL
MODEL 2
REMARK VINA RESULT:      -5.7      3.749      6.404
REMARK SMILES COc1cc(CCN)c(-c2cc(C)c(-c3cc(CCN)c(O)c(CCN)c3)c(C)c2)c(CCN)c1
REMARK SMILES IDX 10 1 11 2 12 3 13 4 14 5 28 6 29 7 30 8 9 9 3 10 4 11 35 12
REMARK SMILES IDX 5 13 31 14 2 15 1 16 6 17 7 18 8 19 32 22 33 23 34 24 15 27
REMARK SMILES IDX 16 28 27 29 17 30 23 31 21 32 18 33 19 34 20 35 24 38 25 39
REMARK SMILES IDX 26 40 22 43
REMARK H PARENT 8 20 8 21 34 25 34 26 20 36 20 37 26 41 26 42 22 44
ROOT
ATOM      1  C   UNL     1      23.411  12.269 -24.777  1.00  0.00    -0.017 A 
ATOM      2  C   UNL     1      22.793  11.097 -25.228  1.00  0.00     0.012 A 
ATOM      3  C   UNL     1      21.471  10.778 -24.868  1.00  0.00    -0.042 A 
ATOM      4  C   UNL     1      20.879   9.489 -25.379  1.00  0.00     0.045 C 
ATOM      5  C   UNL     1      20.743  11.646 -24.018  1.00  0.00    -0.012 A 
ATOM      6  C   UNL     1      21.366  12.826 -23.547  1.00  0.00    -0.042 A 
ATOM      7  C   UNL     1      20.647  13.790 -22.640  1.00  0.00     0.045 C 
ATOM      8  C   UNL     1      22.687  13.120 -23.931  1.00  0.00     0.012 A 
ENDROOT
BRANCH   1   9
ATOM      9  C   UNL     1      24.792  12.602 -25.169  1.00  0.00    -0.012 A 
ATOM     10  C   UNL     1      27.460  13.164 -25.969  1.00  0.00     0.119 A 
ATOM     11  C   UNL     1      26.382  13.746 -26.631  1.00  0.00     0.050 A 
ATOM     12  C   UNL     1      27.213  12.309 -24.901  1.00  0.00     0.050 A 
ATOM     13  C   UNL     1      25.050  13.491 -26.245  1.00  0.00    -0.035 A 
ATOM     14  C   UNL     1      25.895  12.016 -24.492  1.00  0.00    -0.035 A 
BRANCH  10  15
ATOM     15  O   UNL     1      28.689  13.517 -26.454  1.00  0.00    -0.497 OA
ATOM     16  C   UNL     1      29.767  13.527 -25.526  1.00  0.00     0.278 C 
ENDBRANCH  10  15
BRANCH  13  17
ATOM     17  C   UNL     1      23.944  14.187 -27.024  1.00  0.00     0.051 C 
BRANCH  17  18
ATOM     18  C   UNL     1      23.711  13.620 -28.436  1.00  0.00     0.082 C 
BRANCH  18  19
ATOM     19  N   UNL     1      22.690  12.573 -28.479  1.00  0.00    -0.330 NA
ATOM     20  H   UNL     1      22.665  12.095 -27.579  1.00  0.00     0.118 HD
ATOM     21  H   UNL     1      22.970  11.872 -29.166  1.00  0.00     0.118 HD
ENDBRANCH  18  19
ENDBRANCH  17  18
ENDBRANCH  13  17
BRANCH  14  22
ATOM     22  C   UNL     1      25.726  11.084 -23.301  1.00  0.00     0.051 C 
BRANCH  22  23
ATOM     23  C   UNL     1      26.270   9.667 -23.536  1.00  0.00     0.082 C 
BRANCH  23  24
ATOM     24  N   UNL     1      25.427   8.877 -24.437  1.00  0.00    -0.330 NA
ATOM     25  H   UNL     1      24.652   8.487 -23.899  1.00  0.00     0.118 HD
ATOM     26  H   UNL     1      25.001   9.500 -25.121  1.00  0.00     0.118 HD
ENDBRANCH  23  24
ENDBRANCH  22  23
ENDBRANCH  14  22
ENDBRANCH   1   9
BRANCH   5  27
ATOM     27  C   UNL     1      19.359  11.323 -23.627  1.00  0.00    -0.017 A 
ATOM     28  C   UNL     1      18.273  11.885 -24.312  1.00  0.00     0.016 A 
ATOM     29  C   UNL     1      19.102  10.452 -22.560  1.00  0.00     0.016 A 
ATOM     30  C   UNL     1      16.944  11.594 -23.954  1.00  0.00    -0.004 A 
ATOM     31  C   UNL     1      17.789  10.142 -22.176  1.00  0.00    -0.004 A 
ATOM     32  C   UNL     1      16.720  10.724 -22.875  1.00  0.00     0.122 A 
BRANCH  30  33
ATOM     33  C   UNL     1      15.828  12.256 -24.727  1.00  0.00     0.054 C 
BRANCH  33  34
ATOM     34  C   UNL     1      15.412  13.587 -24.092  1.00  0.00     0.082 C 
BRANCH  34  35
ATOM     35  N   UNL     1      14.436  13.370 -23.027  1.00  0.00    -0.330 NA
ATOM     36  H   UNL     1      14.048  12.430 -23.102  1.00  0.00     0.118 HD
ATOM     37  H   UNL     1      13.649  14.007 -23.158  1.00  0.00     0.118 HD
ENDBRANCH  34  35
ENDBRANCH  33  34
ENDBRANCH  30  33
BRANCH  31  38
ATOM     38  C   UNL     1      17.557   9.212 -21.006  1.00  0.00     0.054 C 
BRANCH  38  39
ATOM     39  C   UNL     1      18.778   9.147 -20.082  1.00  0.00     0.082 C 
BRANCH  39  40
ATOM     40  N   UNL     1      18.428   8.581 -18.777  1.00  0.00    -0.330 NA
ATOM     41  H   UNL     1      19.197   8.745 -18.127  1.00  0.00     0.118 HD
ATOM     42  H   UNL     1      18.348   7.569 -18.866  1.00  0.00     0.118 HD
ENDBRANCH  39  40
ENDBRANCH  38  39
ENDBRANCH  31  38
BRANCH  32  43
ATOM     43  O   UNL     1      15.459  10.408 -22.448  1.00  0.00    -0.507 OA
ATOM     44  H   UNL     1      15.501   9.884 -21.632  1.00  0.00     0.293 HD
ENDBRANCH  32  43
ENDBRANCH   5  27
TORSDOF 16
ENDMDL
MODEL 3
REMARK VINA RESULT:      -5.6      0.671      3.537
REMARK SMILES COc1cc(CCN)c(-c2cc(C)c(-c3cc(CCN)c(O)c(CCN)c3)c(C)c2)c(CCN)c1
REMARK SMILES IDX 10 1 11 2 12 3 13 4 14 5 28 6 29 7 30 8 9 9 3 10 4 11 35 12
REMARK SMILES IDX 5 13 31 14 2 15 1 16 6 17 7 18 8 19 32 22 33 23 34 24 15 27
REMARK SMILES IDX 16 28 27 29 17 30 23 31 21 32 18 33 19 34 20 35 24 38 25 39
REMARK SMILES IDX 26 40 22 43
REMARK H PARENT 8 20 8 21 34 25 34 26 20 36 20 37 26 41 26 42 22 44
ROOT
ATOM      1  C   UNL     1      18.907   9.327 -22.766  1.00  0.00    -0.017 A 
ATOM      2  C   UNL     1      17.654   9.417 -23.382  1.00  0.00     0.012 A 
ATOM      3  C   UNL     1      16.464   9.217 -22.660  1.00  0.00    -0.042 A 
ATOM      4  C   UNL     1      15.152   9.313 -23.397  1.00  0.00     0.045 C 
ATOM      5  C   UNL     1      16.521   8.903 -21.281  1.00  0.00    -0.012 A 
ATOM      6  C   UNL     1      17.785   8.797 -20.654  1.00  0.00    -0.042 A 
ATOM      7  C   UNL     1      17.915   8.464 -19.190  1.00  0.00     0.045 C 
ATOM      8  C   UNL     1      18.956   9.009 -21.402  1.00  0.00     0.012 A 
ENDROOT
BRANCH   1   9
ATOM      9  C   UNL     1      20.150   9.550 -23.528  1.00  0.00    -0.012 A 
ATOM     10  C   UNL     1      22.497   9.966 -25.074  1.00  0.00     0.119 A 
ATOM     11  C   UNL     1      21.801  11.045 -24.533  1.00  0.00     0.050 A 
ATOM     12  C   UNL     1      22.032   8.678 -24.837  1.00  0.00     0.050 A 
ATOM     13  C   UNL     1      20.640  10.862 -23.753  1.00  0.00    -0.035 A 
ATOM     14  C   UNL     1      20.867   8.452 -24.074  1.00  0.00    -0.035 A 
BRANCH  10  15
ATOM     15  O   UNL     1      23.607  10.304 -25.796  1.00  0.00    -0.497 OA
ATOM     16  C   UNL     1      23.792  11.685 -26.080  1.00  0.00     0.278 C 
ENDBRANCH  10  15
BRANCH  13  17
ATOM     17  C   UNL     1      19.961  12.105 -23.198  1.00  0.00     0.051 C 
BRANCH  17  18
ATOM     18  C   UNL     1      20.931  13.159 -22.635  1.00  0.00     0.082 C 
BRANCH  18  19
ATOM     19  N   UNL     1      20.690  14.505 -23.157  1.00  0.00    -0.330 NA
ATOM     20  H   UNL     1      21.585  14.965 -23.318  1.00  0.00     0.118 HD
ATOM     21  H   UNL     1      20.213  15.052 -22.440  1.00  0.00     0.118 HD
ENDBRANCH  18  19
ENDBRANCH  17  18
ENDBRANCH  13  17
BRANCH  14  22
ATOM     22  C   UNL     1      20.447   7.006 -23.854  1.00  0.00     0.051 C 
BRANCH  22  23
ATOM     23  C   UNL     1      20.867   6.056 -24.985  1.00  0.00     0.082 C 
BRANCH  23  24
ATOM     24  N   UNL     1      21.734   4.969 -24.523  1.00  0.00    -0.330 NA
ATOM     25  H   UNL     1      22.011   5.162 -23.559  1.00  0.00     0.118 HD
ATOM     26  H   UNL     1      21.191   4.107 -24.487  1.00  0.00     0.118 HD
ENDBRANCH  23  24
ENDBRANCH  22  23
ENDBRANCH  14  22
ENDBRANCH   1   9
BRANCH   5  27
ATOM     27  C   UNL     1      15.283   8.685 -20.510  1.00  0.00    -0.017 A 
ATOM     28  C   UNL     1      14.609   9.763 -19.921  1.00  0.00     0.016 A 
ATOM     29  C   UNL     1      14.758   7.396 -20.350  1.00  0.00     0.016 A 
ATOM     30  C   UNL     1      13.429   9.578 -19.179  1.00  0.00    -0.004 A 
ATOM     31  C   UNL     1      13.584   7.177 -19.614  1.00  0.00    -0.004 A 
ATOM     32  C   UNL     1      12.933   8.273 -19.029  1.00  0.00     0.122 A 
BRANCH  30  33
ATOM     33  C   UNL     1      12.772  10.788 -18.556  1.00  0.00     0.054 C 
BRANCH  33  34
ATOM     34  C   UNL     1      13.809  11.820 -18.097  1.00  0.00     0.082 C 
BRANCH  34  35
ATOM     35  N   UNL     1      14.081  11.681 -16.668  1.00  0.00    -0.330 NA
ATOM     36  H   UNL     1      14.375  12.578 -16.285  1.00  0.00     0.118 HD
ATOM     37  H   UNL     1      14.871  11.049 -16.537  1.00  0.00     0.118 HD
ENDBRANCH  34  35
ENDBRANCH  33  34
ENDBRANCH  30  33
BRANCH  31  38
ATOM     38  C   UNL     1      13.063   5.766 -19.449  1.00  0.00     0.054 C 
BRANCH  38  39
ATOM     39  C   UNL     1      13.564   5.124 -18.151  1.00  0.00     0.082 C 
BRANCH  39  40
ATOM     40  N   UNL     1      12.564   5.227 -17.086  1.00  0.00    -0.330 NA
ATOM     41  H   UNL     1      12.020   4.365 -17.058  1.00  0.00     0.118 HD
ATOM     42  H   UNL     1      11.905   5.967 -17.323  1.00  0.00     0.118 HD
ENDBRANCH  39  40
ENDBRANCH  38  39
ENDBRANCH  31  38
BRANCH  32  43
ATOM     43  O   UNL     1      11.804   8.005 -18.303  1.00  0.00    -0.507 OA
ATOM     44  H   UNL     1      11.065   8.552 -18.614  1.00  0.00     0.293 HD
ENDBRANCH  32  43
ENDBRANCH   5  27
TORSDOF 16
ENDMDL
