MODEL 1
REMARK VINA RESULT:      -5.9      0.000      0.000
REMARK SMILES Nc1n/c(=N\O)c2nc[nH]c2[nH]1
REMARK SMILES IDX 1 1 2 2 3 3 4 4 5 5 7 6 8 7 9 8 10 9 11 10 12 11 6 16
REMARK H PARENT 1 12 1 13 10 14 12 15 6 17
ROOT
ATOM      1  N   UNL     1      23.036  16.019 -11.539  1.00  0.00    -0.369 N 
ATOM      2  C   UNL     1      24.044  16.928 -11.551  1.00  0.00     0.201 C 
ATOM      3  N   UNL     1      24.158  17.794 -10.588  1.00  0.00    -0.190 NA
ATOM      4  C   UNL     1      25.209  18.715 -10.627  1.00  0.00     0.224 C 
ATOM      5  N   UNL     1      25.423  19.598  -9.699  1.00  0.00    -0.066 NA
ATOM      6  C   UNL     1      26.093  18.656 -11.786  1.00  0.00     0.154 A 
ATOM      7  N   UNL     1      27.176  19.425 -12.151  1.00  0.00    -0.231 NA
ATOM      8  C   UNL     1      27.567  18.929 -13.310  1.00  0.00     0.199 A 
ATOM      9  N   UNL     1      26.785  17.873 -13.714  1.00  0.00    -0.331 N 
ATOM     10  C   UNL     1      25.862  17.698 -12.738  1.00  0.00     0.141 A 
ATOM     11  N   UNL     1      24.869  16.804 -12.645  1.00  0.00    -0.310 N 
ATOM     12  H   UNL     1      22.520  16.107 -10.665  1.00  0.00     0.159 HD
ATOM     13  H   UNL     1      23.357  15.064 -11.644  1.00  0.00     0.159 HD
ATOM     14  H   UNL     1      26.898  17.338 -14.563  1.00  0.00     0.169 HD
ATOM     15  H   UNL     1      24.543  16.230 -13.412  1.00  0.00     0.171 HD
ENDROOT
BRANCH   5  16
ATOM     16  O   UNL     1      24.477  19.507  -8.664  1.00  0.00    -0.409 OA
ATOM     17  H   UNL     1      24.969  19.869  -7.906  1.00  0.00     0.330 HD
ENDBRANCH   5  16
TORSDOF 1
ENDMDL
MODEL 2
REMARK VINA RESULT:      -5.9      1.920      3.560
REMARK SMILES Nc1n/c(=N\O)c2nc[nH]c2[nH]1
REMARK SMILES IDX 1 1 2 2 3 3 4 4 5 5 7 6 8 7 9 8 10 9 11 10 12 11 6 16
REMARK H PARENT 1 12 1 13 10 14 12 15 6 17
ROOT
ATOM      1  N   UNL     1      26.573  16.886 -13.600  1.00  0.00    -0.369 N 
ATOM      2  C   UNL     1      25.835  17.309 -12.542  1.00  0.00     0.201 C 
ATOM      3  N   UNL     1      24.649  16.820 -12.331  1.00  0.00    -0.190 NA
ATOM      4  C   UNL     1      23.915  17.274 -11.231  1.00  0.00     0.224 C 
ATOM      5  N   UNL     1      22.736  16.825 -10.921  1.00  0.00    -0.066 NA
ATOM      6  C   UNL     1      24.533  18.308 -10.409  1.00  0.00     0.154 A 
ATOM      7  N   UNL     1      24.079  18.991  -9.303  1.00  0.00    -0.231 NA
ATOM      8  C   UNL     1      25.054  19.826  -8.998  1.00  0.00     0.199 A 
ATOM      9  N   UNL     1      26.121  19.719  -9.858  1.00  0.00    -0.331 N 
ATOM     10  C   UNL     1      25.788  18.746 -10.742  1.00  0.00     0.141 A 
ATOM     11  N   UNL     1      26.480  18.256 -11.780  1.00  0.00    -0.310 N 
ATOM     12  H   UNL     1      26.079  16.127 -14.066  1.00  0.00     0.159 HD
ATOM     13  H   UNL     1      27.500  16.572 -13.340  1.00  0.00     0.159 HD
ATOM     14  H   UNL     1      26.976  20.253  -9.818  1.00  0.00     0.169 HD
ATOM     15  H   UNL     1      27.302  18.692 -12.176  1.00  0.00     0.171 HD
ENDROOT
BRANCH   5  16
ATOM     16  O   UNL     1      22.302  15.835 -11.820  1.00  0.00    -0.409 OA
ATOM     17  H   UNL     1      23.125  15.345 -11.995  1.00  0.00     0.330 HD
ENDBRANCH   5  16
TORSDOF 1
ENDMDL
MODEL 3
REMARK VINA RESULT:      -5.9      1.156      3.276
REMARK SMILES Nc1n/c(=N\O)c2nc[nH]c2[nH]1
REMARK SMILES IDX 1 1 2 2 3 3 4 4 5 5 7 6 8 7 9 8 10 9 11 10 12 11 6 16
REMARK H PARENT 1 12 1 13 10 14 12 15 6 17
ROOT
ATOM      1  N   UNL     1      27.658  19.710 -12.690  1.00  0.00    -0.369 N 
ATOM      2  C   UNL     1      26.577  19.203 -12.043  1.00  0.00     0.201 C 
ATOM      3  N   UNL     1      26.302  19.582 -10.830  1.00  0.00    -0.190 NA
ATOM      4  C   UNL     1      25.181  19.044 -10.191  1.00  0.00     0.224 C 
ATOM      5  N   UNL     1      24.807  19.382  -8.993  1.00  0.00    -0.066 NA
ATOM      6  C   UNL     1      24.411  18.053 -10.935  1.00  0.00     0.154 A 
ATOM      7  N   UNL     1      23.302  17.312 -10.595  1.00  0.00    -0.231 NA
ATOM      8  C   UNL     1      23.061  16.560 -11.652  1.00  0.00     0.199 A 
ATOM      9  N   UNL     1      23.966  16.778 -12.663  1.00  0.00    -0.331 N 
ATOM     10  C   UNL     1      24.810  17.733 -12.206  1.00  0.00     0.141 A 
ATOM     11  N   UNL     1      25.867  18.302 -12.803  1.00  0.00    -0.310 N 
ATOM     12  H   UNL     1      28.084  20.431 -12.111  1.00  0.00     0.159 HD
ATOM     13  H   UNL     1      27.433  20.099 -13.598  1.00  0.00     0.159 HD
ATOM     14  H   UNL     1      23.977  16.320 -13.563  1.00  0.00     0.169 HD
ATOM     15  H   UNL     1      26.310  17.948 -13.640  1.00  0.00     0.171 HD
ENDROOT
BRANCH   5  16
ATOM     16  O   UNL     1      25.662  20.346  -8.433  1.00  0.00    -0.409 OA
ATOM     17  H   UNL     1      25.271  21.177  -8.756  1.00  0.00     0.330 HD
ENDBRANCH   5  16
TORSDOF 1
ENDMDL
