MODEL 1
REMARK VINA RESULT:      -6.9      0.000      0.000
REMARK SMILES Cc1c2ccncc2c(C)c2c1[nH]c1ccc(OCCN(C)C)cc12
REMARK SMILES IDX 19 1 18 2 17 3 2 4 3 5 12 6 4 7 8 8 11 9 13 10 5 11 7 12
REMARK SMILES IDX 9 13 25 14 14 15 6 16 24 17 15 18 16 19 1 20 10 22 20 23
REMARK SMILES IDX 21 24 22 25 23 26
REMARK H PARENT 13 21
ROOT
ATOM      1  C   UNL     1      21.365  20.768  -3.754  1.00  0.00     0.245 C 
ENDROOT
BRANCH   1   2
ATOM      2  O   UNL     1      22.773  20.881  -3.523  1.00  0.00    -0.492 OA
BRANCH   2   3
ATOM      3  C   UNL     1      23.614  20.950  -4.601  1.00  0.00     0.120 A 
ATOM      4  C   UNL     1      25.343  19.190 -10.135  1.00  0.00    -0.019 A 
ATOM      5  C   UNL     1      24.446  18.222 -10.664  1.00  0.00    -0.010 A 
ATOM      6  C   UNL     1      25.041  19.718  -8.862  1.00  0.00     0.050 A 
ATOM      7  C   UNL     1      24.682  17.597 -11.907  1.00  0.00     0.029 A 
ATOM      8  C   UNL     1      23.281  17.857  -9.949  1.00  0.00     0.004 A 
ATOM      9  C   UNL     1      23.910  19.373  -8.120  1.00  0.00     0.011 A 
ATOM     10  N   UNL     1      25.746  20.636  -8.115  1.00  0.00    -0.354 N 
ATOM     11  C   UNL     1      23.800  16.648 -12.395  1.00  0.00     0.111 A 
ATOM     12  C   UNL     1      22.473  16.873 -10.551  1.00  0.00     0.120 A 
ATOM     13  C   UNL     1      22.971  18.467  -8.689  1.00  0.00    -0.032 A 
ATOM     14  C   UNL     1      24.004  20.080  -6.860  1.00  0.00     0.011 A 
ATOM     15  C   UNL     1      25.152  20.864  -6.903  1.00  0.00     0.047 A 
ATOM     16  N   UNL     1      22.697  16.266 -11.741  1.00  0.00    -0.264 NA
ATOM     17  C   UNL     1      23.238  20.125  -5.673  1.00  0.00     0.057 A 
ATOM     18  C   UNL     1      25.556  21.694  -5.851  1.00  0.00     0.030 A 
ATOM     19  C   UNL     1      24.765  21.725  -4.697  1.00  0.00     0.048 A 
ATOM     20  C   UNL     1      26.577  19.607 -10.895  1.00  0.00     0.047 C 
ATOM     21  H   UNL     1      26.607  21.071  -8.407  1.00  0.00     0.167 HD
ATOM     22  C   UNL     1      21.682  18.118  -7.981  1.00  0.00     0.046 C 
ENDBRANCH   2   3
ENDBRANCH   1   2
BRANCH   1  23
ATOM     23  C   UNL     1      20.726  22.157  -3.922  1.00  0.00     0.125 C 
BRANCH  23  24
ATOM     24  N   UNL     1      19.513  22.164  -4.763  1.00  0.00    -0.306 NA
ATOM     25  C   UNL     1      18.308  22.450  -3.979  1.00  0.00     0.105 C 
ATOM     26  C   UNL     1      19.654  23.161  -5.830  1.00  0.00     0.105 C 
ENDBRANCH  23  24
ENDBRANCH   1  23
TORSDOF 4
ENDMDL
MODEL 2
REMARK VINA RESULT:      -6.9      0.955      1.197
REMARK SMILES Cc1c2ccncc2c(C)c2c1[nH]c1ccc(OCCN(C)C)cc12
REMARK SMILES IDX 19 1 18 2 17 3 2 4 3 5 12 6 4 7 8 8 11 9 13 10 5 11 7 12
REMARK SMILES IDX 9 13 25 14 14 15 6 16 24 17 15 18 16 19 1 20 10 22 20 23
REMARK SMILES IDX 21 24 22 25 23 26
REMARK H PARENT 13 21
ROOT
ATOM      1  C   UNL     1      22.519  22.059  -3.237  1.00  0.00     0.245 C 
ENDROOT
BRANCH   1   2
ATOM      2  O   UNL     1      23.364  20.940  -3.524  1.00  0.00    -0.492 OA
BRANCH   2   3
ATOM      3  C   UNL     1      24.132  20.969  -4.657  1.00  0.00     0.120 A 
ATOM      4  C   UNL     1      25.409  19.119 -10.283  1.00  0.00    -0.019 A 
ATOM      5  C   UNL     1      24.437  18.189 -10.746  1.00  0.00    -0.010 A 
ATOM      6  C   UNL     1      25.216  19.663  -8.997  1.00  0.00     0.050 A 
ATOM      7  C   UNL     1      24.563  17.550 -11.998  1.00  0.00     0.029 A 
ATOM      8  C   UNL     1      23.309  17.877  -9.952  1.00  0.00     0.004 A 
ATOM      9  C   UNL     1      24.124  19.370  -8.178  1.00  0.00     0.011 A 
ATOM     10  N   UNL     1      26.008  20.553  -8.304  1.00  0.00    -0.354 N 
ATOM     11  C   UNL     1      23.610  16.639 -12.420  1.00  0.00     0.111 A 
ATOM     12  C   UNL     1      22.421  16.926 -10.493  1.00  0.00     0.120 A 
ATOM     13  C   UNL     1      23.111  18.504  -8.677  1.00  0.00    -0.032 A 
ATOM     14  C   UNL     1      24.333  20.076  -6.931  1.00  0.00     0.011 A 
ATOM     15  C   UNL     1      25.508  20.810  -7.056  1.00  0.00     0.047 A 
ATOM     16  N   UNL     1      22.538  16.307 -11.691  1.00  0.00    -0.264 NA
ATOM     17  C   UNL     1      23.650  20.157  -5.696  1.00  0.00     0.057 A 
ATOM     18  C   UNL     1      26.017  21.625  -6.038  1.00  0.00     0.030 A 
ATOM     19  C   UNL     1      25.306  21.693  -4.835  1.00  0.00     0.048 A 
ATOM     20  C   UNL     1      26.605  19.480 -11.127  1.00  0.00     0.047 C 
ATOM     21  H   UNL     1      26.865  20.949  -8.656  1.00  0.00     0.167 HD
ATOM     22  C   UNL     1      21.859  18.212  -7.883  1.00  0.00     0.046 C 
ENDBRANCH   2   3
ENDBRANCH   1   2
BRANCH   1  23
ATOM     23  C   UNL     1      21.374  22.156  -4.259  1.00  0.00     0.125 C 
BRANCH  23  24
ATOM     24  N   UNL     1      21.363  23.412  -5.035  1.00  0.00    -0.306 NA
ATOM     25  C   UNL     1      22.510  24.264  -4.709  1.00  0.00     0.105 C 
ATOM     26  C   UNL     1      21.367  23.109  -6.470  1.00  0.00     0.105 C 
ENDBRANCH  23  24
ENDBRANCH   1  23
TORSDOF 4
ENDMDL
MODEL 3
REMARK VINA RESULT:      -6.9     17.320     18.188
REMARK SMILES Cc1c2ccncc2c(C)c2c1[nH]c1ccc(OCCN(C)C)cc12
REMARK SMILES IDX 19 1 18 2 17 3 2 4 3 5 12 6 4 7 8 8 11 9 13 10 5 11 7 12
REMARK SMILES IDX 9 13 25 14 14 15 6 16 24 17 15 18 16 19 1 20 10 22 20 23
REMARK SMILES IDX 21 24 22 25 23 26
REMARK H PARENT 13 21
ROOT
ATOM      1  C   UNL     1      19.406  10.299 -20.953  1.00  0.00     0.245 C 
ENDROOT
BRANCH   1   2
ATOM      2  O   UNL     1      19.901  10.185 -22.291  1.00  0.00    -0.492 OA
BRANCH   2   3
ATOM      3  C   UNL     1      20.546  11.256 -22.848  1.00  0.00     0.120 A 
ATOM      4  C   UNL     1      25.561  14.023 -24.822  1.00  0.00    -0.019 A 
ATOM      5  C   UNL     1      26.694  13.174 -24.696  1.00  0.00    -0.010 A 
ATOM      6  C   UNL     1      24.313  13.493 -24.433  1.00  0.00     0.050 A 
ATOM      7  C   UNL     1      27.994  13.624 -25.012  1.00  0.00     0.029 A 
ATOM      8  C   UNL     1      26.545  11.842 -24.244  1.00  0.00     0.004 A 
ATOM      9  C   UNL     1      24.127  12.190 -23.970  1.00  0.00     0.011 A 
ATOM     10  N   UNL     1      23.077  14.101 -24.427  1.00  0.00    -0.354 N 
ATOM     11  C   UNL     1      29.083  12.781 -24.868  1.00  0.00     0.111 A 
ATOM     12  C   UNL     1      27.733  11.094 -24.132  1.00  0.00     0.120 A 
ATOM     13  C   UNL     1      25.249  11.315 -23.924  1.00  0.00    -0.032 A 
ATOM     14  C   UNL     1      22.727  12.065 -23.622  1.00  0.00     0.011 A 
ATOM     15  C   UNL     1      22.107  13.270 -23.934  1.00  0.00     0.047 A 
ATOM     16  N   UNL     1      28.983  11.520 -24.430  1.00  0.00    -0.264 NA
ATOM     17  C   UNL     1      21.919  11.052 -23.056  1.00  0.00     0.057 A 
ATOM     18  C   UNL     1      20.742  13.506 -23.736  1.00  0.00     0.030 A 
ATOM     19  C   UNL     1      19.970  12.475 -23.188  1.00  0.00     0.048 A 
ATOM     20  C   UNL     1      25.700  15.439 -25.325  1.00  0.00     0.047 C 
ATOM     21  H   UNL     1      22.904  15.049 -24.723  1.00  0.00     0.167 HD
ATOM     22  C   UNL     1      25.106   9.867 -23.518  1.00  0.00     0.046 C 
ENDBRANCH   2   3
ENDBRANCH   1   2
BRANCH   1  23
ATOM     23  C   UNL     1      17.868  10.313 -20.939  1.00  0.00     0.125 C 
BRANCH  23  24
ATOM     24  N   UNL     1      17.269   9.581 -19.805  1.00  0.00    -0.306 NA
ATOM     25  C   UNL     1      15.964   9.011 -20.153  1.00  0.00     0.105 C 
ATOM     26  C   UNL     1      18.173   8.511 -19.371  1.00  0.00     0.105 C 
ENDBRANCH  23  24
ENDBRANCH   1  23
TORSDOF 4
ENDMDL
