MODEL 1
REMARK VINA RESULT:      -7.9      0.000      0.000
REMARK SMILES N=C(NCCCCc1c(N)nc(N)nc1N)c1ccc(C(=N)NCCCCc2c(N)nc(N)nc2N)cc1
REMARK SMILES IDX 17 1 18 2 19 3 20 4 37 5 38 6 2 7 1 8 3 9 4 12 5 13 6 14
REMARK SMILES IDX 7 15 8 16 9 17 15 18 11 19 14 20 12 21 10 22 16 25 13 28
REMARK SMILES IDX 21 31 22 32 23 33 24 36 25 37 26 38 27 39 28 40 29 41 35 42
REMARK SMILES IDX 31 43 34 44 32 45 30 46 36 49 33 52
REMARK H PARENT 1 10 3 11 10 23 10 24 16 26 16 27 13 29 13 30 22 34 23 35
REMARK H PARENT 30 47 30 48 36 50 36 51 33 53 33 54
ROOT
ATOM      1  C   UNL     1      25.795  23.177  -7.778  1.00  0.00     0.016 A 
ATOM      2  C   UNL     1      25.703  23.056  -9.169  1.00  0.00     0.012 A 
ATOM      3  C   UNL     1      26.447  23.906  -9.990  1.00  0.00     0.012 A 
ATOM      4  C   UNL     1      27.277  24.879  -9.419  1.00  0.00     0.016 A 
ATOM      5  C   UNL     1      27.371  24.997  -8.028  1.00  0.00     0.012 A 
ATOM      6  C   UNL     1      26.631  24.144  -7.206  1.00  0.00     0.012 A 
ENDROOT
BRANCH   1   7
ATOM      7  C   UNL     1      25.015  22.263  -6.894  1.00  0.00     0.125 C 
ATOM      8  N   UNL     1      25.265  22.206  -5.624  1.00  0.00    -0.284 NA
ATOM      9  N   UNL     1      24.029  21.492  -7.463  1.00  0.00    -0.370 N 
ATOM     10  H   UNL     1      26.052  22.809  -5.373  1.00  0.00     0.189 HD
ATOM     11  H   UNL     1      23.646  21.865  -8.323  1.00  0.00     0.162 HD
BRANCH   9  12
ATOM     12  C   UNL     1      23.081  20.760  -6.637  1.00  0.00     0.114 C 
BRANCH  12  13
ATOM     13  C   UNL     1      22.761  19.392  -7.246  1.00  0.00     0.022 C 
BRANCH  13  14
ATOM     14  C   UNL     1      23.808  18.930  -8.265  1.00  0.00     0.007 C 
BRANCH  14  15
ATOM     15  C   UNL     1      23.141  18.321  -9.504  1.00  0.00     0.043 C 
BRANCH  15  16
ATOM     16  C   UNL     1      24.145  17.981 -10.572  1.00  0.00     0.037 A 
ATOM     17  C   UNL     1      23.988  16.913 -11.445  1.00  0.00     0.134 A 
ATOM     18  C   UNL     1      25.316  18.706 -10.742  1.00  0.00     0.134 A 
ATOM     19  N   UNL     1      24.881  16.621 -12.396  1.00  0.00    -0.196 NA
ATOM     20  N   UNL     1      26.219  18.432 -11.689  1.00  0.00    -0.196 NA
ATOM     21  C   UNL     1      25.950  17.406 -12.494  1.00  0.00     0.223 A 
BRANCH  17  22
ATOM     22  N   UNL     1      22.848  16.098 -11.414  1.00  0.00    -0.383 N 
ATOM     23  H   UNL     1      22.030  16.668 -11.219  1.00  0.00     0.158 HD
ATOM     24  H   UNL     1      22.929  15.390 -10.694  1.00  0.00     0.158 HD
ENDBRANCH  17  22
BRANCH  18  25
ATOM     25  N   UNL     1      25.627  19.805  -9.939  1.00  0.00    -0.383 N 
ATOM     26  H   UNL     1      26.599  19.809  -9.656  1.00  0.00     0.158 HD
ATOM     27  H   UNL     1      25.397  20.637 -10.479  1.00  0.00     0.158 HD
ENDBRANCH  18  25
BRANCH  21  28
ATOM     28  N   UNL     1      26.878  17.096 -13.468  1.00  0.00    -0.368 N 
ATOM     29  H   UNL     1      27.164  16.133 -13.362  1.00  0.00     0.159 HD
ATOM     30  H   UNL     1      27.600  17.802 -13.495  1.00  0.00     0.159 HD
ENDBRANCH  21  28
ENDBRANCH  15  16
ENDBRANCH  14  15
ENDBRANCH  13  14
ENDBRANCH  12  13
ENDBRANCH   9  12
ENDBRANCH   1   7
BRANCH   4  31
ATOM     31  C   UNL     1      28.080  25.774 -10.303  1.00  0.00     0.125 C 
ATOM     32  N   UNL     1      28.693  25.302 -11.342  1.00  0.00    -0.284 NA
ATOM     33  N   UNL     1      28.150  27.105  -9.980  1.00  0.00    -0.370 N 
ATOM     34  H   UNL     1      28.579  24.288 -11.412  1.00  0.00     0.189 HD
ATOM     35  H   UNL     1      27.413  27.461  -9.380  1.00  0.00     0.162 HD
BRANCH  33  36
ATOM     36  C   UNL     1      28.717  28.094 -10.881  1.00  0.00     0.114 C 
BRANCH  36  37
ATOM     37  C   UNL     1      30.119  28.488 -10.410  1.00  0.00     0.022 C 
BRANCH  37  38
ATOM     38  C   UNL     1      30.761  29.542 -11.320  1.00  0.00     0.007 C 
BRANCH  38  39
ATOM     39  C   UNL     1      32.115  29.101 -11.892  1.00  0.00     0.043 C 
BRANCH  39  40
ATOM     40  C   UNL     1      32.227  27.613 -12.103  1.00  0.00     0.037 A 
ATOM     41  C   UNL     1      33.008  26.796 -11.300  1.00  0.00     0.134 A 
ATOM     42  C   UNL     1      31.507  26.945 -13.082  1.00  0.00     0.134 A 
ATOM     43  N   UNL     1      33.049  25.464 -11.430  1.00  0.00    -0.196 NA
ATOM     44  N   UNL     1      31.534  25.616 -13.237  1.00  0.00    -0.196 NA
ATOM     45  C   UNL     1      32.290  24.927 -12.384  1.00  0.00     0.223 A 
BRANCH  41  46
ATOM     46  N   UNL     1      33.793  27.305 -10.265  1.00  0.00    -0.383 N 
ATOM     47  H   UNL     1      33.165  27.780  -9.621  1.00  0.00     0.158 HD
ATOM     48  H   UNL     1      34.319  26.576  -9.797  1.00  0.00     0.158 HD
ENDBRANCH  41  46
BRANCH  42  49
ATOM     49  N   UNL     1      30.664  27.617 -13.968  1.00  0.00    -0.383 N 
ATOM     50  H   UNL     1      31.167  28.275 -14.551  1.00  0.00     0.158 HD
ATOM     51  H   UNL     1      30.190  26.910 -14.525  1.00  0.00     0.158 HD
ENDBRANCH  42  49
BRANCH  45  52
ATOM     52  N   UNL     1      32.331  23.557 -12.535  1.00  0.00    -0.368 N 
ATOM     53  H   UNL     1      31.420  23.162 -12.350  1.00  0.00     0.159 HD
ATOM     54  H   UNL     1      33.117  23.179 -12.023  1.00  0.00     0.159 HD
ENDBRANCH  45  52
ENDBRANCH  39  40
ENDBRANCH  38  39
ENDBRANCH  37  38
ENDBRANCH  36  37
ENDBRANCH  33  36
ENDBRANCH   4  31
TORSDOF 18
ENDMDL
MODEL 2
REMARK VINA RESULT:      -7.7      1.552      2.131
REMARK SMILES N=C(NCCCCc1c(N)nc(N)nc1N)c1ccc(C(=N)NCCCCc2c(N)nc(N)nc2N)cc1
REMARK SMILES IDX 17 1 18 2 19 3 20 4 37 5 38 6 2 7 1 8 3 9 4 12 5 13 6 14
REMARK SMILES IDX 7 15 8 16 9 17 15 18 11 19 14 20 12 21 10 22 16 25 13 28
REMARK SMILES IDX 21 31 22 32 23 33 24 36 25 37 26 38 27 39 28 40 29 41 35 42
REMARK SMILES IDX 31 43 34 44 32 45 30 46 36 49 33 52
REMARK H PARENT 1 10 3 11 10 23 10 24 16 26 16 27 13 29 13 30 22 34 23 35
REMARK H PARENT 30 47 30 48 36 50 36 51 33 53 33 54
ROOT
ATOM      1  C   UNL     1      26.076  23.290  -6.573  1.00  0.00     0.016 A 
ATOM      2  C   UNL     1      25.307  23.356  -7.740  1.00  0.00     0.012 A 
ATOM      3  C   UNL     1      25.810  24.012  -8.866  1.00  0.00     0.012 A 
ATOM      4  C   UNL     1      27.078  24.604  -8.822  1.00  0.00     0.016 A 
ATOM      5  C   UNL     1      27.848  24.534  -7.655  1.00  0.00     0.012 A 
ATOM      6  C   UNL     1      27.348  23.875  -6.530  1.00  0.00     0.012 A 
ENDROOT
BRANCH   1   7
ATOM      7  C   UNL     1      25.553  22.578  -5.371  1.00  0.00     0.125 C 
ATOM      8  N   UNL     1      25.431  23.200  -4.240  1.00  0.00    -0.284 NA
ATOM      9  N   UNL     1      25.205  21.254  -5.498  1.00  0.00    -0.370 N 
ATOM     10  H   UNL     1      25.772  24.162  -4.307  1.00  0.00     0.189 HD
ATOM     11  H   UNL     1      24.960  20.971  -6.440  1.00  0.00     0.162 HD
BRANCH   9  12
ATOM     12  C   UNL     1      24.476  20.566  -4.444  1.00  0.00     0.114 C 
BRANCH  12  13
ATOM     13  C   UNL     1      23.965  19.206  -4.924  1.00  0.00     0.022 C 
BRANCH  13  14
ATOM     14  C   UNL     1      24.328  18.910  -6.383  1.00  0.00     0.007 C 
BRANCH  14  15
ATOM     15  C   UNL     1      23.223  19.386  -7.333  1.00  0.00     0.043 C 
BRANCH  15  16
ATOM     16  C   UNL     1      23.223  18.614  -8.625  1.00  0.00     0.037 A 
ATOM     17  C   UNL     1      22.249  17.677  -8.947  1.00  0.00     0.134 A 
ATOM     18  C   UNL     1      24.218  18.772  -9.579  1.00  0.00     0.134 A 
ATOM     19  N   UNL     1      22.252  17.001 -10.100  1.00  0.00    -0.196 NA
ATOM     20  N   UNL     1      24.236  18.107 -10.740  1.00  0.00    -0.196 NA
ATOM     21  C   UNL     1      23.233  17.259 -10.958  1.00  0.00     0.223 A 
BRANCH  17  22
ATOM     22  N   UNL     1      21.166  17.419  -8.095  1.00  0.00    -0.383 N 
ATOM     23  H   UNL     1      21.349  17.826  -7.182  1.00  0.00     0.158 HD
ATOM     24  H   UNL     1      21.023  16.422  -7.984  1.00  0.00     0.158 HD
ENDBRANCH  17  22
BRANCH  18  25
ATOM     25  N   UNL     1      25.273  19.669  -9.404  1.00  0.00    -0.383 N 
ATOM     26  H   UNL     1      25.054  20.591  -9.763  1.00  0.00     0.158 HD
ATOM     27  H   UNL     1      25.469  19.701  -8.405  1.00  0.00     0.158 HD
ENDBRANCH  18  25
BRANCH  21  28
ATOM     28  N   UNL     1      23.242  16.551 -12.144  1.00  0.00    -0.368 N 
ATOM     29  H   UNL     1      24.189  16.499 -12.494  1.00  0.00     0.159 HD
ATOM     30  H   UNL     1      22.530  16.906 -12.765  1.00  0.00     0.159 HD
ENDBRANCH  21  28
ENDBRANCH  15  16
ENDBRANCH  14  15
ENDBRANCH  13  14
ENDBRANCH  12  13
ENDBRANCH   9  12
ENDBRANCH   1   7
BRANCH   4  31
ATOM     31  C   UNL     1      27.613  25.290 -10.034  1.00  0.00     0.125 C 
ATOM     32  N   UNL     1      27.658  24.680 -11.175  1.00  0.00    -0.284 NA
ATOM     33  N   UNL     1      28.058  26.581  -9.900  1.00  0.00    -0.370 N 
ATOM     34  H   UNL     1      27.335  23.712 -11.092  1.00  0.00     0.189 HD
ATOM     35  H   UNL     1      27.704  27.098  -9.101  1.00  0.00     0.162 HD
BRANCH  33  36
ATOM     36  C   UNL     1      28.393  27.409 -11.046  1.00  0.00     0.114 C 
BRANCH  36  37
ATOM     37  C   UNL     1      29.745  28.091 -10.821  1.00  0.00     0.022 C 
BRANCH  37  38
ATOM     38  C   UNL     1      30.269  28.772 -12.091  1.00  0.00     0.007 C 
BRANCH  38  39
ATOM     39  C   UNL     1      30.542  27.787 -13.235  1.00  0.00     0.043 C 
BRANCH  39  40
ATOM     40  C   UNL     1      31.713  26.873 -12.981  1.00  0.00     0.037 A 
ATOM     41  C   UNL     1      33.029  27.307 -13.022  1.00  0.00     0.134 A 
ATOM     42  C   UNL     1      31.553  25.542 -12.628  1.00  0.00     0.134 A 
ATOM     43  N   UNL     1      34.069  26.522 -12.718  1.00  0.00    -0.196 NA
ATOM     44  N   UNL     1      32.576  24.734 -12.324  1.00  0.00    -0.196 NA
ATOM     45  C   UNL     1      33.795  25.268 -12.360  1.00  0.00     0.223 A 
BRANCH  41  46
ATOM     46  N   UNL     1      33.367  28.619 -13.357  1.00  0.00    -0.383 N 
ATOM     47  H   UNL     1      32.904  29.226 -12.685  1.00  0.00     0.158 HD
ATOM     48  H   UNL     1      34.370  28.763 -13.353  1.00  0.00     0.158 HD
ENDBRANCH  41  46
BRANCH  42  49
ATOM     49  N   UNL     1      30.294  24.948 -12.529  1.00  0.00    -0.383 N 
ATOM     50  H   UNL     1      30.313  24.100 -11.977  1.00  0.00     0.158 HD
ATOM     51  H   UNL     1      29.666  25.641 -12.128  1.00  0.00     0.158 HD
ENDBRANCH  42  49
BRANCH  45  52
ATOM     52  N   UNL     1      34.859  24.446 -12.054  1.00  0.00    -0.368 N 
ATOM     53  H   UNL     1      35.348  24.186 -12.900  1.00  0.00     0.159 HD
ATOM     54  H   UNL     1      34.553  23.702 -11.443  1.00  0.00     0.159 HD
ENDBRANCH  45  52
ENDBRANCH  39  40
ENDBRANCH  38  39
ENDBRANCH  37  38
ENDBRANCH  36  37
ENDBRANCH  33  36
ENDBRANCH   4  31
TORSDOF 18
ENDMDL
MODEL 3
REMARK VINA RESULT:      -7.2     16.594     20.045
REMARK SMILES N=C(NCCCCc1c(N)nc(N)nc1N)c1ccc(C(=N)NCCCCc2c(N)nc(N)nc2N)cc1
REMARK SMILES IDX 17 1 18 2 19 3 20 4 37 5 38 6 2 7 1 8 3 9 4 12 5 13 6 14
REMARK SMILES IDX 7 15 8 16 9 17 15 18 11 19 14 20 12 21 10 22 16 25 13 28
REMARK SMILES IDX 21 31 22 32 23 33 24 36 25 37 26 38 27 39 28 40 29 41 35 42
REMARK SMILES IDX 31 43 34 44 32 45 30 46 36 49 33 52
REMARK H PARENT 1 10 3 11 10 23 10 24 16 26 16 27 13 29 13 30 22 34 23 35
REMARK H PARENT 30 47 30 48 36 50 36 51 33 53 33 54
ROOT
ATOM      1  C   UNL     1      26.084  13.059 -24.811  1.00  0.00     0.016 A 
ATOM      2  C   UNL     1      25.016  13.915 -25.102  1.00  0.00     0.012 A 
ATOM      3  C   UNL     1      23.735  13.608 -24.639  1.00  0.00     0.012 A 
ATOM      4  C   UNL     1      23.522  12.444 -23.890  1.00  0.00     0.016 A 
ATOM      5  C   UNL     1      24.592  11.590 -23.597  1.00  0.00     0.012 A 
ATOM      6  C   UNL     1      25.875  11.898 -24.055  1.00  0.00     0.012 A 
ENDROOT
BRANCH   1   7
ATOM      7  C   UNL     1      27.459  13.387 -25.289  1.00  0.00     0.125 C 
ATOM      8  N   UNL     1      27.771  14.603 -25.608  1.00  0.00    -0.284 NA
ATOM      9  N   UNL     1      28.378  12.367 -25.377  1.00  0.00    -0.370 N 
ATOM     10  H   UNL     1      26.964  15.227 -25.525  1.00  0.00     0.189 HD
ATOM     11  H   UNL     1      28.194  11.580 -24.767  1.00  0.00     0.162 HD
BRANCH   9  12
ATOM     12  C   UNL     1      29.787  12.647 -25.607  1.00  0.00     0.114 C 
BRANCH  12  13
ATOM     13  C   UNL     1      30.574  12.624 -24.295  1.00  0.00     0.022 C 
BRANCH  13  14
ATOM     14  C   UNL     1      30.614  11.238 -23.643  1.00  0.00     0.007 C 
BRANCH  14  15
ATOM     15  C   UNL     1      30.290  11.323 -22.147  1.00  0.00     0.043 C 
BRANCH  15  16
ATOM     16  C   UNL     1      31.448  10.876 -21.296  1.00  0.00     0.037 A 
ATOM     17  C   UNL     1      32.454  11.736 -20.875  1.00  0.00     0.134 A 
ATOM     18  C   UNL     1      31.601   9.558 -20.892  1.00  0.00     0.134 A 
ATOM     19  N   UNL     1      33.476  11.333 -20.113  1.00  0.00    -0.196 NA
ATOM     20  N   UNL     1      32.614   9.136 -20.126  1.00  0.00    -0.196 NA
ATOM     21  C   UNL     1      33.503  10.054 -19.752  1.00  0.00     0.223 A 
BRANCH  17  22
ATOM     22  N   UNL     1      32.430  13.103 -21.184  1.00  0.00    -0.383 N 
ATOM     23  H   UNL     1      32.850  13.250 -22.097  1.00  0.00     0.158 HD
ATOM     24  H   UNL     1      32.949  13.638 -20.498  1.00  0.00     0.158 HD
ENDBRANCH  17  22
BRANCH  18  25
ATOM     25  N   UNL     1      30.680   8.567 -21.238  1.00  0.00    -0.383 N 
ATOM     26  H   UNL     1      30.022   8.887 -21.940  1.00  0.00     0.158 HD
ATOM     27  H   UNL     1      31.217   7.770 -21.573  1.00  0.00     0.158 HD
ENDBRANCH  18  25
BRANCH  21  28
ATOM     28  N   UNL     1      34.565   9.636 -18.975  1.00  0.00    -0.368 N 
ATOM     29  H   UNL     1      35.002  10.440 -18.548  1.00  0.00     0.159 HD
ATOM     30  H   UNL     1      35.152   9.006 -19.502  1.00  0.00     0.159 HD
ENDBRANCH  21  28
ENDBRANCH  15  16
ENDBRANCH  14  15
ENDBRANCH  13  14
ENDBRANCH  12  13
ENDBRANCH   9  12
ENDBRANCH   1   7
BRANCH   4  31
ATOM     31  C   UNL     1      22.153  12.131 -23.387  1.00  0.00     0.125 C 
ATOM     32  N   UNL     1      21.749  10.904 -23.287  1.00  0.00    -0.284 NA
ATOM     33  N   UNL     1      21.339  13.178 -23.039  1.00  0.00    -0.370 N 
ATOM     34  H   UNL     1      22.458  10.250 -23.631  1.00  0.00     0.189 HD
ATOM     35  H   UNL     1      21.802  14.056 -22.828  1.00  0.00     0.162 HD
BRANCH  33  36
ATOM     36  C   UNL     1      20.080  12.983 -22.340  1.00  0.00     0.114 C 
BRANCH  36  37
ATOM     37  C   UNL     1      18.918  13.026 -23.334  1.00  0.00     0.022 C 
BRANCH  37  38
ATOM     38  C   UNL     1      17.554  12.935 -22.637  1.00  0.00     0.007 C 
BRANCH  38  39
ATOM     39  C   UNL     1      16.940  11.530 -22.695  1.00  0.00     0.043 C 
BRANCH  39  40
ATOM     40  C   UNL     1      17.358  10.639 -21.555  1.00  0.00     0.037 A 
ATOM     41  C   UNL     1      16.767  10.693 -20.302  1.00  0.00     0.134 A 
ATOM     42  C   UNL     1      18.327   9.657 -21.696  1.00  0.00     0.134 A 
ATOM     43  N   UNL     1      17.076   9.850 -19.309  1.00  0.00    -0.196 NA
ATOM     44  N   UNL     1      18.658   8.805 -20.718  1.00  0.00    -0.196 NA
ATOM     45  C   UNL     1      17.998   8.925 -19.568  1.00  0.00     0.223 A 
BRANCH  41  46
ATOM     46  N   UNL     1      15.772  11.620 -19.990  1.00  0.00    -0.383 N 
ATOM     47  H   UNL     1      15.922  11.905 -19.025  1.00  0.00     0.158 HD
ATOM     48  H   UNL     1      15.789  12.417 -20.617  1.00  0.00     0.158 HD
ENDBRANCH  41  46
BRANCH  42  49
ATOM     49  N   UNL     1      19.012   9.461 -22.896  1.00  0.00    -0.383 N 
ATOM     50  H   UNL     1      19.166  10.328 -23.395  1.00  0.00     0.158 HD
ATOM     51  H   UNL     1      19.890   9.000 -22.667  1.00  0.00     0.158 HD
ENDBRANCH  42  49
BRANCH  45  52
ATOM     52  N   UNL     1      18.333   8.057 -18.550  1.00  0.00    -0.368 N 
ATOM     53  H   UNL     1      17.664   7.300 -18.508  1.00  0.00     0.159 HD
ATOM     54  H   UNL     1      18.506   8.576 -17.700  1.00  0.00     0.159 HD
ENDBRANCH  45  52
ENDBRANCH  39  40
ENDBRANCH  38  39
ENDBRANCH  37  38
ENDBRANCH  36  37
ENDBRANCH  33  36
ENDBRANCH   4  31
TORSDOF 18
ENDMDL
