MODEL 1
REMARK VINA RESULT:      -6.4      0.000      0.000
REMARK SMILES O=c1[nH]c(NC2CCCCC2)nc2[nH]cnc12
REMARK SMILES IDX 1 1 2 2 3 3 4 4 5 5 12 6 13 7 14 8 15 9 16 10 17 11 6 15
REMARK SMILES IDX 7 16 11 17 8 18 10 19 9 20
REMARK H PARENT 3 12 5 13 14 14
ROOT
ATOM      1  O   UNL     1      22.772  16.676 -11.167  1.00  0.00    -0.267 OA
ATOM      2  C   UNL     1      23.756  17.383 -10.973  1.00  0.00     0.280 C 
ATOM      3  N   UNL     1      23.796  18.322  -9.948  1.00  0.00    -0.291 N 
ATOM      4  C   UNL     1      24.864  19.168  -9.669  1.00  0.00     0.205 C 
ATOM      5  N   UNL     1      24.646  20.004  -8.613  1.00  0.00    -0.353 N 
ATOM      6  N   UNL     1      25.964  19.150 -10.368  1.00  0.00    -0.195 NA
ATOM      7  C   UNL     1      25.967  18.245 -11.369  1.00  0.00     0.166 A 
ATOM      8  N   UNL     1      26.989  18.023 -12.241  1.00  0.00    -0.329 N 
ATOM      9  C   UNL     1      26.584  17.026 -13.091  1.00  0.00     0.199 A 
ATOM     10  N   UNL     1      25.366  16.602 -12.813  1.00  0.00    -0.229 NA
ATOM     11  C   UNL     1      24.980  17.364 -11.738  1.00  0.00     0.173 A 
ATOM     12  H   UNL     1      22.950  18.378  -9.409  1.00  0.00     0.173 HD
ATOM     13  H   UNL     1      23.834  19.801  -8.044  1.00  0.00     0.163 HD
ATOM     14  H   UNL     1      27.873  18.508 -12.248  1.00  0.00     0.169 HD
ENDROOT
BRANCH   5  15
ATOM     15  C   UNL     1      25.590  20.905  -7.957  1.00  0.00     0.082 C 
ATOM     16  C   UNL     1      26.310  20.281  -6.756  1.00  0.00     0.025 C 
ATOM     17  C   UNL     1      25.010  22.305  -7.728  1.00  0.00     0.025 C 
ATOM     18  C   UNL     1      25.738  20.618  -5.382  1.00  0.00     0.002 C 
ATOM     19  C   UNL     1      24.425  22.542  -6.340  1.00  0.00     0.002 C 
ATOM     20  C   UNL     1      25.381  22.092  -5.243  1.00  0.00     0.000 C 
ENDBRANCH   5  15
TORSDOF 1
ENDMDL
MODEL 2
REMARK VINA RESULT:      -6.2      1.924      2.064
REMARK SMILES O=c1[nH]c(NC2CCCCC2)nc2[nH]cnc12
REMARK SMILES IDX 1 1 2 2 3 3 4 4 5 5 12 6 13 7 14 8 15 9 16 10 17 11 6 15
REMARK SMILES IDX 7 16 11 17 8 18 10 19 9 20
REMARK H PARENT 3 12 5 13 14 14
ROOT
ATOM      1  O   UNL     1      22.343  16.133 -11.500  1.00  0.00    -0.267 OA
ATOM      2  C   UNL     1      23.062  16.972 -10.967  1.00  0.00     0.280 C 
ATOM      3  N   UNL     1      22.680  17.633  -9.804  1.00  0.00    -0.291 N 
ATOM      4  C   UNL     1      23.427  18.604  -9.145  1.00  0.00     0.205 C 
ATOM      5  N   UNL     1      22.821  19.103  -8.029  1.00  0.00    -0.353 N 
ATOM      6  N   UNL     1      24.596  18.990  -9.574  1.00  0.00    -0.195 NA
ATOM      7  C   UNL     1      25.005  18.364 -10.698  1.00  0.00     0.166 A 
ATOM      8  N   UNL     1      26.183  18.580 -11.346  1.00  0.00    -0.329 N 
ATOM      9  C   UNL     1      26.203  17.743 -12.432  1.00  0.00     0.199 A 
ATOM     10  N   UNL     1      25.109  17.011 -12.514  1.00  0.00    -0.229 NA
ATOM     11  C   UNL     1      24.360  17.399 -11.431  1.00  0.00     0.173 A 
ATOM     12  H   UNL     1      21.769  17.376  -9.466  1.00  0.00     0.173 HD
ATOM     13  H   UNL     1      22.006  18.601  -7.701  1.00  0.00     0.163 HD
ATOM     14  H   UNL     1      26.898  19.234 -11.067  1.00  0.00     0.169 HD
ENDROOT
BRANCH   5  15
ATOM     15  C   UNL     1      23.372  20.012  -7.026  1.00  0.00     0.082 C 
ATOM     16  C   UNL     1      24.551  19.426  -6.240  1.00  0.00     0.025 C 
ATOM     17  C   UNL     1      22.286  20.691  -6.184  1.00  0.00     0.025 C 
ATOM     18  C   UNL     1      24.220  18.844  -4.869  1.00  0.00     0.002 C 
ATOM     19  C   UNL     1      21.994  20.021  -4.846  1.00  0.00     0.002 C 
ATOM     20  C   UNL     1      23.272  19.730  -4.072  1.00  0.00     0.000 C 
ENDBRANCH   5  15
TORSDOF 1
ENDMDL
MODEL 3
REMARK VINA RESULT:      -6.2      1.575      2.507
REMARK SMILES O=c1[nH]c(NC2CCCCC2)nc2[nH]cnc12
REMARK SMILES IDX 1 1 2 2 3 3 4 4 5 5 12 6 13 7 14 8 15 9 16 10 17 11 6 15
REMARK SMILES IDX 7 16 11 17 8 18 10 19 9 20
REMARK H PARENT 3 12 5 13 14 14
ROOT
ATOM      1  O   UNL     1      27.203  18.267 -12.394  1.00  0.00    -0.267 OA
ATOM      2  C   UNL     1      26.268  18.389 -11.610  1.00  0.00     0.280 C 
ATOM      3  N   UNL     1      26.340  19.232 -10.506  1.00  0.00    -0.291 N 
ATOM      4  C   UNL     1      25.333  19.417  -9.565  1.00  0.00     0.205 C 
ATOM      5  N   UNL     1      25.659  20.295  -8.572  1.00  0.00    -0.353 N 
ATOM      6  N   UNL     1      24.189  18.797  -9.641  1.00  0.00    -0.195 NA
ATOM      7  C   UNL     1      24.078  17.974 -10.705  1.00  0.00     0.166 A 
ATOM      8  N   UNL     1      22.991  17.216 -11.016  1.00  0.00    -0.329 N 
ATOM      9  C   UNL     1      23.292  16.534 -12.167  1.00  0.00     0.199 A 
ATOM     10  N   UNL     1      24.504  16.812 -12.605  1.00  0.00    -0.229 NA
ATOM     11  C   UNL     1      24.996  17.710 -11.692  1.00  0.00     0.173 A 
ATOM     12  H   UNL     1      27.222  19.703 -10.406  1.00  0.00     0.173 HD
ATOM     13  H   UNL     1      26.497  20.843  -8.719  1.00  0.00     0.163 HD
ATOM     14  H   UNL     1      22.131  17.173 -10.490  1.00  0.00     0.169 HD
ENDROOT
BRANCH   5  15
ATOM     15  C   UNL     1      24.804  20.833  -7.518  1.00  0.00     0.082 C 
ATOM     16  C   UNL     1      25.057  22.314  -7.210  1.00  0.00     0.025 C 
ATOM     17  C   UNL     1      24.713  19.909  -6.299  1.00  0.00     0.025 C 
ATOM     18  C   UNL     1      25.948  22.605  -6.005  1.00  0.00     0.002 C 
ATOM     19  C   UNL     1      25.665  20.251  -5.158  1.00  0.00     0.002 C 
ATOM     20  C   UNL     1      25.611  21.731  -4.805  1.00  0.00     0.000 C 
ENDBRANCH   5  15
TORSDOF 1
ENDMDL
