MODEL 1
REMARK VINA RESULT:      -7.8      0.000      0.000
REMARK SMILES O=c1c(O)c(-c2cc(O)c(O)c(O)c2)oc2cc(O)cc(O)c12
REMARK SMILES IDX 1 1 2 2 3 3 5 4 15 5 16 6 17 7 18 8 20 9 21 10 23 11 4 12
REMARK SMILES IDX 6 14 7 15 14 16 8 17 12 18 10 19 9 20 13 22 11 24 22 26
REMARK SMILES IDX 19 28
REMARK H PARENT 4 13 9 21 13 23 11 25 22 27 19 29
ROOT
ATOM      1  O   UNL     1      22.291  16.715 -10.872  1.00  0.00    -0.285 OA
ATOM      2  C   UNL     1      23.022  17.525 -10.313  1.00  0.00     0.238 C 
ATOM      3  C   UNL     1      22.580  18.053  -8.996  1.00  0.00     0.208 C 
ATOM      4  C   UNL     1      23.359  18.933  -8.345  1.00  0.00     0.180 C 
ATOM      5  O   UNL     1      24.579  19.384  -8.826  1.00  0.00    -0.452 OA
ATOM      6  C   UNL     1      25.017  18.938 -10.048  1.00  0.00     0.146 A 
ATOM      7  C   UNL     1      26.242  19.456 -10.480  1.00  0.00     0.094 A 
ATOM      8  C   UNL     1      26.755  19.052 -11.706  1.00  0.00     0.123 A 
ATOM      9  C   UNL     1      26.066  18.144 -12.505  1.00  0.00     0.093 A 
ATOM     10  C   UNL     1      24.843  17.631 -12.069  1.00  0.00     0.134 A 
ATOM     11  C   UNL     1      24.309  18.026 -10.836  1.00  0.00     0.111 A 
ENDROOT
BRANCH   3  12
ATOM     12  O   UNL     1      21.374  17.576  -8.514  1.00  0.00    -0.502 OA
ATOM     13  H   UNL     1      21.578  16.665  -8.206  1.00  0.00     0.293 HD
ENDBRANCH   3  12
BRANCH   4  14
ATOM     14  C   UNL     1      23.013  19.504  -7.025  1.00  0.00     0.029 A 
ATOM     15  C   UNL     1      23.775  19.153  -5.893  1.00  0.00     0.062 A 
ATOM     16  C   UNL     1      21.963  20.426  -6.878  1.00  0.00     0.062 A 
ATOM     17  C   UNL     1      23.484  19.704  -4.644  1.00  0.00     0.162 A 
ATOM     18  C   UNL     1      21.680  20.964  -5.626  1.00  0.00     0.162 A 
ATOM     19  C   UNL     1      22.438  20.610  -4.513  1.00  0.00     0.200 A 
BRANCH  17  20
ATOM     20  O   UNL     1      24.221  19.360  -3.545  1.00  0.00    -0.504 OA
ATOM     21  H   UNL     1      23.884  19.834  -2.771  1.00  0.00     0.293 HD
ENDBRANCH  17  20
BRANCH  18  22
ATOM     22  O   UNL     1      20.659  21.858  -5.443  1.00  0.00    -0.504 OA
ATOM     23  H   UNL     1      20.454  21.893  -4.492  1.00  0.00     0.293 HD
ENDBRANCH  18  22
BRANCH  19  24
ATOM     24  O   UNL     1      22.136  21.162  -3.299  1.00  0.00    -0.502 OA
ATOM     25  H   UNL     1      21.554  21.918  -3.509  1.00  0.00     0.293 HD
ENDBRANCH  19  24
ENDBRANCH   4  14
BRANCH  10  26
ATOM     26  O   UNL     1      24.180  16.743 -12.866  1.00  0.00    -0.507 OA
ATOM     27  H   UNL     1      24.812  16.229 -13.395  1.00  0.00     0.293 HD
ENDBRANCH  10  26
BRANCH   8  28
ATOM     28  O   UNL     1      27.943  19.528 -12.173  1.00  0.00    -0.508 OA
ATOM     29  H   UNL     1      27.788  20.045 -12.981  1.00  0.00     0.293 HD
ENDBRANCH   8  28
TORSDOF 7
ENDMDL
MODEL 2
REMARK VINA RESULT:      -7.8      0.105      1.725
REMARK SMILES O=c1c(O)c(-c2cc(O)c(O)c(O)c2)oc2cc(O)cc(O)c12
REMARK SMILES IDX 1 1 2 2 3 3 5 4 15 5 16 6 17 7 18 8 20 9 21 10 23 11 4 12
REMARK SMILES IDX 6 14 7 15 14 16 8 17 12 18 10 19 9 20 13 22 11 24 22 26
REMARK SMILES IDX 19 28
REMARK H PARENT 4 13 9 21 13 23 11 25 22 27 19 29
ROOT
ATOM      1  O   UNL     1      22.289  16.726 -10.872  1.00  0.00    -0.285 OA
ATOM      2  C   UNL     1      23.023  17.532 -10.311  1.00  0.00     0.238 C 
ATOM      3  C   UNL     1      22.586  18.054  -8.991  1.00  0.00     0.208 C 
ATOM      4  C   UNL     1      23.369  18.930  -8.338  1.00  0.00     0.180 C 
ATOM      5  O   UNL     1      24.588  19.381  -8.820  1.00  0.00    -0.452 OA
ATOM      6  C   UNL     1      25.022  18.941 -10.046  1.00  0.00     0.146 A 
ATOM      7  C   UNL     1      26.246  19.457 -10.479  1.00  0.00     0.094 A 
ATOM      8  C   UNL     1      26.755  19.058 -11.709  1.00  0.00     0.123 A 
ATOM      9  C   UNL     1      26.062  18.155 -12.509  1.00  0.00     0.093 A 
ATOM     10  C   UNL     1      24.839  17.643 -12.072  1.00  0.00     0.134 A 
ATOM     11  C   UNL     1      24.310  18.033 -10.835  1.00  0.00     0.111 A 
ENDROOT
BRANCH   3  12
ATOM     12  O   UNL     1      21.380  17.578  -8.507  1.00  0.00    -0.502 OA
ATOM     13  H   UNL     1      20.778  17.607  -9.283  1.00  0.00     0.293 HD
ENDBRANCH   3  12
BRANCH   4  14
ATOM     14  C   UNL     1      23.028  19.496  -7.014  1.00  0.00     0.029 A 
ATOM     15  C   UNL     1      21.997  20.451  -6.910  1.00  0.00     0.062 A 
ATOM     16  C   UNL     1      23.682  19.072  -5.845  1.00  0.00     0.062 A 
ATOM     17  C   UNL     1      21.638  20.974  -5.667  1.00  0.00     0.162 A 
ATOM     18  C   UNL     1      23.318  19.606  -4.612  1.00  0.00     0.162 A 
ATOM     19  C   UNL     1      22.298  20.550  -4.520  1.00  0.00     0.200 A 
BRANCH  17  20
ATOM     20  O   UNL     1      20.640  21.903  -5.567  1.00  0.00    -0.504 OA
ATOM     21  H   UNL     1      19.795  21.493  -5.798  1.00  0.00     0.293 HD
ENDBRANCH  17  20
BRANCH  18  22
ATOM     22  O   UNL     1      23.940  19.224  -3.453  1.00  0.00    -0.504 OA
ATOM     23  H   UNL     1      23.273  18.820  -2.870  1.00  0.00     0.293 HD
ENDBRANCH  18  22
BRANCH  19  24
ATOM     24  O   UNL     1      21.964  21.050  -3.292  1.00  0.00    -0.502 OA
ATOM     25  H   UNL     1      21.059  21.401  -3.405  1.00  0.00     0.293 HD
ENDBRANCH  19  24
ENDBRANCH   4  14
BRANCH  10  26
ATOM     26  O   UNL     1      24.173  16.759 -12.871  1.00  0.00    -0.507 OA
ATOM     27  H   UNL     1      24.614  15.894 -12.859  1.00  0.00     0.293 HD
ENDBRANCH  10  26
BRANCH   8  28
ATOM     28  O   UNL     1      27.943  19.535 -12.177  1.00  0.00    -0.508 OA
ATOM     29  H   UNL     1      28.544  19.691 -11.429  1.00  0.00     0.293 HD
ENDBRANCH   8  28
TORSDOF 7
ENDMDL
MODEL 3
REMARK VINA RESULT:      -7.6      1.319      6.862
REMARK SMILES O=c1c(O)c(-c2cc(O)c(O)c(O)c2)oc2cc(O)cc(O)c12
REMARK SMILES IDX 1 1 2 2 3 3 5 4 15 5 16 6 17 7 18 8 20 9 21 10 23 11 4 12
REMARK SMILES IDX 6 14 7 15 14 16 8 17 12 18 10 19 9 20 13 22 11 24 22 26
REMARK SMILES IDX 19 28
REMARK H PARENT 4 13 9 21 13 23 11 25 22 27 19 29
ROOT
ATOM      1  O   UNL     1      21.214  18.836  -7.260  1.00  0.00    -0.285 OA
ATOM      2  C   UNL     1      22.409  19.061  -7.416  1.00  0.00     0.238 C 
ATOM      3  C   UNL     1      22.996  18.757  -8.746  1.00  0.00     0.208 C 
ATOM      4  C   UNL     1      24.299  19.002  -8.961  1.00  0.00     0.180 C 
ATOM      5  O   UNL     1      25.149  19.539  -8.007  1.00  0.00    -0.452 OA
ATOM      6  C   UNL     1      24.655  19.815  -6.757  1.00  0.00     0.146 A 
ATOM      7  C   UNL     1      25.575  20.330  -5.839  1.00  0.00     0.094 A 
ATOM      8  C   UNL     1      25.151  20.638  -4.552  1.00  0.00     0.123 A 
ATOM      9  C   UNL     1      23.828  20.441  -4.170  1.00  0.00     0.093 A 
ATOM     10  C   UNL     1      22.913  19.926  -5.090  1.00  0.00     0.134 A 
ATOM     11  C   UNL     1      23.322  19.609  -6.391  1.00  0.00     0.111 A 
ENDROOT
BRANCH   3  12
ATOM     12  O   UNL     1      22.133  18.246  -9.699  1.00  0.00    -0.502 OA
ATOM     13  H   UNL     1      21.655  17.524  -9.233  1.00  0.00     0.293 HD
ENDBRANCH   3  12
BRANCH   4  14
ATOM     14  C   UNL     1      24.972  18.746 -10.254  1.00  0.00     0.029 A 
ATOM     15  C   UNL     1      26.030  19.581 -10.665  1.00  0.00     0.062 A 
ATOM     16  C   UNL     1      24.607  17.660 -11.068  1.00  0.00     0.062 A 
ATOM     17  C   UNL     1      26.698  19.339 -11.867  1.00  0.00     0.162 A 
ATOM     18  C   UNL     1      25.278  17.433 -12.266  1.00  0.00     0.162 A 
ATOM     19  C   UNL     1      26.323  18.265 -12.664  1.00  0.00     0.200 A 
BRANCH  17  20
ATOM     20  O   UNL     1      27.722  20.151 -12.267  1.00  0.00    -0.504 OA
ATOM     21  H   UNL     1      28.554  19.830 -11.889  1.00  0.00     0.293 HD
ENDBRANCH  17  20
BRANCH  18  22
ATOM     22  O   UNL     1      24.944  16.392 -13.090  1.00  0.00    -0.504 OA
ATOM     23  H   UNL     1      25.395  15.592 -12.766  1.00  0.00     0.293 HD
ENDBRANCH  18  22
BRANCH  19  24
ATOM     24  O   UNL     1      26.963  18.010 -13.845  1.00  0.00    -0.502 OA
ATOM     25  H   UNL     1      27.758  18.577 -13.824  1.00  0.00     0.293 HD
ENDBRANCH  19  24
ENDBRANCH   4  14
BRANCH  10  26
ATOM     26  O   UNL     1      21.620  19.736  -4.696  1.00  0.00    -0.507 OA
ATOM     27  H   UNL     1      21.072  19.473  -5.454  1.00  0.00     0.293 HD
ENDBRANCH  10  26
BRANCH   8  28
ATOM     28  O   UNL     1      26.010  21.140  -3.620  1.00  0.00    -0.508 OA
ATOM     29  H   UNL     1      25.907  20.647  -2.789  1.00  0.00     0.293 HD
ENDBRANCH   8  28
TORSDOF 7
ENDMDL
