MODEL 1
REMARK VINA RESULT:      -8.3      0.000      0.000
REMARK SMILES Cc1cn2nc(-c3cc(=O)n4cc(N5CCNC6(CC6)C5)ccc4n3)cc(C)c2n1
REMARK SMILES IDX 7 1 8 2 9 3 10 4 11 5 12 6 13 7 22 8 23 9 24 10 25 11 6 12
REMARK SMILES IDX 2 13 3 14 30 15 4 16 29 17 5 18 27 19 26 20 1 21 28 22 14 23
REMARK SMILES IDX 15 24 21 25 16 26 18 27 17 28 19 29 20 30
REMARK H PARENT 17 31
ROOT
ATOM      1  C   UNL     1      19.803  11.683 -22.154  1.00  0.00     0.098 C 
ATOM      2  C   UNL     1      19.760  12.985 -22.446  1.00  0.00     0.103 C 
ATOM      3  C   UNL     1      20.945  13.579 -23.080  1.00  0.00     0.258 C 
ATOM      4  O   UNL     1      20.973  14.796 -23.246  1.00  0.00    -0.269 OA
ATOM      5  N   UNL     1      21.958  12.687 -23.428  1.00  0.00    -0.266 N 
ATOM      6  C   UNL     1      23.081  13.168 -24.094  1.00  0.00     0.122 C 
ATOM      7  C   UNL     1      24.104  12.382 -24.492  1.00  0.00     0.054 C 
ATOM      8  C   UNL     1      24.024  10.967 -24.135  1.00  0.00     0.031 C 
ATOM      9  C   UNL     1      22.985  10.459 -23.465  1.00  0.00     0.050 C 
ATOM     10  C   UNL     1      21.854  11.349 -23.073  1.00  0.00     0.140 C 
ATOM     11  N   UNL     1      20.850  10.840 -22.429  1.00  0.00    -0.228 NA
ENDROOT
BRANCH   1  12
ATOM     12  C   UNL     1      18.585  11.123 -21.490  1.00  0.00     0.110 C 
ATOM     13  C   UNL     1      14.551  10.603 -19.910  1.00  0.00     0.058 A 
ATOM     14  C   UNL     1      15.186  11.550 -20.689  1.00  0.00     0.138 A 
ATOM     15  N   UNL     1      15.403   9.588 -19.599  1.00  0.00    -0.232 NA
ATOM     16  N   UNL     1      16.471  11.109 -20.830  1.00  0.00    -0.220 N 
ATOM     17  C   UNL     1      16.557   9.888 -20.171  1.00  0.00     0.156 A 
ATOM     18  N   UNL     1      17.455  11.779 -21.483  1.00  0.00    -0.165 NA
ATOM     19  C   UNL     1      17.804   9.207 -20.188  1.00  0.00    -0.004 C 
ATOM     20  C   UNL     1      18.815   9.784 -20.864  1.00  0.00     0.039 C 
ATOM     21  C   UNL     1      13.149  10.585 -19.433  1.00  0.00     0.068 C 
ATOM     22  C   UNL     1      18.024   7.894 -19.478  1.00  0.00     0.048 C 
ENDBRANCH   1  12
BRANCH   7  23
ATOM     23  N   UNL     1      25.243  12.828 -25.167  1.00  0.00    -0.367 N 
ATOM     24  C   UNL     1      26.019  14.021 -24.754  1.00  0.00     0.132 C 
ATOM     25  C   UNL     1      25.449  12.558 -26.607  1.00  0.00     0.139 C 
ATOM     26  C   UNL     1      25.597  15.265 -25.557  1.00  0.00     0.103 C 
ATOM     27  C   UNL     1      25.110  13.814 -27.433  1.00  0.00     0.036 C 
ATOM     28  N   UNL     1      25.785  15.074 -27.004  1.00  0.00    -0.308 NA
ATOM     29  C   UNL     1      24.880  13.629 -28.926  1.00  0.00     0.026 C 
ATOM     30  C   UNL     1      23.715  13.931 -28.018  1.00  0.00     0.026 C 
ATOM     31  H   UNL     1      25.391  15.876 -27.491  1.00  0.00     0.123 HD
ENDBRANCH   7  23
TORSDOF 2
ENDMDL
MODEL 2
REMARK VINA RESULT:      -8.2      1.783      9.769
REMARK SMILES Cc1cn2nc(-c3cc(=O)n4cc(N5CCNC6(CC6)C5)ccc4n3)cc(C)c2n1
REMARK SMILES IDX 7 1 8 2 9 3 10 4 11 5 12 6 13 7 22 8 23 9 24 10 25 11 6 12
REMARK SMILES IDX 2 13 3 14 30 15 4 16 29 17 5 18 27 19 26 20 1 21 28 22 14 23
REMARK SMILES IDX 15 24 21 25 16 26 18 27 17 28 19 29 20 30
REMARK H PARENT 17 31
ROOT
ATOM      1  C   UNL     1      23.142  12.730 -24.055  1.00  0.00     0.098 C 
ATOM      2  C   UNL     1      22.403  13.779 -23.686  1.00  0.00     0.103 C 
ATOM      3  C   UNL     1      20.997  13.530 -23.337  1.00  0.00     0.258 C 
ATOM      4  O   UNL     1      20.270  14.494 -23.111  1.00  0.00    -0.269 OA
ATOM      5  N   UNL     1      20.607  12.192 -23.307  1.00  0.00    -0.266 N 
ATOM      6  C   UNL     1      19.309  11.876 -22.917  1.00  0.00     0.122 C 
ATOM      7  C   UNL     1      18.844  10.612 -22.835  1.00  0.00     0.054 C 
ATOM      8  C   UNL     1      19.757   9.546 -23.243  1.00  0.00     0.031 C 
ATOM      9  C   UNL     1      21.002   9.796 -23.659  1.00  0.00     0.050 C 
ATOM     10  C   UNL     1      21.498  11.203 -23.702  1.00  0.00     0.140 C 
ATOM     11  N   UNL     1      22.710  11.429 -24.103  1.00  0.00    -0.228 NA
ENDROOT
BRANCH   1  12
ATOM     12  C   UNL     1      24.561  13.030 -24.424  1.00  0.00     0.110 C 
ATOM     13  C   UNL     1      28.907  12.887 -24.778  1.00  0.00     0.058 A 
ATOM     14  C   UNL     1      27.940  12.073 -24.222  1.00  0.00     0.138 A 
ATOM     15  N   UNL     1      28.338  13.969 -25.376  1.00  0.00    -0.232 NA
ATOM     16  N   UNL     1      26.750  12.698 -24.465  1.00  0.00    -0.220 N 
ATOM     17  C   UNL     1      27.033  13.844 -25.199  1.00  0.00     0.156 A 
ATOM     18  N   UNL     1      25.539  12.258 -24.033  1.00  0.00    -0.165 NA
ATOM     19  C   UNL     1      25.946  14.667 -25.598  1.00  0.00    -0.004 C 
ATOM     20  C   UNL     1      24.708  14.266 -25.253  1.00  0.00     0.039 C 
ATOM     21  C   UNL     1      30.377  12.701 -24.795  1.00  0.00     0.068 C 
ATOM     22  C   UNL     1      26.136  15.950 -26.367  1.00  0.00     0.048 C 
ENDBRANCH   1  12
BRANCH   7  23
ATOM     23  N   UNL     1      17.550  10.257 -22.443  1.00  0.00    -0.367 N 
ATOM     24  C   UNL     1      16.541  11.239 -21.980  1.00  0.00     0.132 C 
ATOM     25  C   UNL     1      17.242   8.914 -21.902  1.00  0.00     0.139 C 
ATOM     26  C   UNL     1      16.509  11.320 -20.442  1.00  0.00     0.103 C 
ATOM     27  C   UNL     1      17.125   8.979 -20.367  1.00  0.00     0.036 C 
ATOM     28  N   UNL     1      16.197  10.018 -19.831  1.00  0.00    -0.308 NA
ATOM     29  C   UNL     1      17.205   7.666 -19.603  1.00  0.00     0.026 C 
ATOM     30  C   UNL     1      18.351   8.642 -19.540  1.00  0.00     0.026 C 
ATOM     31  H   UNL     1      16.295  10.101 -18.822  1.00  0.00     0.123 HD
ENDBRANCH   7  23
TORSDOF 2
ENDMDL
MODEL 3
REMARK VINA RESULT:      -8.2      1.069      2.161
REMARK SMILES Cc1cn2nc(-c3cc(=O)n4cc(N5CCNC6(CC6)C5)ccc4n3)cc(C)c2n1
REMARK SMILES IDX 7 1 8 2 9 3 10 4 11 5 12 6 13 7 22 8 23 9 24 10 25 11 6 12
REMARK SMILES IDX 2 13 3 14 30 15 4 16 29 17 5 18 27 19 26 20 1 21 28 22 14 23
REMARK SMILES IDX 15 24 21 25 16 26 18 27 17 28 19 29 20 30
REMARK H PARENT 17 31
ROOT
ATOM      1  C   UNL     1      19.585  11.648 -22.166  1.00  0.00     0.098 C 
ATOM      2  C   UNL     1      19.503  12.958 -22.409  1.00  0.00     0.103 C 
ATOM      3  C   UNL     1      20.659  13.605 -23.044  1.00  0.00     0.258 C 
ATOM      4  O   UNL     1      20.653  14.828 -23.166  1.00  0.00    -0.269 OA
ATOM      5  N   UNL     1      21.686  12.753 -23.446  1.00  0.00    -0.266 N 
ATOM      6  C   UNL     1      22.782  13.286 -24.117  1.00  0.00     0.122 C 
ATOM      7  C   UNL     1      23.815  12.542 -24.565  1.00  0.00     0.054 C 
ATOM      8  C   UNL     1      23.778  11.113 -24.259  1.00  0.00     0.031 C 
ATOM      9  C   UNL     1      22.767  10.555 -23.587  1.00  0.00     0.050 C 
ATOM     10  C   UNL     1      21.622  11.401 -23.139  1.00  0.00     0.140 C 
ATOM     11  N   UNL     1      20.646  10.843 -22.493  1.00  0.00    -0.228 NA
ENDROOT
BRANCH   1  12
ATOM     12  C   UNL     1      18.395  11.033 -21.498  1.00  0.00     0.110 C 
ATOM     13  C   UNL     1      14.373  10.292 -19.979  1.00  0.00     0.058 A 
ATOM     14  C   UNL     1      14.955  11.242 -20.796  1.00  0.00     0.138 A 
ATOM     15  N   UNL     1      15.291   9.364 -19.594  1.00  0.00    -0.232 NA
ATOM     16  N   UNL     1      16.272  10.893 -20.884  1.00  0.00    -0.220 N 
ATOM     17  C   UNL     1      16.433   9.720 -20.156  1.00  0.00     0.156 A 
ATOM     18  N   UNL     1      17.220  11.600 -21.552  1.00  0.00    -0.165 NA
ATOM     19  C   UNL     1      17.727   9.136 -20.109  1.00  0.00    -0.004 C 
ATOM     20  C   UNL     1      18.709   9.752 -20.794  1.00  0.00     0.039 C 
ATOM     21  C   UNL     1      12.964  10.192 -19.532  1.00  0.00     0.068 C 
ATOM     22  C   UNL     1      18.027   7.884 -19.322  1.00  0.00     0.048 C 
ENDBRANCH   1  12
BRANCH   7  23
ATOM     23  N   UNL     1      24.928  13.042 -25.246  1.00  0.00    -0.367 N 
ATOM     24  C   UNL     1      25.275  12.655 -26.634  1.00  0.00     0.132 C 
ATOM     25  C   UNL     1      26.137  13.504 -24.527  1.00  0.00     0.139 C 
ATOM     26  C   UNL     1      26.324  11.528 -26.652  1.00  0.00     0.103 C 
ATOM     27  C   UNL     1      27.236  12.426 -24.596  1.00  0.00     0.036 C 
ATOM     28  N   UNL     1      27.563  11.921 -25.961  1.00  0.00    -0.308 NA
ATOM     29  C   UNL     1      28.386  12.536 -23.607  1.00  0.00     0.026 C 
ATOM     30  C   UNL     1      27.355  11.450 -23.441  1.00  0.00     0.026 C 
ATOM     31  H   UNL     1      28.175  11.110 -25.907  1.00  0.00     0.123 HD
ENDBRANCH   7  23
TORSDOF 2
ENDMDL
