MODEL 1
REMARK VINA RESULT:      -8.4      0.000      0.000
REMARK SMILES O=C(Nc1cccc(C2=NCCN2)c1)c1ccc(-c2ccc(C(=O)Nc3cccc(C4=NCCN4)c3)cc2)cc1
REMARK SMILES IDX 15 1 16 2 17 3 18 4 39 5 40 6 2 7 1 8 3 9 4 11 5 12 14 13
REMARK SMILES IDX 6 14 8 15 7 16 9 17 10 18 13 19 11 20 12 21 19 23 20 24
REMARK SMILES IDX 38 25 21 26 37 27 22 28 23 29 24 30 25 31 26 33 27 34 36 35
REMARK SMILES IDX 28 36 30 37 29 38 31 39 32 40 35 41 33 42 34 43
REMARK H PARENT 3 10 13 22 25 32 35 44
ROOT
ATOM      1  C   UNL     1      19.218  11.404 -22.091  1.00  0.00     0.040 A 
ATOM      2  C   UNL     1      19.023  12.609 -22.772  1.00  0.00     0.014 A 
ATOM      3  C   UNL     1      20.037  13.118 -23.591  1.00  0.00     0.009 A 
ATOM      4  C   UNL     1      21.260  12.441 -23.750  1.00  0.00    -0.018 A 
ATOM      5  C   UNL     1      21.439  11.238 -23.043  1.00  0.00     0.009 A 
ATOM      6  C   UNL     1      20.434  10.728 -22.216  1.00  0.00     0.014 A 
ENDROOT
BRANCH   1   7
ATOM      7  C   UNL     1      18.166  10.817 -21.217  1.00  0.00     0.255 C 
ATOM      8  O   UNL     1      18.520  10.129 -20.267  1.00  0.00    -0.269 OA
ATOM      9  N   UNL     1      16.871  11.086 -21.617  1.00  0.00    -0.322 N 
ATOM     10  H   UNL     1      16.753  11.575 -22.496  1.00  0.00     0.170 HD
BRANCH   9  11
ATOM     11  C   UNL     1      15.677  10.648 -21.004  1.00  0.00     0.042 A 
ATOM     12  C   UNL     1      14.929   9.556 -21.446  1.00  0.00     0.026 A 
ATOM     13  C   UNL     1      15.231  11.366 -19.888  1.00  0.00     0.038 A 
ATOM     14  C   UNL     1      13.746   9.194 -20.794  1.00  0.00     0.003 A 
ATOM     15  C   UNL     1      14.048  11.006 -19.230  1.00  0.00     0.018 A 
ATOM     16  C   UNL     1      13.300   9.920 -19.691  1.00  0.00     0.012 A 
BRANCH  15  17
ATOM     17  C   UNL     1      13.599  11.796 -18.053  1.00  0.00     0.128 C 
ATOM     18  N   UNL     1      14.378  11.968 -17.011  1.00  0.00    -0.266 NA
ATOM     19  N   UNL     1      12.350  12.368 -17.970  1.00  0.00    -0.368 N 
ATOM     20  C   UNL     1      13.581  12.813 -16.079  1.00  0.00     0.165 C 
ATOM     21  C   UNL     1      12.144  12.795 -16.605  1.00  0.00     0.138 C 
ATOM     22  H   UNL     1      11.585  11.866 -18.403  1.00  0.00     0.162 HD
ENDBRANCH  15  17
ENDBRANCH   9  11
ENDBRANCH   1   7
BRANCH   4  23
ATOM     23  C   UNL     1      22.322  12.971 -24.628  1.00  0.00    -0.018 A 
ATOM     24  C   UNL     1      22.100  13.173 -26.002  1.00  0.00     0.009 A 
ATOM     25  C   UNL     1      23.585  13.313 -24.116  1.00  0.00     0.009 A 
ATOM     26  C   UNL     1      23.096  13.700 -26.835  1.00  0.00     0.014 A 
ATOM     27  C   UNL     1      24.586  13.837 -24.943  1.00  0.00     0.014 A 
ATOM     28  C   UNL     1      24.350  14.026 -26.309  1.00  0.00     0.040 A 
BRANCH  28  29
ATOM     29  C   UNL     1      25.443  14.612 -27.141  1.00  0.00     0.255 C 
ATOM     30  O   UNL     1      25.801  13.995 -28.138  1.00  0.00    -0.269 OA
ATOM     31  N   UNL     1      25.931  15.832 -26.707  1.00  0.00    -0.322 N 
ATOM     32  H   UNL     1      25.453  16.278 -25.936  1.00  0.00     0.170 HD
BRANCH  31  33
ATOM     33  C   UNL     1      26.989  16.580 -27.271  1.00  0.00     0.042 A 
ATOM     34  C   UNL     1      26.826  17.822 -27.886  1.00  0.00     0.026 A 
ATOM     35  C   UNL     1      28.271  16.019 -27.210  1.00  0.00     0.038 A 
ATOM     36  C   UNL     1      27.925  18.501 -28.422  1.00  0.00     0.003 A 
ATOM     37  C   UNL     1      29.372  16.688 -27.761  1.00  0.00     0.018 A 
ATOM     38  C   UNL     1      29.199  17.938 -28.359  1.00  0.00     0.012 A 
BRANCH  37  39
ATOM     39  C   UNL     1      30.715  16.058 -27.701  1.00  0.00     0.128 C 
ATOM     40  N   UNL     1      31.791  16.764 -27.446  1.00  0.00    -0.266 NA
ATOM     41  N   UNL     1      30.906  14.706 -27.876  1.00  0.00    -0.368 N 
ATOM     42  C   UNL     1      32.905  15.776 -27.488  1.00  0.00     0.165 C 
ATOM     43  C   UNL     1      32.254  14.394 -27.453  1.00  0.00     0.138 C 
ATOM     44  H   UNL     1      30.179  14.097 -27.520  1.00  0.00     0.162 HD
ENDBRANCH  37  39
ENDBRANCH  31  33
ENDBRANCH  28  29
ENDBRANCH   4  23
TORSDOF 7
ENDMDL
MODEL 2
REMARK VINA RESULT:      -8.4      3.997      4.702
REMARK SMILES O=C(Nc1cccc(C2=NCCN2)c1)c1ccc(-c2ccc(C(=O)Nc3cccc(C4=NCCN4)c3)cc2)cc1
REMARK SMILES IDX 15 1 16 2 17 3 18 4 39 5 40 6 2 7 1 8 3 9 4 11 5 12 14 13
REMARK SMILES IDX 6 14 8 15 7 16 9 17 10 18 13 19 11 20 12 21 19 23 20 24
REMARK SMILES IDX 38 25 21 26 37 27 22 28 23 29 24 30 25 31 26 33 27 34 36 35
REMARK SMILES IDX 28 36 30 37 29 38 31 39 32 40 35 41 33 42 34 43
REMARK H PARENT 3 10 13 22 25 32 35 44
ROOT
ATOM      1  C   UNL     1      18.922  11.784 -22.677  1.00  0.00     0.040 A 
ATOM      2  C   UNL     1      19.646  12.981 -22.655  1.00  0.00     0.014 A 
ATOM      3  C   UNL     1      21.015  12.972 -22.951  1.00  0.00     0.009 A 
ATOM      4  C   UNL     1      21.687  11.780 -23.275  1.00  0.00    -0.018 A 
ATOM      5  C   UNL     1      20.941  10.587 -23.276  1.00  0.00     0.009 A 
ATOM      6  C   UNL     1      19.576  10.586 -22.973  1.00  0.00     0.014 A 
ENDROOT
BRANCH   1   7
ATOM      7  C   UNL     1      17.464  11.744 -22.381  1.00  0.00     0.255 C 
ATOM      8  O   UNL     1      16.741  12.570 -22.923  1.00  0.00    -0.269 OA
ATOM      9  N   UNL     1      17.091  10.778 -21.466  1.00  0.00    -0.322 N 
ATOM     10  H   UNL     1      17.834  10.252 -21.023  1.00  0.00     0.170 HD
BRANCH   9  11
ATOM     11  C   UNL     1      15.793  10.519 -20.977  1.00  0.00     0.042 A 
ATOM     12  C   UNL     1      14.917   9.591 -21.542  1.00  0.00     0.026 A 
ATOM     13  C   UNL     1      15.374  11.250 -19.858  1.00  0.00     0.038 A 
ATOM     14  C   UNL     1      13.638   9.404 -21.008  1.00  0.00     0.003 A 
ATOM     15  C   UNL     1      14.095  11.064 -19.317  1.00  0.00     0.018 A 
ATOM     16  C   UNL     1      13.222  10.143 -19.902  1.00  0.00     0.012 A 
BRANCH  15  17
ATOM     17  C   UNL     1      13.680  11.862 -18.133  1.00  0.00     0.128 C 
ATOM     18  N   UNL     1      14.529  12.149 -17.174  1.00  0.00    -0.266 NA
ATOM     19  N   UNL     1      12.395  12.324 -17.957  1.00  0.00    -0.368 N 
ATOM     20  C   UNL     1      13.742  12.960 -16.205  1.00  0.00     0.165 C 
ATOM     21  C   UNL     1      12.272  12.791 -16.595  1.00  0.00     0.138 C 
ATOM     22  H   UNL     1      11.646  11.736 -18.299  1.00  0.00     0.162 HD
ENDBRANCH  15  17
ENDBRANCH   9  11
ENDBRANCH   1   7
BRANCH   4  23
ATOM     23  C   UNL     1      23.127  11.776 -23.603  1.00  0.00    -0.018 A 
ATOM     24  C   UNL     1      23.737  12.880 -24.224  1.00  0.00     0.009 A 
ATOM     25  C   UNL     1      23.941  10.676 -23.285  1.00  0.00     0.009 A 
ATOM     26  C   UNL     1      25.107  12.892 -24.514  1.00  0.00     0.014 A 
ATOM     27  C   UNL     1      25.310  10.679 -23.575  1.00  0.00     0.014 A 
ATOM     28  C   UNL     1      25.900  11.784 -24.199  1.00  0.00     0.040 A 
BRANCH  28  29
ATOM     29  C   UNL     1      27.370  11.747 -24.462  1.00  0.00     0.255 C 
ATOM     30  O   UNL     1      27.749  11.321 -25.547  1.00  0.00    -0.269 OA
ATOM     31  N   UNL     1      28.169  12.233 -23.442  1.00  0.00    -0.322 N 
ATOM     32  H   UNL     1      27.706  12.665 -22.654  1.00  0.00     0.170 HD
BRANCH  31  33
ATOM     33  C   UNL     1      29.581  12.269 -23.404  1.00  0.00     0.042 A 
ATOM     34  C   UNL     1      30.381  12.667 -24.475  1.00  0.00     0.026 A 
ATOM     35  C   UNL     1      30.198  11.865 -22.212  1.00  0.00     0.038 A 
ATOM     36  C   UNL     1      31.775  12.675 -24.359  1.00  0.00     0.003 A 
ATOM     37  C   UNL     1      31.594  11.856 -22.098  1.00  0.00     0.018 A 
ATOM     38  C   UNL     1      32.384  12.272 -23.171  1.00  0.00     0.012 A 
BRANCH  37  39
ATOM     39  C   UNL     1      32.220  11.401 -20.830  1.00  0.00     0.128 C 
ATOM     40  N   UNL     1      32.212  12.153 -19.755  1.00  0.00    -0.266 NA
ATOM     41  N   UNL     1      32.811  10.164 -20.698  1.00  0.00    -0.368 N 
ATOM     42  C   UNL     1      32.937  11.351 -18.732  1.00  0.00     0.165 C 
ATOM     43  C   UNL     1      33.031   9.930 -19.288  1.00  0.00     0.138 C 
ATOM     44  H   UNL     1      32.383   9.402 -21.212  1.00  0.00     0.162 HD
ENDBRANCH  37  39
ENDBRANCH  31  33
ENDBRANCH  28  29
ENDBRANCH   4  23
TORSDOF 7
ENDMDL
MODEL 3
REMARK VINA RESULT:      -8.3      4.611      5.666
REMARK SMILES O=C(Nc1cccc(C2=NCCN2)c1)c1ccc(-c2ccc(C(=O)Nc3cccc(C4=NCCN4)c3)cc2)cc1
REMARK SMILES IDX 15 1 16 2 17 3 18 4 39 5 40 6 2 7 1 8 3 9 4 11 5 12 14 13
REMARK SMILES IDX 6 14 8 15 7 16 9 17 10 18 13 19 11 20 12 21 19 23 20 24
REMARK SMILES IDX 38 25 21 26 37 27 22 28 23 29 24 30 25 31 26 33 27 34 36 35
REMARK SMILES IDX 28 36 30 37 29 38 31 39 32 40 35 41 33 42 34 43
REMARK H PARENT 3 10 13 22 25 32 35 44
ROOT
ATOM      1  C   UNL     1      19.841  12.224 -23.281  1.00  0.00     0.040 A 
ATOM      2  C   UNL     1      20.590  13.368 -23.574  1.00  0.00     0.014 A 
ATOM      3  C   UNL     1      21.981  13.276 -23.703  1.00  0.00     0.009 A 
ATOM      4  C   UNL     1      22.651  12.049 -23.546  1.00  0.00    -0.018 A 
ATOM      5  C   UNL     1      21.878  10.915 -23.237  1.00  0.00     0.009 A 
ATOM      6  C   UNL     1      20.489  11.001 -23.097  1.00  0.00     0.014 A 
ENDROOT
BRANCH   1   7
ATOM      7  C   UNL     1      18.359  12.270 -23.145  1.00  0.00     0.255 C 
ATOM      8  O   UNL     1      17.771  13.262 -23.560  1.00  0.00    -0.269 OA
ATOM      9  N   UNL     1      17.807  11.176 -22.506  1.00  0.00    -0.322 N 
ATOM     10  H   UNL     1      18.450  10.496 -22.120  1.00  0.00     0.170 HD
BRANCH   9  11
ATOM     11  C   UNL     1      16.444  10.953 -22.216  1.00  0.00     0.042 A 
ATOM     12  C   UNL     1      15.514  10.489 -23.147  1.00  0.00     0.026 A 
ATOM     13  C   UNL     1      16.017  11.223 -20.910  1.00  0.00     0.038 A 
ATOM     14  C   UNL     1      14.174  10.309 -22.785  1.00  0.00     0.003 A 
ATOM     15  C   UNL     1      14.677  11.041 -20.541  1.00  0.00     0.018 A 
ATOM     16  C   UNL     1      13.753  10.590 -21.487  1.00  0.00     0.012 A 
BRANCH  15  17
ATOM     17  C   UNL     1      14.257  11.344 -19.148  1.00  0.00     0.128 C 
ATOM     18  N   UNL     1      13.060  11.026 -18.713  1.00  0.00    -0.266 NA
ATOM     19  N   UNL     1      15.073  11.987 -18.245  1.00  0.00    -0.368 N 
ATOM     20  C   UNL     1      13.043  11.473 -17.293  1.00  0.00     0.165 C 
ATOM     21  C   UNL     1      14.265  12.377 -17.112  1.00  0.00     0.138 C 
ATOM     22  H   UNL     1      15.699  12.692 -18.613  1.00  0.00     0.162 HD
ENDBRANCH  15  17
ENDBRANCH   9  11
ENDBRANCH   1   7
BRANCH   4  23
ATOM     23  C   UNL     1      24.116  11.950 -23.699  1.00  0.00    -0.018 A 
ATOM     24  C   UNL     1      24.849  12.948 -24.365  1.00  0.00     0.009 A 
ATOM     25  C   UNL     1      24.831  10.865 -23.164  1.00  0.00     0.009 A 
ATOM     26  C   UNL     1      26.243  12.873 -24.491  1.00  0.00     0.014 A 
ATOM     27  C   UNL     1      26.223  10.781 -23.289  1.00  0.00     0.014 A 
ATOM     28  C   UNL     1      26.936  11.780 -23.960  1.00  0.00     0.040 A 
BRANCH  28  29
ATOM     29  C   UNL     1      28.422  11.656 -24.041  1.00  0.00     0.255 C 
ATOM     30  O   UNL     1      29.052  12.590 -24.526  1.00  0.00    -0.269 OA
ATOM     31  N   UNL     1      28.950  10.485 -23.527  1.00  0.00    -0.322 N 
ATOM     32  H   UNL     1      28.316   9.859 -23.049  1.00  0.00     0.170 HD
BRANCH  31  33
ATOM     33  C   UNL     1      30.306  10.087 -23.521  1.00  0.00     0.042 A 
ATOM     34  C   UNL     1      30.982   9.597 -24.639  1.00  0.00     0.026 A 
ATOM     35  C   UNL     1      30.995  10.187 -22.304  1.00  0.00     0.038 A 
ATOM     36  C   UNL     1      32.326   9.223 -24.552  1.00  0.00     0.003 A 
ATOM     37  C   UNL     1      32.337   9.798 -22.209  1.00  0.00     0.018 A 
ATOM     38  C   UNL     1      33.007   9.325 -23.339  1.00  0.00     0.012 A 
BRANCH  37  39
ATOM     39  C   UNL     1      33.034   9.894 -20.901  1.00  0.00     0.128 C 
ATOM     40  N   UNL     1      33.065  11.017 -20.224  1.00  0.00    -0.266 NA
ATOM     41  N   UNL     1      33.656   8.816 -20.313  1.00  0.00    -0.368 N 
ATOM     42  C   UNL     1      33.856  10.696 -19.004  1.00  0.00     0.165 C 
ATOM     43  C   UNL     1      33.951   9.172 -18.942  1.00  0.00     0.138 C 
ATOM     44  H   UNL     1      33.219   7.912 -20.451  1.00  0.00     0.162 HD
ENDBRANCH  37  39
ENDBRANCH  31  33
ENDBRANCH  28  29
ENDBRANCH   4  23
TORSDOF 7
ENDMDL
