MODEL 1
REMARK VINA RESULT:      -7.8      0.000      0.000
REMARK SMILES Cc1cc2ccccc2nc1-c1ccccc1F
REMARK SMILES IDX 1 1 2 2 3 3 4 4 5 5 6 6 7 7 8 8 9 9 10 10 11 11 12 12 13 13
REMARK SMILES IDX 17 14 14 15 16 16 15 17 18 18
REMARK H PARENT
ROOT
ATOM      1  C   UNL     1      22.754  19.152  -8.049  1.00  0.00     0.047 C 
ATOM      2  C   UNL     1      23.867  18.966  -9.038  1.00  0.00    -0.024 A 
ATOM      3  C   UNL     1      23.703  18.053 -10.087  1.00  0.00     0.016 A 
ATOM      4  C   UNL     1      24.726  17.847 -11.019  1.00  0.00     0.000 A 
ATOM      5  C   UNL     1      24.593  16.932 -12.079  1.00  0.00     0.010 A 
ATOM      6  C   UNL     1      25.636  16.747 -12.985  1.00  0.00     0.001 A 
ATOM      7  C   UNL     1      26.810  17.474 -12.835  1.00  0.00     0.002 A 
ATOM      8  C   UNL     1      26.936  18.383 -11.779  1.00  0.00     0.029 A 
ATOM      9  C   UNL     1      25.912  18.586 -10.864  1.00  0.00     0.071 A 
ATOM     10  N   UNL     1      26.081  19.473  -9.870  1.00  0.00    -0.247 NA
ATOM     11  C   UNL     1      25.069  19.682  -8.984  1.00  0.00     0.077 A 
ENDROOT
BRANCH  11  12
ATOM     12  C   UNL     1      25.384  20.691  -7.963  1.00  0.00     0.036 A 
ATOM     13  C   UNL     1      25.665  20.301  -6.640  1.00  0.00     0.013 A 
ATOM     14  C   UNL     1      25.449  22.058  -8.262  1.00  0.00     0.132 A 
ATOM     15  C   UNL     1      25.972  21.247  -5.657  1.00  0.00     0.001 A 
ATOM     16  C   UNL     1      25.755  23.008  -7.287  1.00  0.00     0.040 A 
ATOM     17  C   UNL     1      26.015  22.602  -5.980  1.00  0.00     0.003 A 
ATOM     18  F   UNL     1      25.221  22.492  -9.512  1.00  0.00    -0.206 F 
ENDBRANCH  11  12
TORSDOF 1
ENDMDL
MODEL 2
REMARK VINA RESULT:      -7.8      2.573      3.015
REMARK SMILES Cc1cc2ccccc2nc1-c1ccccc1F
REMARK SMILES IDX 1 1 2 2 3 3 4 4 5 5 6 6 7 7 8 8 9 9 10 10 11 11 12 12 13 13
REMARK SMILES IDX 17 14 14 15 16 16 15 17 18 18
REMARK H PARENT
ROOT
ATOM      1  C   UNL     1      21.273  17.645  -8.037  1.00  0.00     0.047 C 
ATOM      2  C   UNL     1      22.552  18.140  -8.648  1.00  0.00    -0.024 A 
ATOM      3  C   UNL     1      22.952  17.640  -9.893  1.00  0.00     0.016 A 
ATOM      4  C   UNL     1      24.145  18.071 -10.484  1.00  0.00     0.000 A 
ATOM      5  C   UNL     1      24.576  17.582 -11.730  1.00  0.00     0.010 A 
ATOM      6  C   UNL     1      25.774  18.028 -12.285  1.00  0.00     0.001 A 
ATOM      7  C   UNL     1      26.540  18.963 -11.600  1.00  0.00     0.002 A 
ATOM      8  C   UNL     1      26.105  19.446 -10.362  1.00  0.00     0.029 A 
ATOM      9  C   UNL     1      24.916  19.018  -9.787  1.00  0.00     0.071 A 
ATOM     10  N   UNL     1      24.541  19.515  -8.598  1.00  0.00    -0.247 NA
ATOM     11  C   UNL     1      23.366  19.105  -8.044  1.00  0.00     0.077 A 
ENDROOT
BRANCH  11  12
ATOM     12  C   UNL     1      23.073  19.745  -6.754  1.00  0.00     0.036 A 
ATOM     13  C   UNL     1      22.300  20.920  -6.702  1.00  0.00     0.013 A 
ATOM     14  C   UNL     1      23.514  19.207  -5.538  1.00  0.00     0.132 A 
ATOM     15  C   UNL     1      22.006  21.539  -5.484  1.00  0.00     0.001 A 
ATOM     16  C   UNL     1      23.225  19.818  -4.318  1.00  0.00     0.040 A 
ATOM     17  C   UNL     1      22.471  20.990  -4.290  1.00  0.00     0.003 A 
ATOM     18  F   UNL     1      24.231  18.072  -5.518  1.00  0.00    -0.206 F 
ENDBRANCH  11  12
TORSDOF 1
ENDMDL
MODEL 3
REMARK VINA RESULT:      -7.7      1.095      1.575
REMARK SMILES Cc1cc2ccccc2nc1-c1ccccc1F
REMARK SMILES IDX 1 1 2 2 3 3 4 4 5 5 6 6 7 7 8 8 9 9 10 10 11 11 12 12 13 13
REMARK SMILES IDX 17 14 14 15 16 16 15 17 18 18
REMARK H PARENT
ROOT
ATOM      1  C   UNL     1      22.795  19.196  -8.078  1.00  0.00     0.047 C 
ATOM      2  C   UNL     1      23.889  18.988  -9.084  1.00  0.00    -0.024 A 
ATOM      3  C   UNL     1      23.718  18.031 -10.091  1.00  0.00     0.016 A 
ATOM      4  C   UNL     1      24.724  17.803 -11.037  1.00  0.00     0.000 A 
ATOM      5  C   UNL     1      24.584  16.843 -12.055  1.00  0.00     0.010 A 
ATOM      6  C   UNL     1      25.610  16.639 -12.976  1.00  0.00     0.001 A 
ATOM      7  C   UNL     1      26.774  17.391 -12.883  1.00  0.00     0.002 A 
ATOM      8  C   UNL     1      26.907  18.345 -11.868  1.00  0.00     0.029 A 
ATOM      9  C   UNL     1      25.899  18.568 -10.939  1.00  0.00     0.071 A 
ATOM     10  N   UNL     1      26.074  19.499  -9.986  1.00  0.00    -0.247 NA
ATOM     11  C   UNL     1      25.079  19.726  -9.087  1.00  0.00     0.077 A 
ENDROOT
BRANCH  11  12
ATOM     12  C   UNL     1      25.398  20.783  -8.115  1.00  0.00     0.036 A 
ATOM     13  C   UNL     1      25.414  22.132  -8.513  1.00  0.00     0.013 A 
ATOM     14  C   UNL     1      25.665  20.501  -6.769  1.00  0.00     0.132 A 
ATOM     15  C   UNL     1      25.710  23.151  -7.602  1.00  0.00     0.001 A 
ATOM     16  C   UNL     1      25.961  21.511  -5.854  1.00  0.00     0.040 A 
ATOM     17  C   UNL     1      25.987  22.841  -6.272  1.00  0.00     0.003 A 
ATOM     18  F   UNL     1      25.635  19.236  -6.321  1.00  0.00    -0.206 F 
ENDBRANCH  11  12
TORSDOF 1
ENDMDL
