MODEL 1
REMARK VINA RESULT:      -5.6      0.000      0.000
REMARK SMILES Nc1nc(N)c2[nH]cnc2n1
REMARK SMILES IDX 2 1 3 2 4 3 6 4 7 5 8 6 9 7 10 8 11 9 1 11 5 14
REMARK H PARENT 7 10 1 12 1 13 5 15 5 16
ROOT
ATOM      1  C   UNL     1      25.420  19.236 -10.104  1.00  0.00     0.224 A 
ATOM      2  N   UNL     1      24.257  18.562 -10.162  1.00  0.00    -0.194 NA
ATOM      3  C   UNL     1      24.108  17.582 -11.066  1.00  0.00     0.155 A 
ATOM      4  C   UNL     1      25.173  17.330 -11.900  1.00  0.00     0.128 A 
ATOM      5  N   UNL     1      25.433  16.433 -12.895  1.00  0.00    -0.340 N 
ATOM      6  C   UNL     1      26.697  16.687 -13.357  1.00  0.00     0.199 A 
ATOM      7  N   UNL     1      27.258  17.687 -12.715  1.00  0.00    -0.217 NA
ATOM      8  C   UNL     1      26.325  18.082 -11.791  1.00  0.00     0.184 A 
ATOM      9  N   UNL     1      26.479  19.070 -10.896  1.00  0.00    -0.191 NA
ATOM     10  H   UNL     1      24.817  15.698 -13.212  1.00  0.00     0.168 HD
ENDROOT
BRANCH   1  11
ATOM     11  N   UNL     1      25.502  20.239  -9.156  1.00  0.00    -0.368 N 
ATOM     12  H   UNL     1      25.876  19.869  -8.294  1.00  0.00     0.159 HD
ATOM     13  H   UNL     1      24.625  20.739  -9.112  1.00  0.00     0.159 HD
ENDBRANCH   1  11
BRANCH   3  14
ATOM     14  N   UNL     1      22.904  16.898 -11.119  1.00  0.00    -0.382 N 
ATOM     15  H   UNL     1      22.929  15.957 -10.754  1.00  0.00     0.158 HD
ATOM     16  H   UNL     1      22.514  16.975 -12.055  1.00  0.00     0.158 HD
ENDBRANCH   3  14
TORSDOF 2
ENDMDL
MODEL 2
REMARK VINA RESULT:      -5.4      1.312      3.152
REMARK SMILES Nc1nc(N)c2[nH]cnc2n1
REMARK SMILES IDX 2 1 3 2 4 3 6 4 7 5 8 6 9 7 10 8 11 9 1 11 5 14
REMARK H PARENT 7 10 1 12 1 13 5 15 5 16
ROOT
ATOM      1  C   UNL     1      26.742  18.805 -12.262  1.00  0.00     0.224 A 
ATOM      2  N   UNL     1      26.981  17.669 -12.943  1.00  0.00    -0.194 NA
ATOM      3  C   UNL     1      26.095  16.662 -12.874  1.00  0.00     0.155 A 
ATOM      4  C   UNL     1      24.984  16.857 -12.087  1.00  0.00     0.128 A 
ATOM      5  N   UNL     1      23.871  16.127 -11.785  1.00  0.00    -0.340 N 
ATOM      6  C   UNL     1      23.110  16.874 -10.927  1.00  0.00     0.199 A 
ATOM      7  N   UNL     1      23.667  18.036 -10.669  1.00  0.00    -0.217 NA
ATOM      8  C   UNL     1      24.825  18.045 -11.402  1.00  0.00     0.184 A 
ATOM      9  N   UNL     1      25.709  19.053 -11.459  1.00  0.00    -0.191 NA
ATOM     10  H   UNL     1      23.639  15.214 -12.150  1.00  0.00     0.168 HD
ENDROOT
BRANCH   1  11
ATOM     11  N   UNL     1      27.700  19.797 -12.370  1.00  0.00    -0.368 N 
ATOM     12  H   UNL     1      27.256  20.704 -12.387  1.00  0.00     0.159 HD
ATOM     13  H   UNL     1      28.341  19.572 -13.119  1.00  0.00     0.159 HD
ENDBRANCH   1  11
BRANCH   3  14
ATOM     14  N   UNL     1      26.354  15.496 -13.576  1.00  0.00    -0.382 N 
ATOM     15  H   UNL     1      26.027  15.490 -14.531  1.00  0.00     0.158 HD
ATOM     16  H   UNL     1      26.051  14.698 -13.024  1.00  0.00     0.158 HD
ENDBRANCH   3  14
TORSDOF 2
ENDMDL
MODEL 3
REMARK VINA RESULT:      -5.4      1.382      2.361
REMARK SMILES Nc1nc(N)c2[nH]cnc2n1
REMARK SMILES IDX 2 1 3 2 4 3 6 4 7 5 8 6 9 7 10 8 11 9 1 11 5 14
REMARK H PARENT 7 10 1 12 1 13 5 15 5 16
ROOT
ATOM      1  C   UNL     1      22.990  18.006  -9.778  1.00  0.00     0.224 A 
ATOM      2  N   UNL     1      22.567  17.395 -10.900  1.00  0.00    -0.194 NA
ATOM      3  C   UNL     1      23.385  17.329 -11.962  1.00  0.00     0.155 A 
ATOM      4  C   UNL     1      24.625  17.911 -11.836  1.00  0.00     0.128 A 
ATOM      5  N   UNL     1      25.724  18.030 -12.636  1.00  0.00    -0.340 N 
ATOM      6  C   UNL     1      26.668  18.733 -11.935  1.00  0.00     0.199 A 
ATOM      7  N   UNL     1      26.238  19.063 -10.738  1.00  0.00    -0.217 NA
ATOM      8  C   UNL     1      24.974  18.538 -10.657  1.00  0.00     0.184 A 
ATOM      9  N   UNL     1      24.160  18.616  -9.594  1.00  0.00    -0.191 NA
ATOM     10  H   UNL     1      25.832  17.647 -13.564  1.00  0.00     0.168 HD
ENDROOT
BRANCH   1  11
ATOM     11  N   UNL     1      22.093  18.046  -8.726  1.00  0.00    -0.368 N 
ATOM     12  H   UNL     1      21.317  17.428  -8.911  1.00  0.00     0.159 HD
ATOM     13  H   UNL     1      21.885  19.007  -8.492  1.00  0.00     0.159 HD
ENDBRANCH   1  11
BRANCH   3  14
ATOM     14  N   UNL     1      22.936  16.701 -13.113  1.00  0.00    -0.382 N 
ATOM     15  H   UNL     1      21.994  16.936 -13.389  1.00  0.00     0.158 HD
ATOM     16  H   UNL     1      23.116  15.702 -13.043  1.00  0.00     0.158 HD
ENDBRANCH   3  14
TORSDOF 2
ENDMDL
