MODEL 1
REMARK VINA RESULT:      -7.4      0.000      0.000
REMARK SMILES CN1CCN(c2cc(/C=C/c3cc4ccccc4[nH]3)[n+](C)c3ccccc23)CC1
REMARK SMILES IDX 6 1 7 2 8 3 20 4 21 5 22 6 23 7 24 8 25 9 26 10 27 11 5 12
REMARK SMILES IDX 2 13 3 14 29 15 4 16 28 17 1 18 9 19 10 20 11 21 12 22 19 23
REMARK SMILES IDX 13 24 18 25 14 26 17 27 15 28 16 29
REMARK H PARENT 19 30
ROOT
ATOM      1  C   UNL     1      24.444  23.940  -6.009  1.00  0.00     0.057 A 
ATOM      2  C   UNL     1      24.671  22.952  -6.959  1.00  0.00     0.106 A 
ATOM      3  C   UNL     1      25.454  23.194  -8.085  1.00  0.00     0.207 A 
ATOM      4  N   UNL     1      26.024  24.414  -8.281  1.00  0.00    -0.194 N 
ATOM      5  C   UNL     1      26.933  24.629  -9.435  1.00  0.00     0.441 C 
ATOM      6  C   UNL     1      25.790  25.445  -7.405  1.00  0.00     0.214 A 
ATOM      7  C   UNL     1      26.305  26.746  -7.618  1.00  0.00     0.080 A 
ATOM      8  C   UNL     1      26.065  27.790  -6.722  1.00  0.00     0.007 A 
ATOM      9  C   UNL     1      25.298  27.562  -5.591  1.00  0.00     0.001 A 
ATOM     10  C   UNL     1      24.770  26.294  -5.361  1.00  0.00     0.017 A 
ATOM     11  C   UNL     1      25.000  25.215  -6.244  1.00  0.00     0.070 A 
ENDROOT
BRANCH   1  12
ATOM     12  N   UNL     1      23.697  23.689  -4.844  1.00  0.00    -0.368 N 
ATOM     13  N   UNL     1      23.783  20.879  -4.452  1.00  0.00    -0.303 NA
ATOM     14  C   UNL     1      24.820  21.691  -3.776  1.00  0.00     0.105 C 
ATOM     15  C   UNL     1      22.466  21.526  -4.321  1.00  0.00     0.105 C 
ATOM     16  C   UNL     1      24.529  23.215  -3.710  1.00  0.00     0.132 C 
ATOM     17  C   UNL     1      22.424  22.928  -4.982  1.00  0.00     0.132 C 
ATOM     18  C   UNL     1      23.762  19.513  -3.933  1.00  0.00     0.105 C 
ENDBRANCH   1  12
BRANCH   3  19
ATOM     19  C   UNL     1      25.606  22.122  -9.079  1.00  0.00     0.081 C 
ATOM     20  C   UNL     1      25.406  20.825  -8.790  1.00  0.00     0.033 C 
BRANCH  20  21
ATOM     21  C   UNL     1      25.576  19.829  -9.781  1.00  0.00     0.039 A 
ATOM     22  C   UNL     1      26.574  19.497 -10.681  1.00  0.00     0.036 A 
ATOM     23  N   UNL     1      24.555  18.924  -9.976  1.00  0.00    -0.355 N 
ATOM     24  C   UNL     1      26.150  18.361 -11.425  1.00  0.00    -0.000 A 
ATOM     25  C   UNL     1      24.882  18.021 -10.961  1.00  0.00     0.046 A 
ATOM     26  C   UNL     1      26.727  17.591 -12.452  1.00  0.00     0.010 A 
ATOM     27  C   UNL     1      24.153  16.942 -11.474  1.00  0.00     0.026 A 
ATOM     28  C   UNL     1      26.013  16.507 -12.977  1.00  0.00     0.001 A 
ATOM     29  C   UNL     1      24.745  16.189 -12.493  1.00  0.00     0.002 A 
ATOM     30  H   UNL     1      23.677  18.908  -9.476  1.00  0.00     0.167 HD
ENDBRANCH  20  21
ENDBRANCH   3  19
TORSDOF 3
ENDMDL
MODEL 2
REMARK VINA RESULT:      -7.3      1.002      1.437
REMARK SMILES CN1CCN(c2cc(/C=C/c3cc4ccccc4[nH]3)[n+](C)c3ccccc23)CC1
REMARK SMILES IDX 6 1 7 2 8 3 20 4 21 5 22 6 23 7 24 8 25 9 26 10 27 11 5 12
REMARK SMILES IDX 2 13 3 14 29 15 4 16 28 17 1 18 9 19 10 20 11 21 12 22 19 23
REMARK SMILES IDX 13 24 18 25 14 26 17 27 15 28 16 29
REMARK H PARENT 19 30
ROOT
ATOM      1  C   UNL     1      24.633  23.285  -5.102  1.00  0.00     0.057 A 
ATOM      2  C   UNL     1      24.789  22.361  -6.127  1.00  0.00     0.106 A 
ATOM      3  C   UNL     1      25.462  22.689  -7.302  1.00  0.00     0.207 A 
ATOM      4  N   UNL     1      25.992  23.930  -7.472  1.00  0.00    -0.194 N 
ATOM      5  C   UNL     1      26.788  24.235  -8.687  1.00  0.00     0.441 C 
ATOM      6  C   UNL     1      25.822  24.901  -6.516  1.00  0.00     0.214 A 
ATOM      7  C   UNL     1      26.293  26.224  -6.693  1.00  0.00     0.080 A 
ATOM      8  C   UNL     1      26.119  27.205  -5.716  1.00  0.00     0.007 A 
ATOM      9  C   UNL     1      25.462  26.893  -4.537  1.00  0.00     0.001 A 
ATOM     10  C   UNL     1      24.977  25.602  -4.339  1.00  0.00     0.017 A 
ATOM     11  C   UNL     1      25.144  24.584  -5.305  1.00  0.00     0.070 A 
ENDROOT
BRANCH   1  12
ATOM     12  N   UNL     1      23.999  22.948  -3.892  1.00  0.00    -0.368 N 
ATOM     13  N   UNL     1      24.071  20.114  -3.736  1.00  0.00    -0.303 NA
ATOM     14  C   UNL     1      25.184  20.857  -3.104  1.00  0.00     0.105 C 
ATOM     15  C   UNL     1      22.786  20.762  -3.424  1.00  0.00     0.105 C 
ATOM     16  C   UNL     1      24.929  22.374  -2.887  1.00  0.00     0.132 C 
ATOM     17  C   UNL     1      22.705  22.214  -3.963  1.00  0.00     0.132 C 
ATOM     18  C   UNL     1      24.076  18.711  -3.329  1.00  0.00     0.105 C 
ENDBRANCH   1  12
BRANCH   3  19
ATOM     19  C   UNL     1      25.540  21.683  -8.370  1.00  0.00     0.081 C 
ATOM     20  C   UNL     1      24.879  20.514  -8.323  1.00  0.00     0.033 C 
BRANCH  20  21
ATOM     21  C   UNL     1      24.997  19.572  -9.373  1.00  0.00     0.039 A 
ATOM     22  C   UNL     1      24.187  18.583  -9.902  1.00  0.00     0.036 A 
ATOM     23  N   UNL     1      26.166  19.554 -10.102  1.00  0.00    -0.355 N 
ATOM     24  C   UNL     1      24.879  17.964 -10.980  1.00  0.00    -0.000 A 
ATOM     25  C   UNL     1      26.116  18.593 -11.086  1.00  0.00     0.046 A 
ATOM     26  C   UNL     1      24.567  16.924 -11.877  1.00  0.00     0.010 A 
ATOM     27  C   UNL     1      27.067  18.237 -12.048  1.00  0.00     0.026 A 
ATOM     28  C   UNL     1      25.505  16.554 -12.847  1.00  0.00     0.001 A 
ATOM     29  C   UNL     1      26.736  17.202 -12.930  1.00  0.00     0.002 A 
ATOM     30  H   UNL     1      26.966  20.154  -9.951  1.00  0.00     0.167 HD
ENDBRANCH  20  21
ENDBRANCH   3  19
TORSDOF 3
ENDMDL
MODEL 3
REMARK VINA RESULT:      -7.1      0.597      1.138
REMARK SMILES CN1CCN(c2cc(/C=C/c3cc4ccccc4[nH]3)[n+](C)c3ccccc23)CC1
REMARK SMILES IDX 6 1 7 2 8 3 20 4 21 5 22 6 23 7 24 8 25 9 26 10 27 11 5 12
REMARK SMILES IDX 2 13 3 14 29 15 4 16 28 17 1 18 9 19 10 20 11 21 12 22 19 23
REMARK SMILES IDX 13 24 18 25 14 26 17 27 15 28 16 29
REMARK H PARENT 19 30
ROOT
ATOM      1  C   UNL     1      24.576  24.135  -6.005  1.00  0.00     0.057 A 
ATOM      2  C   UNL     1      24.659  23.091  -6.917  1.00  0.00     0.106 A 
ATOM      3  C   UNL     1      25.334  23.236  -8.127  1.00  0.00     0.207 A 
ATOM      4  N   UNL     1      25.938  24.413  -8.444  1.00  0.00    -0.194 N 
ATOM      5  C   UNL     1      26.735  24.523  -9.692  1.00  0.00     0.441 C 
ATOM      6  C   UNL     1      25.843  25.497  -7.606  1.00  0.00     0.214 A 
ATOM      7  C   UNL     1      26.394  26.757  -7.940  1.00  0.00     0.080 A 
ATOM      8  C   UNL     1      26.296  27.855  -7.083  1.00  0.00     0.007 A 
ATOM      9  C   UNL     1      25.637  27.724  -5.871  1.00  0.00     0.001 A 
ATOM     10  C   UNL     1      25.076  26.498  -5.521  1.00  0.00     0.017 A 
ATOM     11  C   UNL     1      25.164  25.366  -6.362  1.00  0.00     0.070 A 
ENDROOT
BRANCH   1  12
ATOM     12  N   UNL     1      23.939  23.982  -4.760  1.00  0.00    -0.368 N 
ATOM     13  N   UNL     1      23.596  21.187  -4.398  1.00  0.00    -0.303 NA
ATOM     14  C   UNL     1      24.827  21.797  -3.847  1.00  0.00     0.105 C 
ATOM     15  C   UNL     1      22.431  22.041  -4.105  1.00  0.00     0.105 C 
ATOM     16  C   UNL     1      24.807  23.346  -3.737  1.00  0.00     0.132 C 
ATOM     17  C   UNL     1      22.549  23.448  -4.748  1.00  0.00     0.132 C 
ATOM     18  C   UNL     1      23.406  19.831  -3.889  1.00  0.00     0.105 C 
ENDBRANCH   1  12
BRANCH   3  19
ATOM     19  C   UNL     1      25.334  22.110  -9.071  1.00  0.00     0.081 C 
ATOM     20  C   UNL     1      25.295  20.826  -8.676  1.00  0.00     0.033 C 
BRANCH  20  21
ATOM     21  C   UNL     1      25.308  19.776  -9.626  1.00  0.00     0.039 A 
ATOM     22  C   UNL     1      24.449  18.747  -9.965  1.00  0.00     0.036 A 
ATOM     23  N   UNL     1      26.402  19.665 -10.457  1.00  0.00    -0.355 N 
ATOM     24  C   UNL     1      25.031  18.007 -11.032  1.00  0.00    -0.000 A 
ATOM     25  C   UNL     1      26.254  18.606 -11.323  1.00  0.00     0.046 A 
ATOM     26  C   UNL     1      24.631  16.882 -11.778  1.00  0.00     0.010 A 
ATOM     27  C   UNL     1      27.107  18.136 -12.327  1.00  0.00     0.026 A 
ATOM     28  C   UNL     1      25.471  16.398 -12.788  1.00  0.00     0.001 A 
ATOM     29  C   UNL     1      26.690  17.017 -13.057  1.00  0.00     0.002 A 
ATOM     30  H   UNL     1      27.214  20.267 -10.448  1.00  0.00     0.167 HD
ENDBRANCH  20  21
ENDBRANCH   3  19
TORSDOF 3
ENDMDL
