REMARK SMILES NS(=O)(=O)c1ccc(-n2cc(COc3cccnc3)nn2)cc1
REMARK SMILES IDX 5 1 6 2 7 3 8 4 22 5 23 6 2 7 3 8 4 9 1 10 9 13 10 14 21 15
REMARK SMILES IDX 11 16 20 17 12 18 13 19 14 20 15 21 19 22 16 23 18 24 17 25
REMARK H PARENT 1 11 1 12
ROOT
ATOM      1  C   UNL     1      -2.003   0.327   3.815  1.00  0.00     0.082 A 
ATOM      2  C   UNL     1      -0.990  -0.609   4.030  1.00  0.00     0.024 A 
ATOM      3  C   UNL     1      -0.036  -0.831   3.034  1.00  0.00     0.030 A 
ATOM      4  C   UNL     1      -0.088  -0.111   1.827  1.00  0.00     0.066 A 
ATOM      5  C   UNL     1      -1.104   0.837   1.629  1.00  0.00     0.030 A 
ATOM      6  C   UNL     1      -2.060   1.058   2.625  1.00  0.00     0.024 A 
ENDROOT
BRANCH   1   7
ATOM      7  S   UNL     1      -3.213   0.624   5.078  1.00  0.00     0.238 S 
ATOM      8  O   UNL     1      -3.736   1.957   4.904  1.00  0.00    -0.207 OA
ATOM      9  O   UNL     1      -2.686   0.151   6.338  1.00  0.00    -0.207 OA
BRANCH   7  10
ATOM     10  N   UNL     1      -4.421  -0.469   4.650  1.00  0.00    -0.225 NA
ATOM     11  H   UNL     1      -4.520  -1.160   5.395  1.00  0.00     0.137 HD
ATOM     12  H   UNL     1      -4.268  -0.907   3.743  1.00  0.00     0.137 HD
ENDBRANCH   7  10
ENDBRANCH   1   7
BRANCH   4  13
ATOM     13  N   UNL     1       0.891  -0.353   0.828  1.00  0.00    -0.220 N 
ATOM     14  C   UNL     1       1.036   0.241  -0.403  1.00  0.00     0.144 A 
ATOM     15  N   UNL     1       1.865  -1.282   0.992  1.00  0.00    -0.062 NA
ATOM     16  C   UNL     1       2.125  -0.381  -0.975  1.00  0.00     0.120 A 
ATOM     17  N   UNL     1       2.616  -1.308  -0.100  1.00  0.00    -0.131 NA
BRANCH  16  18
ATOM     18  C   UNL     1       2.757  -0.182  -2.306  1.00  0.00     0.289 C 
BRANCH  18  19
ATOM     19  O   UNL     1       1.833   0.226  -3.324  1.00  0.00    -0.486 OA
BRANCH  19  20
ATOM     20  C   UNL     1       1.088  -0.740  -3.936  1.00  0.00     0.138 A 
ATOM     21  C   UNL     1       0.316  -0.301  -5.011  1.00  0.00     0.050 A 
ATOM     22  C   UNL     1       1.005  -2.086  -3.601  1.00  0.00     0.157 A 
ATOM     23  C   UNL     1      -0.487  -1.201  -5.707  1.00  0.00     0.024 A 
ATOM     24  N   UNL     1       0.232  -2.987  -4.258  1.00  0.00    -0.261 NA
ATOM     25  C   UNL     1      -0.495  -2.523  -5.297  1.00  0.00     0.111 A 
ENDBRANCH  19  20
ENDBRANCH  18  19
ENDBRANCH  16  18
ENDBRANCH   4  13
TORSDOF 6
