REMARK SMILES NS(=O)(=O)c1nc2ccc(NC(=O)CN(CCN(CC(=O)O)CC(=O)Nc3ccc4nc(S(N)(=O)=O)sc4c3)CC(=O)O)cc2s1
REMARK SMILES IDX 16 1 15 2 14 3 12 4 11 5 13 6 10 8 5 9 6 10 46 11 7 12 45 13
REMARK SMILES IDX 8 14 44 15 9 16 2 17 3 18 4 19 1 20 40 23 41 24 42 25 43 26
REMARK SMILES IDX 17 28 18 29 19 30 20 31 21 32 22 33 23 35 24 36 25 37 26 38
REMARK SMILES IDX 27 40 28 41 39 42 29 43 38 44 30 45 37 46 31 47 32 48 33 49
REMARK SMILES IDX 35 50 36 51 34 52
REMARK H PARENT 11 7 1 21 1 22 43 27 22 34 26 39 34 53 34 54
ROOT
ATOM      1  C   UNL     1      -0.605   3.822  -2.952  1.00  0.00     0.101 C 
ENDROOT
BRANCH   1   2
ATOM      2  N   UNL     1      -0.031   4.025  -1.604  1.00  0.00    -0.283 NA
BRANCH   2   3
ATOM      3  C   UNL     1       1.445   3.822  -1.602  1.00  0.00     0.185 C 
BRANCH   3   4
ATOM      4  C   UNL     1       1.937   3.439  -0.186  1.00  0.00     0.238 C 
ATOM      5  N   UNL     1       2.409   2.137  -0.113  1.00  0.00    -0.325 N 
ATOM      6  O   UNL     1       1.891   4.234   0.750  1.00  0.00    -0.273 OA
ATOM      7  H   UNL     1       2.620   1.675  -0.988  1.00  0.00     0.169 HD
BRANCH   5   8
ATOM      8  C   UNL     1       2.626   1.365   1.046  1.00  0.00     0.042 A 
ATOM      9  C   UNL     1       3.790  -2.346   3.719  1.00  0.00     0.225 A 
ATOM     10  N   UNL     1       3.254  -1.271   4.264  1.00  0.00    -0.224 NA
ATOM     11  S   UNL     1       4.021  -2.337   2.034  1.00  0.00    -0.101 S 
ATOM     12  C   UNL     1       3.013  -0.342   3.262  1.00  0.00     0.083 A 
ATOM     13  C   UNL     1       3.368  -0.743   1.973  1.00  0.00     0.058 A 
ATOM     14  C   UNL     1       2.463   0.942   3.435  1.00  0.00     0.032 A 
ATOM     15  C   UNL     1       3.179   0.089   0.855  1.00  0.00     0.047 A 
ATOM     16  C   UNL     1       2.275   1.782   2.327  1.00  0.00     0.028 A 
BRANCH   9  17
ATOM     17  S   UNL     1       4.299  -3.792   4.620  1.00  0.00     0.265 S 
ATOM     18  O   UNL     1       5.743  -3.746   4.648  1.00  0.00    -0.205 OA
ATOM     19  O   UNL     1       3.558  -4.902   4.057  1.00  0.00    -0.205 OA
BRANCH  17  20
ATOM     20  N   UNL     1       3.761  -3.588   6.211  1.00  0.00    -0.223 NA
ATOM     21  H   UNL     1       2.744  -3.632   6.258  1.00  0.00     0.137 HD
ATOM     22  H   UNL     1       4.133  -2.718   6.594  1.00  0.00     0.137 HD
ENDBRANCH  17  20
ENDBRANCH   9  17
ENDBRANCH   5   8
ENDBRANCH   3   4
ENDBRANCH   2   3
BRANCH   2  23
ATOM     23  C   UNL     1      -0.302   5.415  -1.120  1.00  0.00     0.208 C 
BRANCH  23  24
ATOM     24  C   UNL     1      -1.776   5.742  -0.963  1.00  0.00     0.317 C 
ATOM     25  O   UNL     1      -2.377   6.610  -1.579  1.00  0.00    -0.251 OA
BRANCH  24  26
ATOM     26  O   UNL     1      -2.425   4.999  -0.039  1.00  0.00    -0.480 OA
ATOM     27  H   UNL     1      -3.349   5.328  -0.149  1.00  0.00     0.296 HD
ENDBRANCH  24  26
ENDBRANCH  23  24
ENDBRANCH   2  23
ENDBRANCH   1   2
BRANCH   1  28
ATOM     28  C   UNL     1      -0.643   2.359  -3.507  1.00  0.00     0.101 C 
BRANCH  28  29
ATOM     29  N   UNL     1      -1.188   1.224  -2.733  1.00  0.00    -0.283 NA
BRANCH  29  30
ATOM     30  C   UNL     1      -2.645   1.311  -2.457  1.00  0.00     0.208 C 
BRANCH  30  31
ATOM     31  C   UNL     1      -3.089   2.409  -1.510  1.00  0.00     0.317 C 
ATOM     32  O   UNL     1      -3.781   3.369  -1.817  1.00  0.00    -0.251 OA
BRANCH  31  33
ATOM     33  O   UNL     1      -2.629   2.254  -0.255  1.00  0.00    -0.480 OA
ATOM     34  H   UNL     1      -2.704   3.143   0.166  1.00  0.00     0.296 HD
ENDBRANCH  31  33
ENDBRANCH  30  31
ENDBRANCH  29  30
BRANCH  29  35
ATOM     35  C   UNL     1      -0.362   0.878  -1.559  1.00  0.00     0.185 C 
BRANCH  35  36
ATOM     36  C   UNL     1      -0.623  -0.537  -1.028  1.00  0.00     0.238 C 
ATOM     37  O   UNL     1      -0.439  -0.810   0.154  1.00  0.00    -0.273 OA
ATOM     38  N   UNL     1      -0.954  -1.431  -2.033  1.00  0.00    -0.325 N 
ATOM     39  H   UNL     1      -1.047  -1.006  -2.952  1.00  0.00     0.169 HD
BRANCH  38  40
ATOM     40  C   UNL     1      -1.180  -2.814  -1.917  1.00  0.00     0.042 A 
ATOM     41  C   UNL     1      -1.431  -3.515  -3.098  1.00  0.00     0.028 A 
ATOM     42  C   UNL     1      -1.161  -3.496  -0.693  1.00  0.00     0.047 A 
ATOM     43  C   UNL     1      -1.642  -4.901  -3.085  1.00  0.00     0.032 A 
ATOM     44  C   UNL     1      -1.382  -4.885  -0.690  1.00  0.00     0.058 A 
ATOM     45  C   UNL     1      -1.613  -5.602  -1.865  1.00  0.00     0.083 A 
ATOM     46  S   UNL     1      -1.423  -5.968   0.651  1.00  0.00    -0.101 S 
ATOM     47  N   UNL     1      -1.785  -6.966  -1.705  1.00  0.00    -0.224 NA
ATOM     48  C   UNL     1      -1.733  -7.262  -0.421  1.00  0.00     0.225 A 
BRANCH  48  49
ATOM     49  S   UNL     1      -1.857  -8.890   0.301  1.00  0.00     0.265 S 
ATOM     50  O   UNL     1      -2.013  -9.816  -0.799  1.00  0.00    -0.205 OA
ATOM     51  O   UNL     1      -2.822  -8.783   1.373  1.00  0.00    -0.205 OA
BRANCH  49  52
ATOM     52  N   UNL     1      -0.367  -9.250   1.013  1.00  0.00    -0.223 NA
ATOM     53  H   UNL     1      -0.137  -8.628   1.787  1.00  0.00     0.137 HD
ATOM     54  H   UNL     1       0.366  -9.394   0.321  1.00  0.00     0.137 HD
ENDBRANCH  49  52
ENDBRANCH  48  49
ENDBRANCH  38  40
ENDBRANCH  35  36
ENDBRANCH  29  35
ENDBRANCH  28  29
ENDBRANCH   1  28
TORSDOF 19
