REMARK SMILES NC(N)=NS(=O)(=O)c1ccc(N/N=C2\SC(Nc3ccc(S(N)(=O)=O)cc3)=NC2=O)cc1
REMARK SMILES IDX 13 1 14 2 15 3 16 4 17 5 28 6 29 7 30 8 12 10 11 12 8 13
REMARK SMILES IDX 9 14 32 15 10 16 31 17 5 18 6 19 7 20 4 21 1 22 2 23 3 24
REMARK SMILES IDX 18 29 19 30 27 31 20 32 26 33 21 34 22 35 24 36 25 37 23 38
REMARK H PARENT 17 9 12 11 1 25 1 26 3 27 3 28 23 39 23 40
ROOT
ATOM      1  N   UNL     1       1.841   1.187  -2.344  1.00  0.00    -0.162 NA
ATOM      2  C   UNL     1       0.695   0.585  -2.421  1.00  0.00     0.191 C 
ATOM      3  S   UNL     1      -0.780   0.819  -1.550  1.00  0.00    -0.024 SA
ATOM      4  C   UNL     1      -1.569  -0.527  -2.338  1.00  0.00     0.176 C 
ATOM      5  N   UNL     1      -2.832  -0.770  -1.882  1.00  0.00    -0.334 N 
ATOM      6  N   UNL     1      -0.884  -1.139  -3.234  1.00  0.00    -0.182 NA
ATOM      7  C   UNL     1       0.355  -0.558  -3.347  1.00  0.00     0.306 C 
ATOM      8  O   UNL     1       1.195  -0.931  -4.155  1.00  0.00    -0.264 OA
ATOM      9  H   UNL     1      -3.142  -0.175  -1.123  1.00  0.00     0.169 HD
ENDROOT
BRANCH   1  10
ATOM     10  N   UNL     1       1.924   2.186  -1.410  1.00  0.00    -0.277 N 
ATOM     11  H   UNL     1       2.283   3.066  -1.797  1.00  0.00     0.190 HD
BRANCH  10  12
ATOM     12  C   UNL     1       2.669   1.908  -0.227  1.00  0.00     0.056 A 
ATOM     13  C   UNL     1       3.974   1.445   2.216  1.00  0.00     0.090 A 
ATOM     14  C   UNL     1       3.601   2.745   1.867  1.00  0.00     0.024 A 
ATOM     15  C   UNL     1       3.695   0.373   1.367  1.00  0.00     0.024 A 
ATOM     16  C   UNL     1       2.942   2.967   0.653  1.00  0.00     0.029 A 
ATOM     17  C   UNL     1       3.035   0.608   0.156  1.00  0.00     0.029 A 
BRANCH  13  18
ATOM     18  S   UNL     1       4.804   1.127   3.763  1.00  0.00     0.285 S 
ATOM     19  O   UNL     1       4.771   2.364   4.526  1.00  0.00    -0.199 OA
ATOM     20  O   UNL     1       6.072   0.515   3.419  1.00  0.00    -0.199 OA
BRANCH  18  21
ATOM     21  N   UNL     1       3.849   0.028   4.477  1.00  0.00    -0.125 NA
ATOM     22  N   UNL     1       3.020  -1.014   6.339  1.00  0.00    -0.369 N 
ATOM     23  C   UNL     1       3.787  -0.056   5.757  1.00  0.00     0.203 C 
ATOM     24  N   UNL     1       4.388   0.672   6.730  1.00  0.00    -0.369 N 
ATOM     25  H   UNL     1       3.502  -1.474   7.105  1.00  0.00     0.159 HD
ATOM     26  H   UNL     1       2.711  -1.700   5.657  1.00  0.00     0.159 HD
ATOM     27  H   UNL     1       4.774   1.562   6.398  1.00  0.00     0.159 HD
ATOM     28  H   UNL     1       3.784   0.834   7.529  1.00  0.00     0.159 HD
ENDBRANCH  18  21
ENDBRANCH  13  18
ENDBRANCH  10  12
ENDBRANCH   1  10
BRANCH   5  29
ATOM     29  C   UNL     1      -3.767  -1.728  -2.309  1.00  0.00     0.040 A 
ATOM     30  C   UNL     1      -4.929  -1.918  -1.538  1.00  0.00     0.027 A 
ATOM     31  C   UNL     1      -3.600  -2.526  -3.447  1.00  0.00     0.027 A 
ATOM     32  C   UNL     1      -5.890  -2.874  -1.886  1.00  0.00     0.024 A 
ATOM     33  C   UNL     1      -4.557  -3.480  -3.812  1.00  0.00     0.024 A 
ATOM     34  C   UNL     1      -5.692  -3.658  -3.019  1.00  0.00     0.082 A 
BRANCH  34  35
ATOM     35  S   UNL     1      -6.891  -4.877  -3.488  1.00  0.00     0.238 S 
ATOM     36  O   UNL     1      -7.084  -4.794  -4.916  1.00  0.00    -0.207 OA
ATOM     37  O   UNL     1      -7.987  -4.826  -2.547  1.00  0.00    -0.207 OA
BRANCH  35  38
ATOM     38  N   UNL     1      -6.077  -6.313  -3.142  1.00  0.00    -0.225 NA
ATOM     39  H   UNL     1      -5.105  -6.173  -2.874  1.00  0.00     0.137 HD
ATOM     40  H   UNL     1      -6.595  -6.823  -2.422  1.00  0.00     0.137 HD
ENDBRANCH  35  38
ENDBRANCH  34  35
ENDBRANCH   5  29
TORSDOF 7
