REMARK SMILES NS(=O)(=O)c1ccc(Nc2ccnc(NS(=O)(=O)c3cccc(C(F)(F)F)c3)n2)cc1
REMARK SMILES IDX 10 1 11 2 12 3 13 4 14 5 29 6 9 7 8 9 5 10 6 11 31 12 7 13
REMARK SMILES IDX 30 14 2 15 3 16 4 17 1 18 15 21 16 23 17 24 18 25 19 26
REMARK SMILES IDX 20 27 28 28 21 29 23 30 22 31 24 32 25 33 26 34 27 35
REMARK H PARENT 9 8 1 19 1 20 15 22
ROOT
ATOM      1  C   UNL     1       2.414   0.321  -0.753  1.00  0.00     0.135 A 
ATOM      2  C   UNL     1       3.592   0.383  -1.475  1.00  0.00     0.067 A 
ATOM      3  C   UNL     1       3.479   0.295  -2.843  1.00  0.00     0.119 A 
ATOM      4  N   UNL     1       2.305   0.149  -3.478  1.00  0.00    -0.221 NA
ATOM      5  C   UNL     1       1.229   0.120  -2.689  1.00  0.00     0.238 A 
ATOM      6  N   UNL     1       1.226   0.158  -1.360  1.00  0.00    -0.195 NA
ENDROOT
BRANCH   1   7
ATOM      7  N   UNL     1       2.491   0.437   0.654  1.00  0.00    -0.340 N 
ATOM      8  H   UNL     1       3.119  -0.262   1.033  1.00  0.00     0.168 HD
BRANCH   7   9
ATOM      9  C   UNL     1       1.436   0.768   1.530  1.00  0.00     0.040 A 
ATOM     10  C   UNL     1      -0.620   1.441   3.319  1.00  0.00     0.082 A 
ATOM     11  C   UNL     1       0.361   0.526   3.703  1.00  0.00     0.024 A 
ATOM     12  C   UNL     1      -0.571   2.049   2.065  1.00  0.00     0.024 A 
ATOM     13  C   UNL     1       1.389   0.202   2.812  1.00  0.00     0.027 A 
ATOM     14  C   UNL     1       0.454   1.708   1.179  1.00  0.00     0.027 A 
BRANCH  10  15
ATOM     15  S   UNL     1      -1.934   1.857   4.433  1.00  0.00     0.238 S 
ATOM     16  O   UNL     1      -1.681   1.218   5.703  1.00  0.00    -0.207 OA
ATOM     17  O   UNL     1      -2.200   3.271   4.311  1.00  0.00    -0.207 OA
BRANCH  15  18
ATOM     18  N   UNL     1      -3.244   1.072   3.723  1.00  0.00    -0.225 NA
ATOM     19  H   UNL     1      -3.927   1.773   3.429  1.00  0.00     0.137 HD
ATOM     20  H   UNL     1      -2.979   0.459   2.953  1.00  0.00     0.137 HD
ENDBRANCH  15  18
ENDBRANCH  10  15
ENDBRANCH   7   9
ENDBRANCH   1   7
BRANCH   5  21
ATOM     21  N   UNL     1       0.068  -0.187  -3.380  1.00  0.00    -0.247 N 
ATOM     22  H   UNL     1       0.132  -0.144  -4.389  1.00  0.00     0.183 HD
BRANCH  21  23
ATOM     23  S   UNL     1      -1.420  -0.038  -2.691  1.00  0.00     0.264 S 
ATOM     24  O   UNL     1      -2.378  -0.254  -3.759  1.00  0.00    -0.201 OA
ATOM     25  O   UNL     1      -1.500   1.158  -1.879  1.00  0.00    -0.201 OA
BRANCH  23  26
ATOM     26  C   UNL     1      -1.528  -1.470  -1.639  1.00  0.00     0.088 A 
ATOM     27  C   UNL     1      -1.457  -1.327  -0.252  1.00  0.00     0.022 A 
ATOM     28  C   UNL     1      -1.732  -2.730  -2.216  1.00  0.00     0.035 A 
ATOM     29  C   UNL     1      -1.564  -2.452   0.564  1.00  0.00     0.002 A 
ATOM     30  C   UNL     1      -1.835  -3.868  -1.400  1.00  0.00     0.057 A 
ATOM     31  C   UNL     1      -1.754  -3.713  -0.005  1.00  0.00     0.013 A 
BRANCH  30  32
ATOM     32  C   UNL     1      -2.068  -5.230  -2.008  1.00  0.00     0.416 C 
ATOM     33  F   UNL     1      -1.528  -5.356  -3.252  1.00  0.00    -0.166 F 
ATOM     34  F   UNL     1      -3.390  -5.520  -2.139  1.00  0.00    -0.166 F 
ATOM     35  F   UNL     1      -1.532  -6.241  -1.268  1.00  0.00    -0.166 F 
ENDBRANCH  30  32
ENDBRANCH  23  26
ENDBRANCH  21  23
ENDBRANCH   5  21
TORSDOF 8
