REMARK SMILES NS(=O)(=O)c1ccc(C(=O)N2CCN(C(=O)c3ccc(Cl)s3)CC2)cc1
REMARK SMILES IDX 5 1 6 2 7 3 8 4 25 5 26 6 2 7 3 8 4 9 1 10 9 13 10 14 11 15
REMARK SMILES IDX 12 16 24 17 13 18 23 19 14 20 15 21 16 22 17 23 18 24 22 25
REMARK SMILES IDX 19 26 20 27 21 28
REMARK H PARENT 1 11 1 12
ROOT
ATOM      1  C   UNL     1       0.706   1.599   3.929  1.00  0.00     0.082 A 
ATOM      2  C   UNL     1       1.529   2.042   2.882  1.00  0.00     0.022 A 
ATOM      3  C   UNL     1       1.972   1.130   1.923  1.00  0.00     0.015 A 
ATOM      4  C   UNL     1       1.591  -0.213   2.027  1.00  0.00     0.040 A 
ATOM      5  C   UNL     1       0.787  -0.663   3.082  1.00  0.00     0.015 A 
ATOM      6  C   UNL     1       0.341   0.249   4.039  1.00  0.00     0.022 A 
ENDROOT
BRANCH   1   7
ATOM      7  S   UNL     1       0.179   2.753   5.163  1.00  0.00     0.238 S 
ATOM      8  O   UNL     1      -0.346   2.034   6.301  1.00  0.00    -0.207 OA
ATOM      9  O   UNL     1       1.170   3.798   5.288  1.00  0.00    -0.207 OA
BRANCH   7  10
ATOM     10  N   UNL     1      -1.153   3.463   4.416  1.00  0.00    -0.225 NA
ATOM     11  H   UNL     1      -0.977   4.463   4.287  1.00  0.00     0.137 HD
ATOM     12  H   UNL     1      -1.992   3.266   4.964  1.00  0.00     0.137 HD
ENDBRANCH   7  10
ENDBRANCH   1   7
BRANCH   4  13
ATOM     13  C   UNL     1       2.074  -1.184   1.031  1.00  0.00     0.253 C 
ATOM     14  O   UNL     1       3.099  -1.808   1.291  1.00  0.00    -0.269 OA
ATOM     15  N   UNL     1       1.342  -1.342  -0.138  1.00  0.00    -0.335 N 
ATOM     16  C   UNL     1       0.099  -0.631  -0.460  1.00  0.00     0.141 C 
ATOM     17  C   UNL     1       1.844  -2.284  -1.142  1.00  0.00     0.141 C 
ATOM     18  C   UNL     1      -0.831  -1.455  -1.364  1.00  0.00     0.141 C 
ATOM     19  C   UNL     1       1.298  -2.005  -2.548  1.00  0.00     0.141 C 
ATOM     20  N   UNL     1      -0.169  -1.954  -2.577  1.00  0.00    -0.334 N 
ATOM     21  C   UNL     1      -0.840  -2.516  -3.669  1.00  0.00     0.264 C 
ATOM     22  O   UNL     1      -0.228  -2.990  -4.627  1.00  0.00    -0.268 OA
BRANCH  21  23
ATOM     23  C   UNL     1      -2.287  -2.523  -3.617  1.00  0.00     0.094 A 
ATOM     24  C   UNL     1      -3.171  -1.483  -3.842  1.00  0.00     0.027 A 
ATOM     25  S   UNL     1      -3.101  -3.993  -3.294  1.00  0.00    -0.118 S 
ATOM     26  C   UNL     1      -4.530  -1.894  -3.685  1.00  0.00     0.033 A 
ATOM     27  C   UNL     1      -4.608  -3.228  -3.383  1.00  0.00     0.094 A 
ATOM     28  Cl  UNL     1      -6.043  -4.131  -3.102  1.00  0.00    -0.072 Cl
ENDBRANCH  21  23
ENDBRANCH   4  13
TORSDOF 4
