REMARK SMILES COCCCN1C[C@H](N)c2cc(S(N)(=O)=O)sc2S1(=O)=O
REMARK SMILES IDX 5 1 4 2 3 3 2 4 1 5 6 6 7 7 19 8 8 9 18 10 20 11 21 12 10 13
REMARK SMILES IDX 17 14 11 15 12 16 9 17 13 20 15 21 16 22 14 23
REMARK H PARENT 9 18 9 19 14 24 14 25
ROOT
ATOM      1  C   UNL     1      -1.207  -1.518   1.407  1.00  0.00     0.105 C 
ENDROOT
BRANCH   1   2
ATOM      2  C   UNL     1      -2.098  -1.579   2.648  1.00  0.00     0.045 C 
BRANCH   2   3
ATOM      3  C   UNL     1      -3.313  -0.668   2.543  1.00  0.00     0.161 C 
BRANCH   3   4
ATOM      4  O   UNL     1      -4.164  -1.171   1.513  1.00  0.00    -0.385 OA
ATOM      5  C   UNL     1      -5.217  -0.261   1.217  1.00  0.00     0.194 C 
ENDBRANCH   3   4
ENDBRANCH   2   3
ENDBRANCH   1   2
BRANCH   1   6
ATOM      6  N   UNL     1      -0.320  -0.325   1.489  1.00  0.00    -0.195 NA
ATOM      7  C   UNL     1       1.142  -0.656   1.635  1.00  0.00     0.126 C 
ATOM      8  S   UNL     1      -0.575   0.926   0.335  1.00  0.00     0.252 S 
ATOM      9  C   UNL     1       1.774  -1.313   0.350  1.00  0.00     0.099 C 
ATOM     10  C   UNL     1       0.468   0.390  -0.996  1.00  0.00     0.141 A 
ATOM     11  O   UNL     1       0.065   2.123   0.831  1.00  0.00    -0.206 OA
ATOM     12  O   UNL     1      -1.938   0.897  -0.136  1.00  0.00    -0.206 OA
ATOM     13  C   UNL     1       1.479  -0.553  -0.929  1.00  0.00     0.003 A 
ATOM     14  S   UNL     1       0.283   1.097  -2.522  1.00  0.00    -0.109 S 
ATOM     15  C   UNL     1       2.102  -0.692  -2.215  1.00  0.00     0.040 A 
ATOM     16  C   UNL     1       1.564   0.161  -3.166  1.00  0.00     0.136 A 
BRANCH   9  17
ATOM     17  N   UNL     1       3.226  -1.432   0.489  1.00  0.00    -0.323 NA
ATOM     18  H   UNL     1       3.590  -2.056  -0.229  1.00  0.00     0.119 HD
ATOM     19  H   UNL     1       3.455  -1.875   1.379  1.00  0.00     0.119 HD
ENDBRANCH   9  17
BRANCH  16  20
ATOM     20  S   UNL     1       1.933   0.426  -4.885  1.00  0.00     0.247 S 
ATOM     21  O   UNL     1       2.064   1.852  -5.061  1.00  0.00    -0.206 OA
ATOM     22  O   UNL     1       0.990  -0.398  -5.602  1.00  0.00    -0.206 OA
BRANCH  20  23
ATOM     23  N   UNL     1       3.450  -0.235  -5.150  1.00  0.00    -0.224 NA
ATOM     24  H   UNL     1       3.458  -1.251  -5.160  1.00  0.00     0.137 HD
ATOM     25  H   UNL     1       4.197   0.247  -4.655  1.00  0.00     0.137 HD
ENDBRANCH  20  23
ENDBRANCH  16  20
ENDBRANCH   1   6
TORSDOF 7
