REMARK SMILES NS(=O)(=O)c1cc(-c2nc(C3CC3)no2)cs1
REMARK SMILES IDX 5 1 6 2 7 3 16 4 17 5 2 6 3 7 4 8 1 9 8 12 9 13 15 14 10 15
REMARK SMILES IDX 14 16 11 17 12 18 13 19
REMARK H PARENT 1 10 1 11
ROOT
ATOM      1  C   UNL     1      -1.481   1.082   2.298  1.00  0.00     0.135 A 
ATOM      2  C   UNL     1      -0.898   0.251   1.360  1.00  0.00     0.047 A 
ATOM      3  C   UNL     1       0.236   0.851   0.743  1.00  0.00     0.052 A 
ATOM      4  C   UNL     1       0.484   2.117   1.223  1.00  0.00     0.080 A 
ATOM      5  S   UNL     1      -0.655   2.577   2.417  1.00  0.00    -0.130 S 
ENDROOT
BRANCH   1   6
ATOM      6  S   UNL     1      -2.888   0.873   3.363  1.00  0.00     0.247 S 
ATOM      7  O   UNL     1      -2.354   0.831   4.702  1.00  0.00    -0.206 OA
ATOM      8  O   UNL     1      -3.637  -0.211   2.771  1.00  0.00    -0.206 OA
BRANCH   6   9
ATOM      9  N   UNL     1      -3.833   2.252   3.228  1.00  0.00    -0.224 NA
ATOM     10  H   UNL     1      -4.269   2.338   2.313  1.00  0.00     0.137 HD
ATOM     11  H   UNL     1      -3.358   3.084   3.574  1.00  0.00     0.137 HD
ENDBRANCH   6   9
ENDBRANCH   1   6
BRANCH   3  12
ATOM     12  C   UNL     1       1.116   0.174  -0.356  1.00  0.00     0.258 A 
ATOM     13  N   UNL     1       0.888  -1.033  -0.826  1.00  0.00    -0.191 NA
ATOM     14  O   UNL     1       2.205   0.771  -0.936  1.00  0.00    -0.334 OA
ATOM     15  C   UNL     1       1.891  -1.183  -1.745  1.00  0.00     0.175 A 
ATOM     16  N   UNL     1       2.718  -0.139  -1.861  1.00  0.00    -0.062 NA
BRANCH  15  17
ATOM     17  C   UNL     1       2.062  -2.475  -2.589  1.00  0.00     0.061 C 
ATOM     18  C   UNL     1       0.840  -3.177  -3.125  1.00  0.00     0.012 C 
ATOM     19  C   UNL     1       1.748  -2.435  -4.063  1.00  0.00     0.012 C 
ENDBRANCH  15  17
ENDBRANCH   3  12
TORSDOF 4
