REMARK SMILES NS(=O)(=O)c1ccc(NC(=O)/C(Cc2ccc(O)c(Br)c2)=N/O)cc1
REMARK SMILES IDX 9 1 10 2 11 3 8 5 5 6 6 7 25 8 7 9 24 10 2 11 3 12 4 13 1 14
REMARK SMILES IDX 12 17 22 18 13 19 14 20 15 21 21 22 16 23 19 24 17 25 20 26
REMARK SMILES IDX 18 27 23 29
REMARK H PARENT 9 4 1 15 1 16 18 28 23 30
ROOT
ATOM      1  N   UNL     1       1.264  -0.750   0.059  1.00  0.00    -0.321 N 
ATOM      2  C   UNL     1       0.869   0.342  -0.685  1.00  0.00     0.273 C 
ATOM      3  O   UNL     1       0.333   1.370  -0.303  1.00  0.00    -0.267 OA
ATOM      4  H   UNL     1       1.720  -1.479  -0.485  1.00  0.00     0.170 HD
ENDROOT
BRANCH   1   5
ATOM      5  C   UNL     1       1.138  -0.946   1.444  1.00  0.00     0.041 A 
ATOM      6  C   UNL     1       0.951  -1.488   4.183  1.00  0.00     0.082 A 
ATOM      7  C   UNL     1       0.469  -0.279   3.681  1.00  0.00     0.024 A 
ATOM      8  C   UNL     1       1.542  -2.424   3.333  1.00  0.00     0.024 A 
ATOM      9  C   UNL     1       0.559  -0.014   2.310  1.00  0.00     0.027 A 
ATOM     10  C   UNL     1       1.630  -2.151   1.966  1.00  0.00     0.027 A 
BRANCH   6  11
ATOM     11  S   UNL     1       0.847  -1.830   5.920  1.00  0.00     0.238 S 
ATOM     12  O   UNL     1       1.895  -2.759   6.267  1.00  0.00    -0.207 OA
ATOM     13  O   UNL     1       0.646  -0.584   6.622  1.00  0.00    -0.207 OA
BRANCH  11  14
ATOM     14  N   UNL     1      -0.623  -2.647   6.013  1.00  0.00    -0.225 NA
ATOM     15  H   UNL     1      -1.012  -2.884   5.101  1.00  0.00     0.137 HD
ATOM     16  H   UNL     1      -1.273  -2.092   6.573  1.00  0.00     0.137 HD
ENDBRANCH  11  14
ENDBRANCH   6  11
ENDBRANCH   1   5
BRANCH   2  17
ATOM     17  C   UNL     1       1.178   0.167  -2.175  1.00  0.00     0.149 C 
ATOM     18  N   UNL     1       2.006  -0.791  -2.500  1.00  0.00    -0.088 NA
BRANCH  17  19
ATOM     19  C   UNL     1       0.462   1.102  -3.125  1.00  0.00     0.101 C 
BRANCH  19  20
ATOM     20  C   UNL     1      -0.956   0.655  -3.396  1.00  0.00    -0.040 A 
ATOM     21  C   UNL     1      -2.027   1.207  -2.678  1.00  0.00     0.008 A 
ATOM     22  C   UNL     1      -1.217  -0.341  -4.348  1.00  0.00     0.023 A 
ATOM     23  C   UNL     1      -3.336   0.779  -2.912  1.00  0.00     0.047 A 
ATOM     24  C   UNL     1      -2.526  -0.771  -4.581  1.00  0.00     0.060 A 
ATOM     25  C   UNL     1      -3.584  -0.209  -3.864  1.00  0.00     0.129 A 
ATOM     26  Br  UNL     1      -2.815  -2.122  -5.880  1.00  0.00    -0.047 Br
BRANCH  25  27
ATOM     27  O   UNL     1      -4.866  -0.628  -4.089  1.00  0.00    -0.507 OA
ATOM     28  H   UNL     1      -5.472  -0.118  -3.528  1.00  0.00     0.293 HD
ENDBRANCH  25  27
ENDBRANCH  19  20
ENDBRANCH  17  19
BRANCH  18  29
ATOM     29  O   UNL     1       2.194  -0.862  -3.884  1.00  0.00    -0.410 OA
ATOM     30  H   UNL     1       2.842  -1.586  -3.983  1.00  0.00     0.330 HD
ENDBRANCH  18  29
ENDBRANCH   2  17
TORSDOF 8
