REMARK SMILES CN1CCN(/N=C(\S)Nc2ccc(S(=O)(=O)Nc3nnc(S(N)(=O)=O)s3)cc2)CC1
REMARK SMILES IDX 14 1 15 2 16 3 13 4 10 5 11 6 28 7 12 8 27 9 9 10 6 11 7 12
REMARK SMILES IDX 5 14 2 15 3 16 30 17 4 18 29 19 1 20 8 21 17 23 18 25 19 26
REMARK SMILES IDX 26 27 20 28 21 29 22 30 24 31 25 32 23 33
REMARK H PARENT 9 13 8 22 17 24 23 34 23 35
ROOT
ATOM      1  S   UNL     1      -2.887   1.899  -2.259  1.00  0.00     0.263 S 
ATOM      2  O   UNL     1      -3.525   2.808  -1.327  1.00  0.00    -0.201 OA
ATOM      3  O   UNL     1      -2.871   2.173  -3.683  1.00  0.00    -0.201 OA
ENDROOT
BRANCH   1   4
ATOM      4  C   UNL     1      -1.221   1.659  -1.694  1.00  0.00     0.088 A 
ATOM      5  C   UNL     1       1.393   1.139  -0.782  1.00  0.00     0.040 A 
ATOM      6  C   UNL     1       0.300   1.094   0.093  1.00  0.00     0.027 A 
ATOM      7  C   UNL     1       1.143   1.466  -2.126  1.00  0.00     0.027 A 
ATOM      8  C   UNL     1      -1.000   1.361  -0.350  1.00  0.00     0.024 A 
ATOM      9  C   UNL     1      -0.152   1.729  -2.586  1.00  0.00     0.024 A 
BRANCH   5  10
ATOM     10  N   UNL     1       2.704   0.806  -0.410  1.00  0.00    -0.334 N 
ATOM     11  N   UNL     1       2.436  -0.352   1.655  1.00  0.00    -0.152 NA
ATOM     12  C   UNL     1       3.163   0.180   0.718  1.00  0.00     0.181 C 
ATOM     13  H   UNL     1       3.430   1.105  -1.042  1.00  0.00     0.169 HD
BRANCH  11  14
ATOM     14  N   UNL     1       3.068  -0.983   2.694  1.00  0.00    -0.292 N 
ATOM     15  N   UNL     1       1.034  -2.498   4.271  1.00  0.00    -0.303 NA
ATOM     16  C   UNL     1       1.985  -1.598   4.948  1.00  0.00     0.107 C 
ATOM     17  C   UNL     1       1.616  -3.023   3.016  1.00  0.00     0.107 C 
ATOM     18  C   UNL     1       2.638  -0.526   4.043  1.00  0.00     0.154 C 
ATOM     19  C   UNL     1       3.001  -2.463   2.641  1.00  0.00     0.154 C 
ATOM     20  C   UNL     1      -0.225  -1.810   4.001  1.00  0.00     0.105 C 
ENDBRANCH  11  14
BRANCH  12  21
ATOM     21  S   UNL     1       4.931   0.145   0.750  1.00  0.00    -0.104 SA
ATOM     22  H   UNL     1       4.960  -0.547   1.897  1.00  0.00     0.111 HD
ENDBRANCH  12  21
ENDBRANCH   5  10
ENDBRANCH   1   4
BRANCH   1  23
ATOM     23  N   UNL     1      -3.550   0.394  -1.965  1.00  0.00    -0.253 N 
ATOM     24  H   UNL     1      -4.405   0.452  -1.415  1.00  0.00     0.182 HD
BRANCH  23  25
ATOM     25  C   UNL     1      -3.627  -0.542  -3.062  1.00  0.00     0.220 A 
ATOM     26  N   UNL     1      -4.697  -1.297  -3.165  1.00  0.00    -0.118 NA
ATOM     27  S   UNL     1      -2.368  -0.944  -4.150  1.00  0.00    -0.062 S 
ATOM     28  N   UNL     1      -4.567  -2.249  -4.166  1.00  0.00    -0.123 NA
ATOM     29  C   UNL     1      -3.393  -2.163  -4.748  1.00  0.00     0.249 A 
BRANCH  29  30
ATOM     30  S   UNL     1      -2.815  -3.253  -6.014  1.00  0.00     0.267 S 
ATOM     31  O   UNL     1      -1.409  -3.469  -5.754  1.00  0.00    -0.205 OA
ATOM     32  O   UNL     1      -3.314  -2.717  -7.258  1.00  0.00    -0.205 OA
BRANCH  30  33
ATOM     33  N   UNL     1      -3.571  -4.753  -5.768  1.00  0.00    -0.223 NA
ATOM     34  H   UNL     1      -3.190  -5.219  -4.940  1.00  0.00     0.137 HD
ATOM     35  H   UNL     1      -4.587  -4.667  -5.773  1.00  0.00     0.137 HD
ENDBRANCH  30  33
ENDBRANCH  29  30
ENDBRANCH  23  25
ENDBRANCH   1  23
TORSDOF 8
