REMARK SMILES C[C@H](CCC(=O)Oc1ccc2nc(S(N)(=O)=O)sc2c1)[C@H]1CC[C@H]2[C@@H]3C(=O)C[C@@H]4CC(=O)CC[C@]4(C)[C@H]3CC(=O)[C@]12C
REMARK SMILES IDX 5 1 6 2 4 3 3 4 2 5 1 6 21 7 22 8 41 9 23 10 39 11 24 12
REMARK SMILES IDX 38 13 40 14 25 15 37 16 26 17 35 18 27 19 28 20 34 21 29 22
REMARK SMILES IDX 33 23 30 24 31 25 32 26 42 27 36 28 7 29 8 30 9 31 20 32
REMARK SMILES IDX 10 33 19 34 11 35 18 36 12 37 13 38 14 39 16 40 17 41 15 42
REMARK H PARENT 15 43 15 44
ROOT
ATOM      1  C   UNL     1       0.418  -3.937  -3.230  1.00  0.00     0.311 C 
ATOM      2  O   UNL     1       0.096  -4.356  -4.336  1.00  0.00    -0.252 OA
ENDROOT
BRANCH   1   3
ATOM      3  C   UNL     1      -0.405  -4.159  -1.979  1.00  0.00     0.123 C 
BRANCH   3   4
ATOM      4  C   UNL     1      -0.448  -2.960  -1.024  1.00  0.00     0.015 C 
BRANCH   4   5
ATOM      5  C   UNL     1      -0.997  -1.651  -1.634  1.00  0.00    -0.010 C 
ATOM      6  C   UNL     1      -2.440  -1.840  -2.112  1.00  0.00     0.008 C 
BRANCH   5   7
ATOM      7  C   UNL     1      -0.717  -0.426  -0.709  1.00  0.00     0.005 C 
ATOM      8  C   UNL     1      -1.013   0.928  -1.414  1.00  0.00     0.005 C 
ATOM      9  C   UNL     1      -1.354  -0.261   0.700  1.00  0.00     0.033 C 
ATOM     10  C   UNL     1      -1.422   1.922  -0.320  1.00  0.00     0.006 C 
ATOM     11  C   UNL     1      -0.684  -0.996   1.859  1.00  0.00     0.139 C 
ATOM     12  C   UNL     1      -1.003   1.232   0.971  1.00  0.00     0.013 C 
ATOM     13  C   UNL     1      -1.147  -0.590   3.255  1.00  0.00     0.081 C 
ATOM     14  O   UNL     1       0.166  -1.866   1.706  1.00  0.00    -0.299 OA
ATOM     15  C   UNL     1      -1.579   1.768   2.289  1.00  0.00     0.064 C 
ATOM     16  C   UNL     1      -1.025   0.930   3.485  1.00  0.00     0.013 C 
ATOM     17  C   UNL     1      -1.209   3.223   2.563  1.00  0.00     0.136 C 
ATOM     18  C   UNL     1      -1.610   1.428   4.864  1.00  0.00    -0.025 C 
ATOM     19  O   UNL     1      -0.516   3.899   1.809  1.00  0.00    -0.299 OA
ATOM     20  C   UNL     1      -1.753   3.800   3.851  1.00  0.00     0.080 C 
ATOM     21  C   UNL     1      -1.022   0.656   6.082  1.00  0.00     0.015 C 
ATOM     22  C   UNL     1      -1.290   2.956   5.047  1.00  0.00     0.010 C 
ATOM     23  C   UNL     1       0.464   0.879   6.303  1.00  0.00     0.076 C 
ATOM     24  C   UNL     1       0.201   3.233   5.326  1.00  0.00     0.080 C 
ATOM     25  C   UNL     1       0.734   2.355   6.433  1.00  0.00     0.133 C 
ATOM     26  O   UNL     1       1.435   2.803   7.339  1.00  0.00    -0.300 OA
ATOM     27  C   UNL     1      -2.858  -0.572   0.719  1.00  0.00     0.020 C 
ATOM     28  C   UNL     1      -3.146   1.214   4.928  1.00  0.00     0.012 C 
ENDBRANCH   5   7
ENDBRANCH   4   5
ENDBRANCH   3   4
ENDBRANCH   1   3
BRANCH   1  29
ATOM     29  O   UNL     1       1.595  -3.261  -2.918  1.00  0.00    -0.426 OA
BRANCH  29  30
ATOM     30  C   UNL     1       2.522  -2.792  -3.882  1.00  0.00     0.132 A 
ATOM     31  C   UNL     1       3.807  -2.562  -3.394  1.00  0.00     0.049 A 
ATOM     32  C   UNL     1       2.170  -2.489  -5.201  1.00  0.00     0.068 A 
ATOM     33  C   UNL     1       4.788  -2.026  -4.232  1.00  0.00     0.034 A 
ATOM     34  C   UNL     1       3.171  -1.958  -6.033  1.00  0.00     0.059 A 
ATOM     35  C   UNL     1       4.470  -1.712  -5.571  1.00  0.00     0.083 A 
ATOM     36  S   UNL     1       3.070  -1.507  -7.697  1.00  0.00    -0.101 S 
ATOM     37  N   UNL     1       5.336  -1.156  -6.498  1.00  0.00    -0.224 NA
ATOM     38  C   UNL     1       4.691  -1.005  -7.640  1.00  0.00     0.225 A 
BRANCH  38  39
ATOM     39  S   UNL     1       5.406  -0.314  -9.114  1.00  0.00     0.265 S 
ATOM     40  O   UNL     1       5.655  -1.429 -10.001  1.00  0.00    -0.205 OA
ATOM     41  O   UNL     1       4.581   0.820  -9.472  1.00  0.00    -0.205 OA
BRANCH  39  42
ATOM     42  N   UNL     1       6.914   0.316  -8.666  1.00  0.00    -0.223 NA
ATOM     43  H   UNL     1       7.406  -0.342  -8.060  1.00  0.00     0.137 HD
ATOM     44  H   UNL     1       6.794   1.234  -8.240  1.00  0.00     0.137 HD
ENDBRANCH  39  42
ENDBRANCH  38  39
ENDBRANCH  29  30
ENDBRANCH   1  29
TORSDOF 8
