REMARK SMILES COCCOCCN(CCOC)C(=O)CC1C(=O)Nc2cc(S(N)(=O)=O)sc2S1(=O)=O
REMARK SMILES IDX 7 1 6 2 5 3 4 4 3 5 2 6 1 7 8 8 9 9 10 10 11 11 12 12 13 13
REMARK SMILES IDX 14 14 15 15 16 16 17 17 29 18 18 19 19 20 28 21 30 22 31 23
REMARK SMILES IDX 20 24 27 25 21 26 22 27 23 29 25 30 26 31 24 32
REMARK H PARENT 19 28 24 33 24 34
ROOT
ATOM      1  C   UNL     1       1.986  -1.904   1.839  1.00  0.00     0.148 C 
ENDROOT
BRANCH   1   2
ATOM      2  C   UNL     1       0.783  -2.696   2.359  1.00  0.00     0.181 C 
BRANCH   2   3
ATOM      3  O   UNL     1       1.101  -3.229   3.645  1.00  0.00    -0.377 OA
BRANCH   3   4
ATOM      4  C   UNL     1      -0.003  -3.907   4.257  1.00  0.00     0.188 C 
BRANCH   4   5
ATOM      5  C   UNL     1      -0.961  -2.944   4.966  1.00  0.00     0.188 C 
BRANCH   5   6
ATOM      6  O   UNL     1      -0.333  -2.424   6.142  1.00  0.00    -0.382 OA
ATOM      7  C   UNL     1      -1.153  -1.464   6.795  1.00  0.00     0.195 C 
ENDBRANCH   5   6
ENDBRANCH   4   5
ENDBRANCH   3   4
ENDBRANCH   2   3
ENDBRANCH   1   2
BRANCH   1   8
ATOM      8  N   UNL     1       1.841  -1.539   0.425  1.00  0.00    -0.338 N 
BRANCH   8   9
ATOM      9  C   UNL     1       2.671  -2.287  -0.534  1.00  0.00     0.148 C 
BRANCH   9  10
ATOM     10  C   UNL     1       4.103  -1.737  -0.634  1.00  0.00     0.181 C 
BRANCH  10  11
ATOM     11  O   UNL     1       4.136  -0.501  -1.354  1.00  0.00    -0.383 OA
ATOM     12  C   UNL     1       4.385  -0.678  -2.744  1.00  0.00     0.194 C 
ENDBRANCH  10  11
ENDBRANCH   9  10
ENDBRANCH   8   9
BRANCH   8  13
ATOM     13  C   UNL     1       1.039  -0.452   0.131  1.00  0.00     0.224 C 
ATOM     14  O   UNL     1       0.467   0.205   1.004  1.00  0.00    -0.275 OA
BRANCH  13  15
ATOM     15  C   UNL     1       0.760  -0.111  -1.312  1.00  0.00     0.130 C 
BRANCH  15  16
ATOM     16  C   UNL     1      -0.357  -0.982  -1.879  1.00  0.00     0.212 C 
ATOM     17  C   UNL     1      -1.553  -1.048  -0.940  1.00  0.00     0.243 C 
ATOM     18  S   UNL     1      -0.851  -0.403  -3.480  1.00  0.00     0.202 S 
ATOM     19  O   UNL     1      -1.679  -1.999  -0.164  1.00  0.00    -0.273 OA
ATOM     20  N   UNL     1      -2.428   0.008  -0.850  1.00  0.00    -0.323 N 
ATOM     21  C   UNL     1      -1.943   0.881  -3.019  1.00  0.00     0.145 A 
ATOM     22  O   UNL     1       0.271   0.225  -4.148  1.00  0.00    -0.222 OA
ATOM     23  O   UNL     1      -1.674  -1.401  -4.129  1.00  0.00    -0.222 OA
ATOM     24  C   UNL     1      -2.594   0.974  -1.821  1.00  0.00     0.072 A 
ATOM     25  S   UNL     1      -2.324   2.129  -4.092  1.00  0.00    -0.108 S 
ATOM     26  C   UNL     1      -3.446   2.105  -1.773  1.00  0.00     0.061 A 
ATOM     27  C   UNL     1      -3.385   2.843  -2.946  1.00  0.00     0.138 A 
ATOM     28  H   UNL     1      -3.080  -0.020  -0.071  1.00  0.00     0.170 HD
BRANCH  27  29
ATOM     29  S   UNL     1      -4.209   4.335  -3.452  1.00  0.00     0.247 S 
ATOM     30  O   UNL     1      -4.508   5.013  -2.213  1.00  0.00    -0.206 OA
ATOM     31  O   UNL     1      -5.219   3.905  -4.386  1.00  0.00    -0.206 OA
BRANCH  29  32
ATOM     32  N   UNL     1      -3.107   5.281  -4.284  1.00  0.00    -0.224 NA
ATOM     33  H   UNL     1      -2.336   5.608  -3.705  1.00  0.00     0.137 HD
ATOM     34  H   UNL     1      -2.853   4.888  -5.188  1.00  0.00     0.137 HD
ENDBRANCH  29  32
ENDBRANCH  27  29
ENDBRANCH  15  16
ENDBRANCH  13  15
ENDBRANCH   8  13
ENDBRANCH   1   8
TORSDOF 14
