REMARK SMILES Cc1nn(-c2ccc(S(N)(=O)=O)cc2)c(=O)c2ccccc12
REMARK SMILES IDX 5 1 6 2 7 3 8 4 13 5 14 6 4 7 2 8 3 9 22 10 21 11 17 12
REMARK SMILES IDX 15 13 20 14 18 15 16 16 19 17 1 18 9 19 11 20 12 21 10 22
REMARK H PARENT 10 23 10 24
ROOT
ATOM      1  C   UNL     1       0.717  -0.189  -0.522  1.00  0.00     0.069 A 
ATOM      2  C   UNL     1       0.932   1.198  -0.672  1.00  0.00     0.030 A 
ATOM      3  C   UNL     1       2.120   1.713  -1.205  1.00  0.00     0.024 A 
ATOM      4  C   UNL     1       3.127   0.837  -1.598  1.00  0.00     0.082 A 
ATOM      5  C   UNL     1       2.943  -0.540  -1.484  1.00  0.00     0.024 A 
ATOM      6  C   UNL     1       1.749  -1.042  -0.948  1.00  0.00     0.030 A 
ENDROOT
BRANCH   1   7
ATOM      7  N   UNL     1      -0.525  -0.670   0.036  1.00  0.00    -0.196 N 
ATOM      8  C   UNL     1      -2.603   0.062   0.772  1.00  0.00     0.066 C 
ATOM      9  N   UNL     1      -1.434   0.338   0.292  1.00  0.00    -0.169 NA
ATOM     10  C   UNL     1      -3.051  -1.304   1.077  1.00  0.00     0.010 A 
ATOM     11  C   UNL     1      -4.326  -1.594   1.580  1.00  0.00     0.011 A 
ATOM     12  C   UNL     1      -2.145  -2.328   0.844  1.00  0.00     0.051 A 
ATOM     13  C   UNL     1      -0.800  -2.020   0.311  1.00  0.00     0.279 C 
ATOM     14  C   UNL     1      -4.686  -2.916   1.850  1.00  0.00     0.001 A 
ATOM     15  C   UNL     1      -2.509  -3.655   1.117  1.00  0.00     0.014 A 
ATOM     16  O   UNL     1      -0.037  -2.974   0.165  1.00  0.00    -0.267 OA
ATOM     17  C   UNL     1      -3.778  -3.947   1.619  1.00  0.00     0.001 A 
ATOM     18  C   UNL     1      -3.540   1.220   1.024  1.00  0.00     0.069 C 
ENDBRANCH   1   7
BRANCH   4  19
ATOM     19  S   UNL     1       4.640   1.462  -2.273  1.00  0.00     0.238 S 
ATOM     20  O   UNL     1       5.136   0.514  -3.242  1.00  0.00    -0.207 OA
ATOM     21  O   UNL     1       4.468   2.865  -2.573  1.00  0.00    -0.207 OA
BRANCH  19  22
ATOM     22  N   UNL     1       5.653   1.411  -0.928  1.00  0.00    -0.225 NA
ATOM     23  H   UNL     1       5.918   2.365  -0.680  1.00  0.00     0.137 HD
ATOM     24  H   UNL     1       5.247   0.910  -0.138  1.00  0.00     0.137 HD
ENDBRANCH  19  22
ENDBRANCH   4  19
TORSDOF 3
