REMARK SMILES NS(=O)(=O)c1ccc(-c2cnc(C3CCC3)o2)cc1
REMARK SMILES IDX 5 1 6 2 7 3 8 4 18 5 19 6 2 7 3 8 4 9 1 10 9 13 10 14 17 15
REMARK SMILES IDX 11 16 12 17 13 18 14 19 16 20 15 21
REMARK H PARENT 1 11 1 12
ROOT
ATOM      1  C   UNL     1      -1.602   1.000   3.275  1.00  0.00     0.082 A 
ATOM      2  C   UNL     1      -1.080  -0.257   2.969  1.00  0.00     0.022 A 
ATOM      3  C   UNL     1      -0.554  -0.491   1.694  1.00  0.00     0.013 A 
ATOM      4  C   UNL     1      -0.534   0.523   0.721  1.00  0.00     0.019 A 
ATOM      5  C   UNL     1      -1.052   1.784   1.058  1.00  0.00     0.013 A 
ATOM      6  C   UNL     1      -1.582   2.027   2.330  1.00  0.00     0.022 A 
ENDROOT
BRANCH   1   7
ATOM      7  S   UNL     1      -2.264   1.314   4.890  1.00  0.00     0.238 S 
ATOM      8  O   UNL     1      -2.114   2.720   5.178  1.00  0.00    -0.207 OA
ATOM      9  O   UNL     1      -1.801   0.280   5.786  1.00  0.00    -0.207 OA
BRANCH   7  10
ATOM     10  N   UNL     1      -3.901   1.005   4.647  1.00  0.00    -0.225 NA
ATOM     11  H   UNL     1      -4.148   0.874   3.667  1.00  0.00     0.137 HD
ATOM     12  H   UNL     1      -4.174   0.204   5.220  1.00  0.00     0.137 HD
ENDBRANCH   7  10
ENDBRANCH   1   7
BRANCH   4  13
ATOM     13  C   UNL     1       0.014   0.281  -0.608  1.00  0.00     0.154 A 
ATOM     14  C   UNL     1       0.221   1.032  -1.744  1.00  0.00     0.162 A 
ATOM     15  O   UNL     1       0.457  -0.986  -0.883  1.00  0.00    -0.440 OA
ATOM     16  N   UNL     1       0.784   0.264  -2.730  1.00  0.00    -0.221 NA
ATOM     17  C   UNL     1       0.909  -0.926  -2.175  1.00  0.00     0.198 A 
BRANCH  17  18
ATOM     18  C   UNL     1       1.512  -2.162  -2.906  1.00  0.00     0.076 C 
ATOM     19  C   UNL     1       2.869  -1.918  -3.608  1.00  0.00     0.013 C 
ATOM     20  C   UNL     1       0.929  -2.449  -4.310  1.00  0.00     0.013 C 
ATOM     21  C   UNL     1       2.360  -2.834  -4.741  1.00  0.00     0.002 C 
ENDBRANCH  17  18
ENDBRANCH   4  13
TORSDOF 4
