REMARK SMILES CCOC(=O)c1cnc2c(NC(=S)NCCc3ccc(S(N)(=O)=O)cc3)cnn2c1C
REMARK SMILES IDX 11 1 12 2 13 3 14 4 10 7 6 8 7 9 30 10 8 11 29 12 9 13 28 14
REMARK SMILES IDX 27 15 31 16 4 17 5 18 3 19 2 20 1 21 15 22 16 23 17 24 18 25
REMARK SMILES IDX 26 26 19 27 25 28 20 29 21 30 23 31 24 32 22 33
REMARK H PARENT 11 5 14 6 22 34 22 35
ROOT
ATOM      1  N   UNL     1       2.171  -0.576  -2.889  1.00  0.00    -0.328 N 
ATOM      2  C   UNL     1       1.594  -0.672  -4.126  1.00  0.00     0.170 C 
ATOM      3  S   UNL     1       2.309  -1.679  -5.253  1.00  0.00    -0.041 S 
ATOM      4  N   UNL     1       0.419   0.010  -4.309  1.00  0.00    -0.362 N 
ATOM      5  H   UNL     1       2.836  -1.312  -2.663  1.00  0.00     0.169 HD
ATOM      6  H   UNL     1       0.031   0.367  -3.449  1.00  0.00     0.162 HD
ENDROOT
BRANCH   1   7
ATOM      7  C   UNL     1       1.856   0.262  -1.832  1.00  0.00     0.106 A 
ATOM      8  C   UNL     1       2.070  -0.195   2.261  1.00  0.00     0.099 C 
ATOM      9  C   UNL     1       2.652  -1.218   1.336  1.00  0.00     0.131 C 
ATOM     10  C   UNL     1       1.587   0.918   1.663  1.00  0.00     0.058 C 
ATOM     11  N   UNL     1       2.691  -1.170   0.037  1.00  0.00    -0.234 NA
ATOM     12  N   UNL     1       1.592   0.981   0.258  1.00  0.00    -0.217 N 
ATOM     13  C   UNL     1       2.119  -0.060  -0.518  1.00  0.00     0.179 A 
ATOM     14  N   UNL     1       1.097   1.976  -0.530  1.00  0.00    -0.172 NA
ATOM     15  C   UNL     1       1.266   1.535  -1.776  1.00  0.00     0.164 A 
ATOM     16  C   UNL     1       1.031   2.120   2.377  1.00  0.00     0.068 C 
BRANCH   8  17
ATOM     17  C   UNL     1       2.087  -0.490   3.708  1.00  0.00     0.341 C 
ATOM     18  O   UNL     1       2.962  -1.163   4.233  1.00  0.00    -0.246 OA
BRANCH  17  19
ATOM     19  O   UNL     1       0.992   0.012   4.328  1.00  0.00    -0.462 OA
BRANCH  19  20
ATOM     20  C   UNL     1       0.849  -0.312   5.718  1.00  0.00     0.230 C 
ATOM     21  C   UNL     1       0.120  -1.633   5.869  1.00  0.00     0.049 C 
ENDBRANCH  19  20
ENDBRANCH  17  19
ENDBRANCH   8  17
ENDBRANCH   1   7
BRANCH   4  22
ATOM     22  C   UNL     1      -0.648  -0.360  -5.241  1.00  0.00     0.120 C 
BRANCH  22  23
ATOM     23  C   UNL     1      -1.436  -1.605  -4.782  1.00  0.00     0.056 C 
BRANCH  23  24
ATOM     24  C   UNL     1      -1.715  -1.614  -3.291  1.00  0.00    -0.046 A 
ATOM     25  C   UNL     1      -2.625  -0.713  -2.720  1.00  0.00     0.005 A 
ATOM     26  C   UNL     1      -0.964  -2.455  -2.452  1.00  0.00     0.005 A 
ATOM     27  C   UNL     1      -2.758  -0.628  -1.331  1.00  0.00     0.022 A 
ATOM     28  C   UNL     1      -1.089  -2.372  -1.066  1.00  0.00     0.022 A 
ATOM     29  C   UNL     1      -1.984  -1.455  -0.513  1.00  0.00     0.082 A 
BRANCH  29  30
ATOM     30  S   UNL     1      -2.083  -1.312   1.250  1.00  0.00     0.238 S 
ATOM     31  O   UNL     1      -0.780  -1.595   1.807  1.00  0.00    -0.207 OA
ATOM     32  O   UNL     1      -2.819  -0.113   1.578  1.00  0.00    -0.207 OA
BRANCH  30  33
ATOM     33  N   UNL     1      -3.105  -2.591   1.639  1.00  0.00    -0.225 NA
ATOM     34  H   UNL     1      -3.285  -3.216   0.854  1.00  0.00     0.137 HD
ATOM     35  H   UNL     1      -3.971  -2.216   2.031  1.00  0.00     0.137 HD
ENDBRANCH  30  33
ENDBRANCH  29  30
ENDBRANCH  23  24
ENDBRANCH  22  23
ENDBRANCH   4  22
TORSDOF 9
