REMARK SMILES NS(=O)(=O)c1nnc(N[S+]([O-])c2ccc([N+](=O)[O-])cc2)s1
REMARK SMILES IDX 9 1 8 3 5 4 6 5 21 6 7 7 2 8 3 9 4 10 1 11 10 14 11 15 12 16
REMARK SMILES IDX 13 17 20 18 14 19 19 20 15 21 16 22 17 23 18 24
REMARK H PARENT 9 2 1 12 1 13
ROOT
ATOM      1  N   UNL     1       0.943  -0.387   0.761  1.00  0.00    -0.172 N 
ATOM      2  H   UNL     1       1.547  -1.037   1.259  1.00  0.00     0.225 HD
ENDROOT
BRANCH   1   3
ATOM      3  C   UNL     1       0.106   0.277   1.597  1.00  0.00     0.249 A 
ATOM      4  C   UNL     1      -1.490   1.622   2.744  1.00  0.00     0.249 A 
ATOM      5  N   UNL     1      -0.988   0.694   3.527  1.00  0.00    -0.123 NA
ATOM      6  S   UNL     1      -0.880   1.630   1.152  1.00  0.00    -0.059 S 
ATOM      7  N   UNL     1      -0.076  -0.092   2.851  1.00  0.00    -0.115 NA
BRANCH   4   8
ATOM      8  S   UNL     1      -2.665   2.852   3.198  1.00  0.00     0.267 S 
ATOM      9  O   UNL     1      -3.058   2.595   4.564  1.00  0.00    -0.205 OA
ATOM     10  O   UNL     1      -3.630   2.941   2.125  1.00  0.00    -0.205 OA
BRANCH   8  11
ATOM     11  N   UNL     1      -1.890   4.355   3.240  1.00  0.00    -0.223 NA
ATOM     12  H   UNL     1      -2.472   5.037   2.749  1.00  0.00     0.137 HD
ATOM     13  H   UNL     1      -1.750   4.618   4.219  1.00  0.00     0.137 HD
ENDBRANCH   8  11
ENDBRANCH   4   8
ENDBRANCH   1   3
BRANCH   1  14
ATOM     14  S   UNL     1       1.778   0.456  -0.467  1.00  0.00     0.107 S 
ATOM     15  O   UNL     1       3.400   0.260  -0.210  1.00  0.00    -0.588 OA
BRANCH  14  16
ATOM     16  C   UNL     1       1.315  -0.763  -1.734  1.00  0.00     0.180 A 
ATOM     17  C   UNL     1       2.277  -1.625  -2.280  1.00  0.00     0.071 A 
ATOM     18  C   UNL     1      -0.010  -0.831  -2.189  1.00  0.00     0.071 A 
ATOM     19  C   UNL     1       1.922  -2.554  -3.263  1.00  0.00     0.091 A 
ATOM     20  C   UNL     1      -0.374  -1.758  -3.171  1.00  0.00     0.091 A 
ATOM     21  C   UNL     1       0.595  -2.618  -3.705  1.00  0.00     0.269 A 
BRANCH  21  22
ATOM     22  N   UNL     1       0.216  -3.592  -4.738  1.00  0.00     0.062 N 
ATOM     23  O   UNL     1       1.102  -4.333  -5.183  1.00  0.00    -0.258 OA
ATOM     24  O   UNL     1      -0.969  -3.611  -5.102  1.00  0.00    -0.258 OA
ENDBRANCH  21  22
ENDBRANCH  14  16
ENDBRANCH   1  14
TORSDOF 6
