REMARK SMILES NS(=O)(=O)c1cccc(-c2noc(-c3ccsc3)n2)c1
REMARK SMILES IDX 5 1 6 2 7 3 8 4 9 5 20 6 2 7 3 8 4 9 1 10 10 13 11 14 19 15
REMARK SMILES IDX 12 16 13 17 14 18 15 19 18 20 16 21 17 22
REMARK H PARENT 1 11 1 12
ROOT
ATOM      1  C   UNL     1       0.212  -0.502   2.707  1.00  0.00     0.082 A 
ATOM      2  C   UNL     1       1.298   0.009   3.421  1.00  0.00     0.022 A 
ATOM      3  C   UNL     1       2.354   0.598   2.728  1.00  0.00     0.002 A 
ATOM      4  C   UNL     1       2.323   0.667   1.332  1.00  0.00     0.012 A 
ATOM      5  C   UNL     1       1.240   0.143   0.607  1.00  0.00     0.024 A 
ATOM      6  C   UNL     1       0.180  -0.449   1.310  1.00  0.00     0.034 A 
ENDROOT
BRANCH   1   7
ATOM      7  S   UNL     1      -1.127  -1.260   3.589  1.00  0.00     0.238 S 
ATOM      8  O   UNL     1      -0.627  -1.745   4.852  1.00  0.00    -0.207 OA
ATOM      9  O   UNL     1      -1.867  -2.095   2.671  1.00  0.00    -0.207 OA
BRANCH   7  10
ATOM     10  N   UNL     1      -2.118   0.066   3.897  1.00  0.00    -0.225 NA
ATOM     11  H   UNL     1      -1.680   0.960   3.678  1.00  0.00     0.137 HD
ATOM     12  H   UNL     1      -3.002  -0.059   3.401  1.00  0.00     0.137 HD
ENDBRANCH   7  10
ENDBRANCH   1   7
BRANCH   5  13
ATOM     13  C   UNL     1       1.206   0.208  -0.851  1.00  0.00     0.202 A 
ATOM     14  N   UNL     1       2.178   0.749  -1.602  1.00  0.00    -0.057 NA
ATOM     15  N   UNL     1       0.146  -0.282  -1.580  1.00  0.00    -0.187 NA
ATOM     16  O   UNL     1       1.717   0.586  -2.905  1.00  0.00    -0.334 OA
ATOM     17  C   UNL     1       0.502  -0.038  -2.823  1.00  0.00     0.259 A 
BRANCH  17  18
ATOM     18  C   UNL     1      -0.369  -0.415  -4.062  1.00  0.00     0.051 A 
ATOM     19  C   UNL     1      -1.634  -1.067  -4.000  1.00  0.00     0.025 A 
ATOM     20  C   UNL     1       0.019  -0.146  -5.355  1.00  0.00     0.078 A 
ATOM     21  C   UNL     1      -2.168  -1.272  -5.253  1.00  0.00     0.065 A 
ATOM     22  S   UNL     1      -1.146  -0.679  -6.493  1.00  0.00    -0.152 S 
ENDBRANCH  17  18
ENDBRANCH   5  13
TORSDOF 4
