REMARK SMILES NS(=O)(=O)c1ccc(-n2ncc(NCc3ccccc3)c(Cl)c2=O)cc1
REMARK SMILES IDX 9 1 10 2 11 3 12 4 21 5 22 6 23 7 24 8 8 9 5 10 6 11 26 12
REMARK SMILES IDX 7 13 25 14 2 15 3 16 4 17 1 18 13 21 14 23 15 24 16 25 20 26
REMARK SMILES IDX 17 27 19 28 18 29
REMARK H PARENT 1 19 1 20 13 22
ROOT
ATOM      1  N   UNL     1       0.535   0.214   0.978  1.00  0.00    -0.196 N 
ATOM      2  N   UNL     1       0.707  -1.155   0.923  1.00  0.00    -0.171 NA
ATOM      3  C   UNL     1       1.365  -1.652  -0.069  1.00  0.00     0.161 C 
ATOM      4  C   UNL     1       1.969  -0.920  -1.201  1.00  0.00     0.079 C 
ATOM      5  C   UNL     1       1.804   0.407  -1.114  1.00  0.00     0.132 C 
ATOM      6  Cl  UNL     1       2.456   1.442  -2.352  1.00  0.00    -0.076 Cl
ATOM      7  C   UNL     1       1.046   1.073  -0.009  1.00  0.00     0.292 C 
ATOM      8  O   UNL     1       0.912   2.296  -0.041  1.00  0.00    -0.266 OA
ENDROOT
BRANCH   1   9
ATOM      9  C   UNL     1      -0.205   0.649   2.140  1.00  0.00     0.069 A 
ATOM     10  C   UNL     1      -1.680   1.411   4.435  1.00  0.00     0.082 A 
ATOM     11  C   UNL     1      -1.145   2.384   3.594  1.00  0.00     0.024 A 
ATOM     12  C   UNL     1      -1.476   0.062   4.165  1.00  0.00     0.024 A 
ATOM     13  C   UNL     1      -0.418   2.000   2.457  1.00  0.00     0.030 A 
ATOM     14  C   UNL     1      -0.748  -0.307   3.028  1.00  0.00     0.030 A 
BRANCH  10  15
ATOM     15  S   UNL     1      -2.598   1.907   5.867  1.00  0.00     0.238 S 
ATOM     16  O   UNL     1      -2.044   3.145   6.359  1.00  0.00    -0.207 OA
ATOM     17  O   UNL     1      -2.795   0.751   6.711  1.00  0.00    -0.207 OA
BRANCH  15  18
ATOM     18  N   UNL     1      -4.109   2.238   5.200  1.00  0.00    -0.225 NA
ATOM     19  H   UNL     1      -4.107   2.244   4.181  1.00  0.00     0.137 HD
ATOM     20  H   UNL     1      -4.788   1.574   5.577  1.00  0.00     0.137 HD
ENDBRANCH  15  18
ENDBRANCH  10  15
ENDBRANCH   1   9
BRANCH   4  21
ATOM     21  N   UNL     1       2.648  -1.612  -2.205  1.00  0.00    -0.378 N 
ATOM     22  H   UNL     1       2.931  -0.975  -2.952  1.00  0.00     0.161 HD
BRANCH  21  23
ATOM     23  C   UNL     1       2.280  -2.921  -2.732  1.00  0.00     0.148 C 
BRANCH  23  24
ATOM     24  C   UNL     1       0.982  -2.841  -3.497  1.00  0.00    -0.029 A 
ATOM     25  C   UNL     1      -0.205  -3.349  -2.947  1.00  0.00     0.005 A 
ATOM     26  C   UNL     1       0.937  -2.233  -4.761  1.00  0.00     0.005 A 
ATOM     27  C   UNL     1      -1.408  -3.254  -3.649  1.00  0.00     0.000 A 
ATOM     28  C   UNL     1      -0.268  -2.139  -5.460  1.00  0.00     0.000 A 
ATOM     29  C   UNL     1      -1.439  -2.649  -4.904  1.00  0.00     0.000 A 
ENDBRANCH  23  24
ENDBRANCH  21  23
ENDBRANCH   4  21
TORSDOF 6
