REMARK SMILES NS(=O)(=O)c1nc2ccc(OS(=O)(=O)c3c(F)c(F)c(F)c(F)c3F)cc2s1
REMARK SMILES IDX 5 1 6 2 7 3 8 4 9 5 10 6 26 7 27 8 28 9 2 10 3 11 4 12 1 13
REMARK SMILES IDX 11 16 12 17 13 18 14 19 15 20 16 21 24 22 18 23 22 24 20 25
REMARK SMILES IDX 17 26 25 27 19 28 23 29 21 30
REMARK H PARENT 1 14 1 15
ROOT
ATOM      1  C   UNL     1      -1.444   0.111   3.291  1.00  0.00     0.225 A 
ATOM      2  N   UNL     1      -0.780  -0.987   2.983  1.00  0.00    -0.224 NA
ATOM      3  C   UNL     1       0.099  -0.697   1.954  1.00  0.00     0.083 A 
ATOM      4  C   UNL     1       0.994  -1.605   1.353  1.00  0.00     0.034 A 
ATOM      5  C   UNL     1       1.831  -1.180   0.313  1.00  0.00     0.050 A 
ATOM      6  C   UNL     1       1.770   0.132  -0.144  1.00  0.00     0.144 A 
ATOM      7  C   UNL     1       0.914   1.062   0.455  1.00  0.00     0.069 A 
ATOM      8  C   UNL     1       0.079   0.624   1.496  1.00  0.00     0.059 A 
ATOM      9  S   UNL     1      -1.085   1.518   2.402  1.00  0.00    -0.101 S 
ENDROOT
BRANCH   1  10
ATOM     10  S   UNL     1      -2.681   0.223   4.563  1.00  0.00     0.265 S 
ATOM     11  O   UNL     1      -3.928   0.484   3.881  1.00  0.00    -0.205 OA
ATOM     12  O   UNL     1      -2.134   1.092   5.579  1.00  0.00    -0.205 OA
BRANCH  10  13
ATOM     13  N   UNL     1      -2.824  -1.323   5.236  1.00  0.00    -0.223 NA
ATOM     14  H   UNL     1      -3.493  -1.874   4.698  1.00  0.00     0.137 HD
ATOM     15  H   UNL     1      -1.910  -1.772   5.308  1.00  0.00     0.137 HD
ENDBRANCH  10  13
ENDBRANCH   1  10
BRANCH   6  16
ATOM     16  O   UNL     1       2.571   0.610  -1.151  1.00  0.00    -0.379 OA
BRANCH  16  17
ATOM     17  S   UNL     1       2.650  -0.134  -2.608  1.00  0.00     0.345 S 
ATOM     18  O   UNL     1       3.280   0.774  -3.546  1.00  0.00    -0.181 OA
ATOM     19  O   UNL     1       3.195  -1.462  -2.410  1.00  0.00    -0.181 OA
BRANCH  17  20
ATOM     20  C   UNL     1       0.990  -0.284  -3.155  1.00  0.00     0.183 A 
ATOM     21  C   UNL     1       0.172   0.838  -3.115  1.00  0.00     0.187 A 
ATOM     22  C   UNL     1       0.492  -1.489  -3.632  1.00  0.00     0.187 A 
ATOM     23  C   UNL     1      -1.150   0.754  -3.539  1.00  0.00     0.199 A 
ATOM     24  C   UNL     1      -0.832  -1.569  -4.058  1.00  0.00     0.199 A 
ATOM     25  C   UNL     1      -1.653  -0.450  -4.011  1.00  0.00     0.200 A 
ATOM     26  F   UNL     1       0.636   2.008  -2.657  1.00  0.00    -0.202 F 
ATOM     27  F   UNL     1       1.253  -2.586  -3.702  1.00  0.00    -0.202 F 
ATOM     28  F   UNL     1      -1.937   1.836  -3.485  1.00  0.00    -0.200 F 
ATOM     29  F   UNL     1      -1.315  -2.733  -4.513  1.00  0.00    -0.200 F 
ATOM     30  F   UNL     1      -2.927  -0.533  -4.416  1.00  0.00    -0.200 F 
ENDBRANCH  17  20
ENDBRANCH  16  17
ENDBRANCH   6  16
TORSDOF 5
