REMARK SMILES NS(=O)(=O)c1c(F)c(F)c(Sc2nc3ccccc3s2)c(F)c1F
REMARK SMILES IDX 5 1 6 2 7 3 8 4 9 5 10 6 21 7 22 8 23 9 24 10 2 11 3 12 4 13
REMARK SMILES IDX 1 14 11 17 12 18 13 19 20 20 14 21 19 22 15 23 18 24 16 25
REMARK SMILES IDX 17 26
REMARK H PARENT 1 15 1 16
ROOT
ATOM      1  C   UNL     1      -0.430   1.179   2.511  1.00  0.00     0.159 A 
ATOM      2  C   UNL     1       0.240  -0.018   2.707  1.00  0.00     0.183 A 
ATOM      3  F   UNL     1      -0.096  -0.857   3.695  1.00  0.00    -0.202 F 
ATOM      4  C   UNL     1       1.306  -0.363   1.877  1.00  0.00     0.177 A 
ATOM      5  F   UNL     1       1.939  -1.528   2.088  1.00  0.00    -0.202 F 
ATOM      6  C   UNL     1       1.717   0.482   0.844  1.00  0.00     0.092 A 
ATOM      7  C   UNL     1       1.044   1.694   0.675  1.00  0.00     0.177 A 
ATOM      8  F   UNL     1       1.415   2.546  -0.294  1.00  0.00    -0.202 F 
ATOM      9  C   UNL     1      -0.021   2.041   1.503  1.00  0.00     0.183 A 
ATOM     10  F   UNL     1      -0.632   3.218   1.310  1.00  0.00    -0.202 F 
ENDROOT
BRANCH   1  11
ATOM     11  S   UNL     1      -1.760   1.642   3.532  1.00  0.00     0.244 S 
ATOM     12  O   UNL     1      -1.416   2.875   4.198  1.00  0.00    -0.207 OA
ATOM     13  O   UNL     1      -2.270   0.497   4.246  1.00  0.00    -0.207 OA
BRANCH  11  14
ATOM     14  N   UNL     1      -2.979   2.011   2.434  1.00  0.00    -0.224 NA
ATOM     15  H   UNL     1      -3.782   1.401   2.596  1.00  0.00     0.137 HD
ATOM     16  H   UNL     1      -3.204   3.006   2.487  1.00  0.00     0.137 HD
ENDBRANCH  11  14
ENDBRANCH   1  11
BRANCH   6  17
ATOM     17  S   UNL     1       3.054   0.020  -0.240  1.00  0.00    -0.053 SA
BRANCH  17  18
ATOM     18  C   UNL     1       2.113  -0.833  -1.457  1.00  0.00     0.156 A 
ATOM     19  N   UNL     1       0.805  -0.945  -1.383  1.00  0.00    -0.229 NA
ATOM     20  S   UNL     1       2.857  -1.567  -2.813  1.00  0.00    -0.107 S 
ATOM     21  C   UNL     1       0.338  -1.664  -2.470  1.00  0.00     0.083 A 
ATOM     22  C   UNL     1       1.316  -2.093  -3.370  1.00  0.00     0.055 A 
ATOM     23  C   UNL     1      -1.010  -1.986  -2.730  1.00  0.00     0.030 A 
ATOM     24  C   UNL     1       0.994  -2.832  -4.521  1.00  0.00     0.021 A 
ATOM     25  C   UNL     1      -1.342  -2.722  -3.872  1.00  0.00     0.002 A 
ATOM     26  C   UNL     1      -0.350  -3.139  -4.755  1.00  0.00     0.002 A 
ENDBRANCH  17  18
ENDBRANCH   6  17
TORSDOF 4
