REMARK SMILES CCCCCC/C(=N\N)c1csc(S(N)(=O)=O)c1
REMARK SMILES IDX 6 1 5 2 4 3 3 4 2 5 1 6 7 7 8 8 10 9 11 10 18 11 12 12 13 13
REMARK SMILES IDX 14 14 16 15 17 16 15 17 9 20
REMARK H PARENT 15 18 15 19 9 21 9 22
ROOT
ATOM      1  C   UNL     1       2.025  -0.497   1.293  1.00  0.00     0.059 C 
ENDROOT
BRANCH   1   2
ATOM      2  C   UNL     1       1.192  -0.848   2.533  1.00  0.00     0.006 C 
BRANCH   2   3
ATOM      3  C   UNL     1       0.438  -2.181   2.444  1.00  0.00     0.000 C 
BRANCH   3   4
ATOM      4  C   UNL     1      -0.652  -2.279   1.376  1.00  0.00    -0.000 C 
BRANCH   4   5
ATOM      5  C   UNL     1      -1.761  -1.238   1.526  1.00  0.00    -0.003 C 
ATOM      6  C   UNL     1      -2.842  -1.427   0.472  1.00  0.00     0.004 C 
ENDBRANCH   4   5
ENDBRANCH   3   4
ENDBRANCH   2   3
ENDBRANCH   1   2
BRANCH   1   7
ATOM      7  C   UNL     1       1.340   0.512   0.376  1.00  0.00     0.068 C 
ATOM      8  N   UNL     1       1.108   1.756   0.696  1.00  0.00    -0.187 NA
BRANCH   7   9
ATOM      9  C   UNL     1       0.876   0.132  -0.969  1.00  0.00     0.010 A 
ATOM     10  C   UNL     1       1.285  -0.987  -1.672  1.00  0.00     0.076 A 
ATOM     11  C   UNL     1      -0.061   0.888  -1.760  1.00  0.00     0.043 A 
ATOM     12  S   UNL     1       0.530  -1.137  -3.201  1.00  0.00    -0.130 S 
ATOM     13  C   UNL     1      -0.342   0.313  -2.983  1.00  0.00     0.135 A 
BRANCH  13  14
ATOM     14  S   UNL     1      -1.416   0.795  -4.312  1.00  0.00     0.247 S 
ATOM     15  O   UNL     1      -2.282   1.802  -3.746  1.00  0.00    -0.206 OA
ATOM     16  O   UNL     1      -0.555   1.032  -5.445  1.00  0.00    -0.206 OA
BRANCH  14  17
ATOM     17  N   UNL     1      -2.383  -0.530  -4.672  1.00  0.00    -0.224 NA
ATOM     18  H   UNL     1      -1.840  -1.321  -5.012  1.00  0.00     0.137 HD
ATOM     19  H   UNL     1      -3.042  -0.737  -3.924  1.00  0.00     0.137 HD
ENDBRANCH  14  17
ENDBRANCH  13  14
ENDBRANCH   7   9
BRANCH   8  20
ATOM     20  N   UNL     1       1.546   2.228   1.898  1.00  0.00    -0.323 N 
ATOM     21  H   UNL     1       2.493   1.963   2.163  1.00  0.00     0.179 HD
ATOM     22  H   UNL     1       1.404   3.234   1.991  1.00  0.00     0.179 HD
ENDBRANCH   8  20
ENDBRANCH   1   7
TORSDOF 9
