REMARK SMILES O=C(CSC(=S)NN1CCCCC1)NCc1ccc2c(c1)OCO2
REMARK SMILES IDX 3 1 2 2 1 3 14 4 15 6 16 7 17 8 21 9 18 10 20 11 19 12 22 13
REMARK SMILES IDX 24 14 23 15 4 16 5 17 6 18 7 19 8 21 9 22 13 23 10 24 12 25
REMARK SMILES IDX 11 26
REMARK H PARENT 14 5 7 20
ROOT
ATOM      1  C   UNL     1      -1.009  -3.899   0.249  1.00  0.00     0.177 C 
ENDROOT
BRANCH   1   2
ATOM      2  C   UNL     1      -1.903  -2.829  -0.348  1.00  0.00     0.230 C 
ATOM      3  O   UNL     1      -1.737  -2.442  -1.504  1.00  0.00    -0.274 OA
ATOM      4  N   UNL     1      -2.950  -2.418   0.444  1.00  0.00    -0.351 N 
ATOM      5  H   UNL     1      -2.872  -2.570   1.443  1.00  0.00     0.163 HD
BRANCH   4   6
ATOM      6  C   UNL     1      -3.900  -1.424  -0.006  1.00  0.00     0.151 C 
BRANCH   6   7
ATOM      7  C   UNL     1      -3.479  -0.032   0.384  1.00  0.00    -0.025 A 
ATOM      8  C   UNL     1      -3.947   0.550   1.585  1.00  0.00     0.009 A 
ATOM      9  C   UNL     1      -2.583   0.684  -0.429  1.00  0.00     0.056 A 
ATOM     10  C   UNL     1      -3.536   1.829   1.972  1.00  0.00     0.051 A 
ATOM     11  C   UNL     1      -2.188   1.938  -0.016  1.00  0.00     0.166 A 
ATOM     12  C   UNL     1      -2.652   2.496   1.151  1.00  0.00     0.165 A 
ATOM     13  O   UNL     1      -1.320   2.753  -0.673  1.00  0.00    -0.454 OA
ATOM     14  O   UNL     1      -2.140   3.735   1.374  1.00  0.00    -0.454 OA
ATOM     15  C   UNL     1      -1.262   3.871   0.237  1.00  0.00     0.468 C 
ENDBRANCH   6   7
ENDBRANCH   4   6
ENDBRANCH   1   2
BRANCH   1  16
ATOM     16  S   UNL     1      -0.485  -3.580   1.952  1.00  0.00    -0.086 SA
BRANCH  16  17
ATOM     17  C   UNL     1       0.217  -1.974   1.818  1.00  0.00     0.148 C 
ATOM     18  S   UNL     1      -0.306  -0.727   2.799  1.00  0.00    -0.051 S 
ATOM     19  N   UNL     1       1.233  -1.939   0.884  1.00  0.00    -0.304 N 
ATOM     20  H   UNL     1       1.515  -2.803   0.434  1.00  0.00     0.183 HD
BRANCH  19  21
ATOM     21  N   UNL     1       1.896  -0.746   0.537  1.00  0.00    -0.223 NA
ATOM     22  C   UNL     1       3.359  -0.873   0.641  1.00  0.00     0.108 C 
ATOM     23  C   UNL     1       1.456  -0.251  -0.774  1.00  0.00     0.108 C 
ATOM     24  C   UNL     1       4.105  -0.848  -0.699  1.00  0.00     0.018 C 
ATOM     25  C   UNL     1       1.925  -1.134  -1.936  1.00  0.00     0.018 C 
ATOM     26  C   UNL     1       3.358  -1.641  -1.762  1.00  0.00     0.003 C 
ENDBRANCH  19  21
ENDBRANCH  16  17
ENDBRANCH   1  16
TORSDOF 6
