REMARK SMILES NS(=O)(=O)c1nnc(NC(=O)/C(Cc2ccc(O)cc2)=N/OCc2ccccc2)s1
REMARK SMILES IDX 9 1 10 2 11 3 8 5 5 6 6 7 30 8 7 9 2 10 3 11 4 12 1 13 12 16
REMARK SMILES IDX 21 17 13 18 14 19 15 20 20 21 16 22 19 23 17 24 18 25 22 27
REMARK SMILES IDX 23 28 24 29 25 30 29 31 26 32 28 33 27 34
REMARK H PARENT 9 4 1 14 1 15 18 26
ROOT
ATOM      1  N   UNL     1      -0.472   0.960   1.717  1.00  0.00    -0.295 N 
ATOM      2  C   UNL     1      -1.506   0.066   1.617  1.00  0.00     0.275 C 
ATOM      3  O   UNL     1      -2.689   0.218   1.872  1.00  0.00    -0.267 OA
ATOM      4  H   UNL     1       0.456   0.628   1.472  1.00  0.00     0.172 HD
ENDROOT
BRANCH   1   5
ATOM      5  C   UNL     1      -0.554   2.282   2.056  1.00  0.00     0.213 A 
ATOM      6  C   UNL     1      -1.117   4.482   2.646  1.00  0.00     0.249 A 
ATOM      7  N   UNL     1       0.168   4.381   2.368  1.00  0.00    -0.123 NA
ATOM      8  S   UNL     1      -2.012   3.040   2.516  1.00  0.00    -0.062 S 
ATOM      9  N   UNL     1       0.495   3.079   2.041  1.00  0.00    -0.119 NA
BRANCH   6  10
ATOM     10  S   UNL     1      -1.932   5.972   3.104  1.00  0.00     0.267 S 
ATOM     11  O   UNL     1      -1.980   5.969   4.548  1.00  0.00    -0.205 OA
ATOM     12  O   UNL     1      -3.112   6.066   2.274  1.00  0.00    -0.205 OA
BRANCH  10  13
ATOM     13  N   UNL     1      -0.934   7.256   2.640  1.00  0.00    -0.223 NA
ATOM     14  H   UNL     1      -1.085   7.488   1.656  1.00  0.00     0.137 HD
ATOM     15  H   UNL     1       0.045   7.083   2.878  1.00  0.00     0.137 HD
ENDBRANCH  10  13
ENDBRANCH   6  10
ENDBRANCH   1   5
BRANCH   2  16
ATOM     16  C   UNL     1      -1.034  -1.278   1.068  1.00  0.00     0.149 C 
ATOM     17  N   UNL     1       0.202  -1.611   1.314  1.00  0.00    -0.085 NA
BRANCH  16  18
ATOM     18  C   UNL     1      -2.033  -2.041   0.224  1.00  0.00     0.101 C 
BRANCH  18  19
ATOM     19  C   UNL     1      -2.147  -1.442  -1.158  1.00  0.00    -0.041 A 
ATOM     20  C   UNL     1      -3.151  -0.505  -1.447  1.00  0.00     0.008 A 
ATOM     21  C   UNL     1      -1.215  -1.771  -2.153  1.00  0.00     0.008 A 
ATOM     22  C   UNL     1      -3.222   0.092  -2.709  1.00  0.00     0.046 A 
ATOM     23  C   UNL     1      -1.285  -1.172  -3.412  1.00  0.00     0.046 A 
ATOM     24  C   UNL     1      -2.285  -0.245  -3.679  1.00  0.00     0.115 A 
BRANCH  24  25
ATOM     25  O   UNL     1      -2.306   0.325  -4.917  1.00  0.00    -0.508 OA
ATOM     26  H   UNL     1      -3.071   0.924  -4.969  1.00  0.00     0.293 HD
ENDBRANCH  24  25
ENDBRANCH  18  19
ENDBRANCH  16  18
BRANCH  17  27
ATOM     27  O   UNL     1       0.527  -2.819   0.681  1.00  0.00    -0.391 OA
BRANCH  27  28
ATOM     28  C   UNL     1       1.845  -3.221   1.067  1.00  0.00     0.299 C 
BRANCH  28  29
ATOM     29  C   UNL     1       2.287  -4.404   0.241  1.00  0.00    -0.008 A 
ATOM     30  C   UNL     1       3.622  -4.512  -0.171  1.00  0.00     0.007 A 
ATOM     31  C   UNL     1       1.397  -5.441  -0.082  1.00  0.00     0.007 A 
ATOM     32  C   UNL     1       4.050  -5.617  -0.911  1.00  0.00     0.000 A 
ATOM     33  C   UNL     1       1.826  -6.542  -0.825  1.00  0.00     0.000 A 
ATOM     34  C   UNL     1       3.152  -6.629  -1.240  1.00  0.00     0.000 A 
ENDBRANCH  28  29
ENDBRANCH  27  28
ENDBRANCH  17  27
ENDBRANCH   2  16
TORSDOF 10
