REMARK SMILES NS(=O)(=O)c1nnc(NC(=O)Cc2ccccc2Br)s1
REMARK SMILES IDX 5 1 6 2 7 3 8 4 20 5 2 6 3 7 4 8 1 9 9 12 10 13 11 14 12 16
REMARK SMILES IDX 13 17 14 18 18 19 15 20 17 21 16 22 19 23
REMARK H PARENT 1 10 1 11 9 15
ROOT
ATOM      1  C   UNL     1      -0.645   0.732   3.267  1.00  0.00     0.249 A 
ATOM      2  N   UNL     1      -0.880   1.693   2.397  1.00  0.00    -0.123 NA
ATOM      3  N   UNL     1      -0.403   1.347   1.147  1.00  0.00    -0.119 NA
ATOM      4  C   UNL     1       0.163   0.157   1.141  1.00  0.00     0.213 A 
ATOM      5  S   UNL     1       0.158  -0.634   2.653  1.00  0.00    -0.062 S 
ENDROOT
BRANCH   1   6
ATOM      6  S   UNL     1      -1.102   0.774   4.965  1.00  0.00     0.267 S 
ATOM      7  O   UNL     1       0.135   0.743   5.714  1.00  0.00    -0.205 OA
ATOM      8  O   UNL     1      -2.147  -0.210   5.124  1.00  0.00    -0.205 OA
BRANCH   6   9
ATOM      9  N   UNL     1      -1.790   2.289   5.268  1.00  0.00    -0.223 NA
ATOM     10  H   UNL     1      -1.065   2.969   5.498  1.00  0.00     0.137 HD
ATOM     11  H   UNL     1      -2.400   2.587   4.506  1.00  0.00     0.137 HD
ENDBRANCH   6   9
ENDBRANCH   1   6
BRANCH   4  12
ATOM     12  N   UNL     1       0.697  -0.385  -0.001  1.00  0.00    -0.300 N 
ATOM     13  C   UNL     1       1.313  -1.610  -0.128  1.00  0.00     0.230 C 
ATOM     14  O   UNL     1       1.557  -2.391   0.787  1.00  0.00    -0.274 OA
ATOM     15  H   UNL     1       0.573   0.202  -0.816  1.00  0.00     0.172 HD
BRANCH  13  16
ATOM     16  C   UNL     1       1.791  -1.933  -1.540  1.00  0.00     0.137 C 
BRANCH  16  17
ATOM     17  C   UNL     1       0.918  -1.418  -2.664  1.00  0.00    -0.024 A 
ATOM     18  C   UNL     1       1.402  -0.369  -3.468  1.00  0.00     0.005 A 
ATOM     19  C   UNL     1      -0.364  -1.928  -2.933  1.00  0.00     0.021 A 
ATOM     20  C   UNL     1       0.626   0.158  -4.502  1.00  0.00     0.000 A 
ATOM     21  C   UNL     1      -1.137  -1.398  -3.970  1.00  0.00     0.016 A 
ATOM     22  C   UNL     1      -0.643  -0.355  -4.752  1.00  0.00     0.001 A 
ATOM     23  Br  UNL     1      -1.124  -3.345  -1.922  1.00  0.00    -0.051 Br
ENDBRANCH  16  17
ENDBRANCH  13  16
ENDBRANCH   4  12
TORSDOF 5
