REMARK SMILES NS(=O)(=O)c1nnc(NS(=O)(=O)c2ccc(N/C(S)=N/C(O)C(O)c3ccc([N+](=O)[O-])cc3)cc2)s1
REMARK SMILES IDX 13 1 14 2 15 3 16 4 34 5 35 6 10 7 11 8 12 9 9 10 8 12 5 13
REMARK SMILES IDX 6 14 36 15 7 16 2 17 3 18 4 19 1 20 17 23 18 24 20 25 19 27
REMARK SMILES IDX 21 29 22 30 23 32 24 33 25 35 26 36 33 37 27 38 32 39 28 40
REMARK SMILES IDX 29 41 30 42 31 43
REMARK H PARENT 9 11 1 21 1 22 17 26 19 28 22 31 24 34
ROOT
ATOM      1  C   UNL     1       2.282   0.475   2.431  1.00  0.00     0.088 A 
ATOM      2  C   UNL     1       1.989  -0.295   1.304  1.00  0.00     0.024 A 
ATOM      3  C   UNL     1       1.366  -1.530   1.467  1.00  0.00     0.027 A 
ATOM      4  C   UNL     1       1.077  -2.037   2.746  1.00  0.00     0.040 A 
ATOM      5  C   UNL     1       1.441  -1.276   3.871  1.00  0.00     0.027 A 
ATOM      6  C   UNL     1       2.041  -0.021   3.720  1.00  0.00     0.024 A 
ENDROOT
BRANCH   1   7
ATOM      7  S   UNL     1       2.942   2.110   2.217  1.00  0.00     0.263 S 
ATOM      8  O   UNL     1       3.794   2.382   3.354  1.00  0.00    -0.201 OA
ATOM      9  O   UNL     1       3.435   2.238   0.864  1.00  0.00    -0.201 OA
BRANCH   7  10
ATOM     10  N   UNL     1       1.564   3.045   2.430  1.00  0.00    -0.253 N 
ATOM     11  H   UNL     1       1.730   3.779   3.114  1.00  0.00     0.182 HD
BRANCH  10  12
ATOM     12  C   UNL     1       0.947   3.546   1.222  1.00  0.00     0.220 A 
ATOM     13  C   UNL     1      -0.266   4.026  -0.733  1.00  0.00     0.249 A 
ATOM     14  N   UNL     1       0.004   5.123  -0.052  1.00  0.00    -0.123 NA
ATOM     15  S   UNL     1       0.282   2.577  -0.018  1.00  0.00    -0.062 S 
ATOM     16  N   UNL     1       0.705   4.832   1.107  1.00  0.00    -0.118 NA
BRANCH  13  17
ATOM     17  S   UNL     1      -1.164   3.956  -2.247  1.00  0.00     0.267 S 
ATOM     18  O   UNL     1      -1.567   2.582  -2.470  1.00  0.00    -0.205 OA
ATOM     19  O   UNL     1      -0.390   4.694  -3.221  1.00  0.00    -0.205 OA
BRANCH  17  20
ATOM     20  N   UNL     1      -2.604   4.823  -2.068  1.00  0.00    -0.223 NA
ATOM     21  H   UNL     1      -2.494   5.752  -2.484  1.00  0.00     0.137 HD
ATOM     22  H   UNL     1      -3.377   4.286  -2.469  1.00  0.00     0.137 HD
ENDBRANCH  17  20
ENDBRANCH  13  17
ENDBRANCH  10  12
ENDBRANCH   7  10
ENDBRANCH   1   7
BRANCH   4  23
ATOM     23  N   UNL     1       0.356  -3.227   2.916  1.00  0.00    -0.335 N 
ATOM     24  C   UNL     1      -0.736  -3.627   2.182  1.00  0.00     0.160 C 
ATOM     25  N   UNL     1      -1.282  -2.923   1.260  1.00  0.00    -0.228 NA
ATOM     26  H   UNL     1       0.483  -3.708   3.797  1.00  0.00     0.169 HD
BRANCH  24  27
ATOM     27  S   UNL     1      -1.307  -5.208   2.710  1.00  0.00    -0.106 SA
ATOM     28  H   UNL     1      -1.563  -5.671   1.474  1.00  0.00     0.111 HD
ENDBRANCH  24  27
BRANCH  25  29
ATOM     29  C   UNL     1      -2.482  -3.301   0.530  1.00  0.00     0.267 C 
BRANCH  29  30
ATOM     30  O   UNL     1      -3.248  -2.138   0.210  1.00  0.00    -0.369 OA
ATOM     31  H   UNL     1      -2.629  -1.417   0.438  1.00  0.00     0.213 HD
ENDBRANCH  29  30
BRANCH  29  32
ATOM     32  C   UNL     1      -2.138  -4.070  -0.790  1.00  0.00     0.196 C 
BRANCH  32  33
ATOM     33  O   UNL     1      -1.754  -5.425  -0.501  1.00  0.00    -0.384 OA
ATOM     34  H   UNL     1      -1.450  -5.806  -1.345  1.00  0.00     0.211 HD
ENDBRANCH  32  33
BRANCH  32  35
ATOM     35  C   UNL     1      -1.088  -3.379  -1.658  1.00  0.00    -0.014 A 
ATOM     36  C   UNL     1       0.258  -3.791  -1.662  1.00  0.00     0.013 A 
ATOM     37  C   UNL     1      -1.459  -2.279  -2.452  1.00  0.00     0.013 A 
ATOM     38  C   UNL     1       1.204  -3.134  -2.453  1.00  0.00     0.086 A 
ATOM     39  C   UNL     1      -0.519  -1.606  -3.238  1.00  0.00     0.086 A 
ATOM     40  C   UNL     1       0.811  -2.041  -3.238  1.00  0.00     0.269 A 
BRANCH  40  41
ATOM     41  N   UNL     1       1.802  -1.354  -4.070  1.00  0.00     0.062 N 
ATOM     42  O   UNL     1       2.932  -1.851  -4.139  1.00  0.00    -0.258 OA
ATOM     43  O   UNL     1       1.450  -0.322  -4.654  1.00  0.00    -0.258 OA
ENDBRANCH  40  41
ENDBRANCH  32  35
ENDBRANCH  29  32
ENDBRANCH  25  29
ENDBRANCH   4  23
TORSDOF 13
