REMARK SMILES S=C([S-])N1CCOCC1
REMARK SMILES IDX 1 1 2 2 3 3 4 4 5 5 6 6 7 7 8 8 9 9
REMARK H PARENT
ROOT
ATOM      1  S   UNL     1      -1.502   1.946   2.075  1.00  0.00    -0.411 S 
ATOM      2  C   UNL     1      -1.628   0.628   1.117  1.00  0.00    -0.064 C 
ATOM      3  S   UNL     1      -3.215  -0.222   0.912  1.00  0.00    -0.411 S 
ATOM      4  N   UNL     1      -0.451   0.180   0.455  1.00  0.00    -0.384 N 
ATOM      5  C   UNL     1       0.837   0.847   0.604  1.00  0.00     0.143 C 
ATOM      6  C   UNL     1       1.269   1.241  -0.778  1.00  0.00     0.181 C 
ATOM      7  O   UNL     1       1.045   0.332  -1.759  1.00  0.00    -0.378 OA
ATOM      8  C   UNL     1       0.645  -0.928  -1.403  1.00  0.00     0.181 C 
ATOM      9  C   UNL     1      -0.484  -0.984  -0.412  1.00  0.00     0.143 C 
ENDROOT
TORSDOF 0
