REMARK SMILES NS(=O)(=O)c1nnc(NS(=O)(=O)c2ccc(N/C(S)=N/CCCN3CCN(CCC/N=C(\S)Nc4ccc(S(=O)(=O)Nc5nnc(S(N)(=O)=O)s5)cc4)CC3)cc2)s1
REMARK SMILES IDX 24 1 25 2 26 3 27 4 54 5 55 6 23 7 22 8 21 9 20 10 17 11
REMARK SMILES IDX 18 12 16 14 13 15 14 16 57 17 15 18 56 19 10 20 11 21 12 22
REMARK SMILES IDX 9 23 8 25 5 26 6 27 58 28 7 29 2 30 3 31 4 32 1 33 19 36
REMARK SMILES IDX 28 38 29 39 30 40 31 41 32 42 34 43 33 45 35 47 36 48 53 49
REMARK SMILES IDX 37 50 52 51 38 52 39 53 40 54 41 55 42 56 43 58 44 59 51 60
REMARK SMILES IDX 45 61 46 62 47 63 49 64 50 65 48 66
REMARK H PARENT 17 13 9 24 1 34 1 35 19 37 34 44 33 46 42 57 48 67 48 68
ROOT
ATOM      1  N   UNL     1       1.052   1.566   0.670  1.00  0.00    -0.301 NA
ATOM      2  C   UNL     1       0.006   1.607   1.735  1.00  0.00     0.100 C 
ATOM      3  C   UNL     1      -0.509   3.025   2.073  1.00  0.00     0.100 C 
ATOM      4  N   UNL     1      -1.121   3.736   0.930  1.00  0.00    -0.301 NA
ATOM      5  C   UNL     1      -0.460   3.354  -0.336  1.00  0.00     0.100 C 
ATOM      6  C   UNL     1       0.971   2.805  -0.149  1.00  0.00     0.100 C 
ENDROOT
BRANCH   1   7
ATOM      7  C   UNL     1       0.857   0.375  -0.192  1.00  0.00     0.086 C 
BRANCH   7   8
ATOM      8  C   UNL     1       1.176  -0.942   0.526  1.00  0.00     0.039 C 
BRANCH   8   9
ATOM      9  C   UNL     1       0.594  -2.154  -0.211  1.00  0.00     0.146 C 
BRANCH   9  10
ATOM     10  N   UNL     1       1.212  -2.333  -1.517  1.00  0.00    -0.263 NA
ATOM     11  N   UNL     1       1.124  -2.461  -3.882  1.00  0.00    -0.335 N 
ATOM     12  C   UNL     1       0.560  -2.404  -2.627  1.00  0.00     0.157 C 
ATOM     13  H   UNL     1       0.430  -2.323  -4.607  1.00  0.00     0.169 HD
BRANCH  11  14
ATOM     14  C   UNL     1       2.343  -1.817  -4.183  1.00  0.00     0.040 A 
ATOM     15  C   UNL     1       4.658  -0.294  -4.521  1.00  0.00     0.088 A 
ATOM     16  C   UNL     1       3.499   0.061  -5.215  1.00  0.00     0.024 A 
ATOM     17  C   UNL     1       4.691  -1.429  -3.707  1.00  0.00     0.024 A 
ATOM     18  C   UNL     1       2.350  -0.710  -5.049  1.00  0.00     0.027 A 
ATOM     19  C   UNL     1       3.528  -2.171  -3.531  1.00  0.00     0.027 A 
BRANCH  15  20
ATOM     20  S   UNL     1       6.052   0.801  -4.524  1.00  0.00     0.263 S 
ATOM     21  O   UNL     1       7.136   0.225  -3.754  1.00  0.00    -0.201 OA
ATOM     22  O   UNL     1       6.261   1.224  -5.894  1.00  0.00    -0.201 OA
BRANCH  20  23
ATOM     23  N   UNL     1       5.481   2.148  -3.708  1.00  0.00    -0.253 N 
ATOM     24  H   UNL     1       5.857   3.023  -4.045  1.00  0.00     0.182 HD
BRANCH  23  25
ATOM     25  C   UNL     1       5.253   1.979  -2.292  1.00  0.00     0.220 A 
ATOM     26  C   UNL     1       4.843   2.180   0.013  1.00  0.00     0.249 A 
ATOM     27  N   UNL     1       4.449   1.009  -0.444  1.00  0.00    -0.123 NA
ATOM     28  S   UNL     1       5.549   3.216  -1.144  1.00  0.00    -0.062 S 
ATOM     29  N   UNL     1       4.678   0.907  -1.796  1.00  0.00    -0.118 NA
BRANCH  26  30
ATOM     30  S   UNL     1       4.653   2.713   1.678  1.00  0.00     0.267 S 
ATOM     31  O   UNL     1       4.111   4.049   1.614  1.00  0.00    -0.205 OA
ATOM     32  O   UNL     1       5.915   2.417   2.322  1.00  0.00    -0.205 OA
BRANCH  30  33
ATOM     33  N   UNL     1       3.487   1.716   2.393  1.00  0.00    -0.223 NA
ATOM     34  H   UNL     1       3.857   0.770   2.519  1.00  0.00     0.137 HD
ATOM     35  H   UNL     1       2.629   1.695   1.812  1.00  0.00     0.137 HD
ENDBRANCH  30  33
ENDBRANCH  26  30
ENDBRANCH  23  25
ENDBRANCH  20  23
ENDBRANCH  15  20
ENDBRANCH  11  14
BRANCH  12  36
ATOM     36  S   UNL     1      -1.195  -2.455  -2.735  1.00  0.00    -0.106 SA
ATOM     37  H   UNL     1      -1.340  -3.622  -2.088  1.00  0.00     0.111 HD
ENDBRANCH  12  36
ENDBRANCH   9  10
ENDBRANCH   8   9
ENDBRANCH   7   8
ENDBRANCH   1   7
BRANCH   4  38
ATOM     38  C   UNL     1      -2.575   3.513   0.825  1.00  0.00     0.086 C 
BRANCH  38  39
ATOM     39  C   UNL     1      -3.367   4.285   1.891  1.00  0.00     0.039 C 
BRANCH  39  40
ATOM     40  C   UNL     1      -4.878   4.046   1.765  1.00  0.00     0.146 C 
BRANCH  40  41
ATOM     41  N   UNL     1      -5.132   2.647   2.055  1.00  0.00    -0.263 NA
ATOM     42  C   UNL     1      -6.275   2.156   2.363  1.00  0.00     0.157 C 
ATOM     43  N   UNL     1      -6.528   0.851   2.689  1.00  0.00    -0.335 N 
ATOM     44  H   UNL     1      -7.493   0.659   2.933  1.00  0.00     0.169 HD
BRANCH  42  45
ATOM     45  S   UNL     1      -7.768   3.096   2.409  1.00  0.00    -0.106 SA
ATOM     46  H   UNL     1      -7.400   4.054   1.545  1.00  0.00     0.111 HD
ENDBRANCH  42  45
BRANCH  43  47
ATOM     47  C   UNL     1      -5.649  -0.242   2.795  1.00  0.00     0.040 A 
ATOM     48  C   UNL     1      -4.260  -0.146   2.632  1.00  0.00     0.027 A 
ATOM     49  C   UNL     1      -6.195  -1.520   3.033  1.00  0.00     0.027 A 
ATOM     50  C   UNL     1      -3.441  -1.275   2.687  1.00  0.00     0.024 A 
ATOM     51  C   UNL     1      -5.386  -2.661   3.093  1.00  0.00     0.024 A 
ATOM     52  C   UNL     1      -4.011  -2.529   2.903  1.00  0.00     0.088 A 
BRANCH  52  53
ATOM     53  S   UNL     1      -2.954  -3.959   2.890  1.00  0.00     0.263 S 
ATOM     54  O   UNL     1      -3.639  -5.045   3.556  1.00  0.00    -0.201 OA
ATOM     55  O   UNL     1      -1.636  -3.508   3.286  1.00  0.00    -0.201 OA
BRANCH  53  56
ATOM     56  N   UNL     1      -2.972  -4.284   1.257  1.00  0.00    -0.253 N 
ATOM     57  H   UNL     1      -3.866  -4.589   0.876  1.00  0.00     0.182 HD
BRANCH  56  58
ATOM     58  C   UNL     1      -1.844  -4.971   0.656  1.00  0.00     0.220 A 
ATOM     59  N   UNL     1      -1.859  -5.091  -0.661  1.00  0.00    -0.118 NA
ATOM     60  S   UNL     1      -0.449  -5.631   1.394  1.00  0.00    -0.062 S 
ATOM     61  N   UNL     1      -0.667  -5.567  -1.164  1.00  0.00    -0.123 NA
ATOM     62  C   UNL     1       0.173  -5.855  -0.188  1.00  0.00     0.249 A 
BRANCH  62  63
ATOM     63  S   UNL     1       1.863  -6.286  -0.424  1.00  0.00     0.267 S 
ATOM     64  O   UNL     1       2.545  -6.087   0.838  1.00  0.00    -0.205 OA
ATOM     65  O   UNL     1       1.830  -7.565  -1.105  1.00  0.00    -0.205 OA
BRANCH  63  66
ATOM     66  N   UNL     1       2.502  -5.172  -1.525  1.00  0.00    -0.223 NA
ATOM     67  H   UNL     1       2.186  -5.372  -2.477  1.00  0.00     0.137 HD
ATOM     68  H   UNL     1       2.347  -4.192  -1.248  1.00  0.00     0.137 HD
ENDBRANCH  63  66
ENDBRANCH  62  63
ENDBRANCH  56  58
ENDBRANCH  53  56
ENDBRANCH  52  53
ENDBRANCH  43  47
ENDBRANCH  40  41
ENDBRANCH  39  40
ENDBRANCH  38  39
ENDBRANCH   4  38
TORSDOF 22
