REMARK SMILES COc1ccc(C2=N/C(=C/c3ccc(O)cc3)C(=O)N2c2ccc(S(N)(=O)=O)cc2)cc1
REMARK SMILES IDX 7 1 8 2 9 3 10 4 18 5 19 6 20 7 6 8 3 9 4 10 32 11 5 12
REMARK SMILES IDX 31 13 2 14 1 15 21 16 22 17 30 18 23 19 29 20 24 21 25 22
REMARK SMILES IDX 27 23 28 24 26 25 11 28 12 29 17 30 13 31 16 32 14 33 15 34
REMARK H PARENT 26 26 26 27 15 35
ROOT
ATOM      1  C   UNL     1      -0.136   0.305   0.544  1.00  0.00     0.148 C 
ATOM      2  N   UNL     1      -0.135   1.564   0.216  1.00  0.00    -0.224 NA
ATOM      3  C   UNL     1       0.055   1.574  -1.147  1.00  0.00     0.132 C 
ATOM      4  C   UNL     1       0.145   2.711  -1.850  1.00  0.00     0.042 C 
ATOM      5  C   UNL     1       0.164   0.165  -1.645  1.00  0.00     0.282 C 
ATOM      6  O   UNL     1       0.318  -0.191  -2.799  1.00  0.00    -0.266 OA
ATOM      7  N   UNL     1      -0.009  -0.584  -0.497  1.00  0.00    -0.259 N 
ENDROOT
BRANCH   1   8
ATOM      8  C   UNL     1      -0.193  -0.090   1.963  1.00  0.00     0.018 A 
ATOM      9  C   UNL     1      -0.304  -0.758   4.680  1.00  0.00     0.118 A 
ATOM     10  C   UNL     1       0.694  -1.292   3.858  1.00  0.00     0.047 A 
ATOM     11  C   UNL     1      -1.236   0.131   4.139  1.00  0.00     0.047 A 
ATOM     12  C   UNL     1       0.761  -0.955   2.505  1.00  0.00     0.016 A 
ATOM     13  C   UNL     1      -1.175   0.473   2.783  1.00  0.00     0.016 A 
BRANCH   9  14
ATOM     14  O   UNL     1      -0.253  -1.176   5.980  1.00  0.00    -0.497 OA
ATOM     15  C   UNL     1      -1.221  -0.633   6.870  1.00  0.00     0.278 C 
ENDBRANCH   9  14
ENDBRANCH   1   8
BRANCH   7  16
ATOM     16  C   UNL     1      -0.159  -1.999  -0.506  1.00  0.00     0.051 A 
ATOM     17  C   UNL     1      -1.004  -2.657   0.403  1.00  0.00     0.028 A 
ATOM     18  C   UNL     1       0.507  -2.782  -1.464  1.00  0.00     0.028 A 
ATOM     19  C   UNL     1      -1.153  -4.049   0.383  1.00  0.00     0.024 A 
ATOM     20  C   UNL     1       0.365  -4.174  -1.494  1.00  0.00     0.024 A 
ATOM     21  C   UNL     1      -0.455  -4.802  -0.559  1.00  0.00     0.082 A 
BRANCH  21  22
ATOM     22  S   UNL     1      -0.649  -6.564  -0.610  1.00  0.00     0.238 S 
ATOM     23  O   UNL     1      -0.483  -7.003  -1.974  1.00  0.00    -0.207 OA
ATOM     24  O   UNL     1      -1.798  -6.921   0.190  1.00  0.00    -0.207 OA
BRANCH  22  25
ATOM     25  N   UNL     1       0.691  -7.076   0.271  1.00  0.00    -0.225 NA
ATOM     26  H   UNL     1       0.370  -7.548   1.118  1.00  0.00     0.137 HD
ATOM     27  H   UNL     1       1.356  -6.332   0.472  1.00  0.00     0.137 HD
ENDBRANCH  22  25
ENDBRANCH  21  22
ENDBRANCH   7  16
BRANCH   4  28
ATOM     28  C   UNL     1       0.358   2.861  -3.291  1.00  0.00    -0.023 A 
ATOM     29  C   UNL     1       1.462   3.596  -3.742  1.00  0.00     0.012 A 
ATOM     30  C   UNL     1      -0.546   2.344  -4.228  1.00  0.00     0.012 A 
ATOM     31  C   UNL     1       1.672   3.789  -5.109  1.00  0.00     0.047 A 
ATOM     32  C   UNL     1      -0.335   2.533  -5.597  1.00  0.00     0.047 A 
ATOM     33  C   UNL     1       0.775   3.253  -6.025  1.00  0.00     0.115 A 
BRANCH  33  34
ATOM     34  O   UNL     1       1.019   3.460  -7.350  1.00  0.00    -0.508 OA
ATOM     35  H   UNL     1       0.342   2.991  -7.863  1.00  0.00     0.293 HD
ENDBRANCH  33  34
ENDBRANCH   4  28
TORSDOF 7
