REMARK SMILES NS(=O)(=O)c1ccc(-n2nc(-c3ccc(Oc4ccccc4)cc3)ccc2=O)cc1
REMARK SMILES IDX 9 1 10 2 11 3 25 4 26 5 27 6 28 7 8 8 5 9 6 10 30 11 7 12
REMARK SMILES IDX 29 13 2 14 3 15 4 16 1 17 12 20 13 21 24 22 14 23 23 24
REMARK SMILES IDX 15 25 16 26 17 27 18 28 22 29 19 30 21 31 20 32
REMARK H PARENT 1 18 1 19
ROOT
ATOM      1  N   UNL     1       1.784   1.163   1.135  1.00  0.00    -0.197 N 
ATOM      2  N   UNL     1       0.875   0.441   0.377  1.00  0.00    -0.165 NA
ATOM      3  C   UNL     1       1.240  -0.030  -0.773  1.00  0.00     0.092 C 
ATOM      4  C   UNL     1       2.573   0.176  -1.366  1.00  0.00     0.036 C 
ATOM      5  C   UNL     1       3.441   0.874  -0.637  1.00  0.00     0.076 C 
ATOM      6  C   UNL     1       3.090   1.417   0.696  1.00  0.00     0.271 C 
ATOM      7  O   UNL     1       3.978   2.039   1.275  1.00  0.00    -0.267 OA
ENDROOT
BRANCH   1   8
ATOM      8  C   UNL     1       1.249   1.608   2.399  1.00  0.00     0.069 A 
ATOM      9  C   UNL     1       0.119   2.459   4.852  1.00  0.00     0.082 A 
ATOM     10  C   UNL     1       1.438   2.782   4.543  1.00  0.00     0.024 A 
ATOM     11  C   UNL     1      -0.643   1.701   3.967  1.00  0.00     0.024 A 
ATOM     12  C   UNL     1       1.991   2.361   3.325  1.00  0.00     0.030 A 
ATOM     13  C   UNL     1      -0.079   1.287   2.755  1.00  0.00     0.030 A 
BRANCH   9  14
ATOM     14  S   UNL     1      -0.592   2.987   6.386  1.00  0.00     0.238 S 
ATOM     15  O   UNL     1      -1.593   2.026   6.782  1.00  0.00    -0.207 OA
ATOM     16  O   UNL     1       0.472   3.412   7.267  1.00  0.00    -0.207 OA
BRANCH  14  17
ATOM     17  N   UNL     1      -1.382   4.401   5.920  1.00  0.00    -0.225 NA
ATOM     18  H   UNL     1      -1.406   4.531   4.909  1.00  0.00     0.137 HD
ATOM     19  H   UNL     1      -0.944   5.192   6.395  1.00  0.00     0.137 HD
ENDBRANCH  14  17
ENDBRANCH   9  14
ENDBRANCH   1   8
BRANCH   3  20
ATOM     20  C   UNL     1       0.257  -0.810  -1.576  1.00  0.00     0.002 A 
ATOM     21  C   UNL     1      -1.092  -0.433  -1.534  1.00  0.00     0.014 A 
ATOM     22  C   UNL     1       0.644  -1.914  -2.348  1.00  0.00     0.014 A 
ATOM     23  C   UNL     1      -2.043  -1.143  -2.270  1.00  0.00     0.048 A 
ATOM     24  C   UNL     1      -0.310  -2.623  -3.084  1.00  0.00     0.048 A 
ATOM     25  C   UNL     1      -1.654  -2.245  -3.031  1.00  0.00     0.127 A 
BRANCH  25  26
ATOM     26  O   UNL     1      -2.637  -2.877  -3.758  1.00  0.00    -0.457 OA
BRANCH  26  27
ATOM     27  C   UNL     1      -2.642  -4.253  -3.752  1.00  0.00     0.127 A 
ATOM     28  C   UNL     1      -2.779  -4.894  -4.984  1.00  0.00     0.047 A 
ATOM     29  C   UNL     1      -2.587  -4.999  -2.572  1.00  0.00     0.047 A 
ATOM     30  C   UNL     1      -2.822  -6.287  -5.041  1.00  0.00     0.004 A 
ATOM     31  C   UNL     1      -2.630  -6.393  -2.632  1.00  0.00     0.004 A 
ATOM     32  C   UNL     1      -2.743  -7.036  -3.866  1.00  0.00     0.000 A 
ENDBRANCH  26  27
ENDBRANCH  25  26
ENDBRANCH   3  20
TORSDOF 6
