REMARK SMILES NS(=O)(=O)c1ccc(Nc2csc(Nc3ccc(S(N)(=O)=O)cc3)n2)cc1
REMARK SMILES IDX 10 1 11 2 12 3 13 4 25 5 9 6 8 8 5 9 6 10 27 11 7 12 26 13
REMARK SMILES IDX 2 14 3 15 4 16 1 17 14 20 15 22 16 23 24 24 17 25 23 26
REMARK SMILES IDX 18 27 19 28 21 29 22 30 20 31
REMARK H PARENT 9 7 1 18 1 19 14 21 20 32 20 33
ROOT
ATOM      1  C   UNL     1       2.957   0.736  -0.301  1.00  0.00     0.143 A 
ATOM      2  C   UNL     1       3.996   1.062  -1.143  1.00  0.00     0.115 A 
ATOM      3  S   UNL     1       3.518   0.829  -2.771  1.00  0.00    -0.103 S 
ATOM      4  C   UNL     1       1.971   0.268  -2.234  1.00  0.00     0.189 A 
ATOM      5  N   UNL     1       1.825   0.278  -0.929  1.00  0.00    -0.203 NA
ENDROOT
BRANCH   1   6
ATOM      6  N   UNL     1       3.049   0.812   1.048  1.00  0.00    -0.339 N 
ATOM      7  H   UNL     1       3.954   1.035   1.448  1.00  0.00     0.168 HD
BRANCH   6   8
ATOM      8  C   UNL     1       2.051   0.735   2.046  1.00  0.00     0.040 A 
ATOM      9  C   UNL     1       0.145   0.462   4.099  1.00  0.00     0.082 A 
ATOM     10  C   UNL     1      -0.272   0.704   2.791  1.00  0.00     0.024 A 
ATOM     11  C   UNL     1       1.503   0.362   4.400  1.00  0.00     0.024 A 
ATOM     12  C   UNL     1       0.680   0.828   1.774  1.00  0.00     0.027 A 
ATOM     13  C   UNL     1       2.445   0.492   3.374  1.00  0.00     0.027 A 
BRANCH   9  14
ATOM     14  S   UNL     1      -1.062   0.325   5.382  1.00  0.00     0.238 S 
ATOM     15  O   UNL     1      -2.113   1.286   5.144  1.00  0.00    -0.207 OA
ATOM     16  O   UNL     1      -0.394   0.205   6.657  1.00  0.00    -0.207 OA
BRANCH  14  17
ATOM     17  N   UNL     1      -1.729  -1.186   5.078  1.00  0.00    -0.225 NA
ATOM     18  H   UNL     1      -1.551  -1.808   5.867  1.00  0.00     0.137 HD
ATOM     19  H   UNL     1      -2.717  -1.089   4.842  1.00  0.00     0.137 HD
ENDBRANCH  14  17
ENDBRANCH   9  14
ENDBRANCH   6   8
ENDBRANCH   1   6
BRANCH   4  20
ATOM     20  N   UNL     1       1.059  -0.108  -3.162  1.00  0.00    -0.331 N 
ATOM     21  H   UNL     1       1.330   0.009  -4.130  1.00  0.00     0.169 HD
BRANCH  20  22
ATOM     22  C   UNL     1      -0.200  -0.710  -2.976  1.00  0.00     0.040 A 
ATOM     23  C   UNL     1      -1.052  -0.830  -4.090  1.00  0.00     0.027 A 
ATOM     24  C   UNL     1      -0.679  -1.158  -1.738  1.00  0.00     0.027 A 
ATOM     25  C   UNL     1      -2.328  -1.394  -3.977  1.00  0.00     0.024 A 
ATOM     26  C   UNL     1      -1.953  -1.723  -1.610  1.00  0.00     0.024 A 
ATOM     27  C   UNL     1      -2.766  -1.848  -2.735  1.00  0.00     0.082 A 
BRANCH  27  28
ATOM     28  S   UNL     1      -4.377  -2.566  -2.564  1.00  0.00     0.238 S 
ATOM     29  O   UNL     1      -4.895  -2.224  -1.262  1.00  0.00    -0.207 OA
ATOM     30  O   UNL     1      -5.116  -2.335  -3.784  1.00  0.00    -0.207 OA
BRANCH  28  31
ATOM     31  N   UNL     1      -4.012  -4.211  -2.566  1.00  0.00    -0.225 NA
ATOM     32  H   UNL     1      -3.013  -4.402  -2.497  1.00  0.00     0.137 HD
ATOM     33  H   UNL     1      -4.428  -4.639  -3.395  1.00  0.00     0.137 HD
ENDBRANCH  28  31
ENDBRANCH  27  28
ENDBRANCH  20  22
ENDBRANCH   4  20
TORSDOF 8
