REMARK SMILES NS(=O)(=O)c1ccc(-c2cc3ccccc3o2)cc1
REMARK SMILES IDX 2 1 3 2 4 3 1 4 5 7 6 8 19 9 7 10 18 11 8 12 9 13 10 14
REMARK SMILES IDX 17 15 11 16 16 17 12 18 15 19 13 20 14 21
REMARK H PARENT 1 5 1 6
ROOT
ATOM      1  S   UNL     1      -3.559  -0.046   3.512  1.00  0.00     0.238 S 
ATOM      2  O   UNL     1      -3.445   1.260   4.114  1.00  0.00    -0.207 OA
ATOM      3  O   UNL     1      -3.576  -1.264   4.289  1.00  0.00    -0.207 OA
ENDROOT
BRANCH   1   4
ATOM      4  N   UNL     1      -4.972  -0.078   2.595  1.00  0.00    -0.225 NA
ATOM      5  H   UNL     1      -4.804  -0.011   1.592  1.00  0.00     0.137 HD
ATOM      6  H   UNL     1      -5.505  -0.914   2.839  1.00  0.00     0.137 HD
ENDBRANCH   1   4
BRANCH   1   7
ATOM      7  C   UNL     1      -2.318  -0.195   2.255  1.00  0.00     0.082 A 
ATOM      8  C   UNL     1      -1.915   0.942   1.554  1.00  0.00     0.022 A 
ATOM      9  C   UNL     1      -1.738  -1.436   1.989  1.00  0.00     0.022 A 
ATOM     10  C   UNL     1      -0.936   0.828   0.563  1.00  0.00     0.013 A 
ATOM     11  C   UNL     1      -0.758  -1.539   0.996  1.00  0.00     0.013 A 
ATOM     12  C   UNL     1      -0.345  -0.412   0.266  1.00  0.00     0.017 A 
BRANCH  12  13
ATOM     13  C   UNL     1       0.679  -0.532  -0.771  1.00  0.00     0.135 A 
ATOM     14  C   UNL     1       1.492  -1.560  -1.214  1.00  0.00     0.059 A 
ATOM     15  O   UNL     1       0.931   0.595  -1.505  1.00  0.00    -0.456 OA
ATOM     16  C   UNL     1       2.284  -1.039  -2.271  1.00  0.00     0.021 A 
ATOM     17  C   UNL     1       1.900   0.288  -2.409  1.00  0.00     0.134 A 
ATOM     18  C   UNL     1       3.281  -1.543  -3.125  1.00  0.00     0.012 A 
ATOM     19  C   UNL     1       2.440   1.165  -3.346  1.00  0.00     0.048 A 
ATOM     20  C   UNL     1       3.846  -0.683  -4.079  1.00  0.00     0.001 A 
ATOM     21  C   UNL     1       3.431   0.647  -4.186  1.00  0.00     0.004 A 
ENDBRANCH  12  13
ENDBRANCH   1   7
TORSDOF 3
