REMARK SMILES NS(=O)(=O)c1ccc(-c2ccc(C(=O)c3ccccc3C(=O)O)cc2)cc1
REMARK SMILES IDX 9 1 10 2 11 3 12 4 24 5 25 6 8 7 5 8 6 9 27 10 7 11 26 12
REMARK SMILES IDX 2 13 3 14 4 15 1 16 13 19 14 20 15 21 16 22 20 23 17 24
REMARK SMILES IDX 19 25 18 26 21 27 22 28 23 29
REMARK H PARENT 1 17 1 18 23 30
ROOT
ATOM      1  C   UNL     1       0.384  -0.010   1.008  1.00  0.00    -0.018 A 
ATOM      2  C   UNL     1       0.946   1.035   0.257  1.00  0.00     0.009 A 
ATOM      3  C   UNL     1       1.157   0.902  -1.119  1.00  0.00     0.013 A 
ATOM      4  C   UNL     1       0.800  -0.279  -1.776  1.00  0.00     0.023 A 
ATOM      5  C   UNL     1       0.256  -1.337  -1.041  1.00  0.00     0.013 A 
ATOM      6  C   UNL     1       0.047  -1.197   0.336  1.00  0.00     0.009 A 
ENDROOT
BRANCH   1   7
ATOM      7  C   UNL     1       0.160   0.132   2.456  1.00  0.00    -0.018 A 
ATOM      8  C   UNL     1      -0.273   0.401   5.221  1.00  0.00     0.082 A 
ATOM      9  C   UNL     1      -0.781   1.362   4.346  1.00  0.00     0.022 A 
ATOM     10  C   UNL     1       0.462  -0.683   4.739  1.00  0.00     0.022 A 
ATOM     11  C   UNL     1      -0.566   1.222   2.972  1.00  0.00     0.010 A 
ATOM     12  C   UNL     1       0.671  -0.814   3.363  1.00  0.00     0.010 A 
BRANCH   8  13
ATOM     13  S   UNL     1      -0.531   0.570   6.967  1.00  0.00     0.238 S 
ATOM     14  O   UNL     1      -0.940   1.928   7.242  1.00  0.00    -0.207 OA
ATOM     15  O   UNL     1       0.564  -0.069   7.656  1.00  0.00    -0.207 OA
BRANCH  13  16
ATOM     16  N   UNL     1      -1.909  -0.373   7.194  1.00  0.00    -0.225 NA
ATOM     17  H   UNL     1      -2.167  -0.915   6.371  1.00  0.00     0.137 HD
ATOM     18  H   UNL     1      -2.671   0.230   7.510  1.00  0.00     0.137 HD
ENDBRANCH  13  16
ENDBRANCH   8  13
ENDBRANCH   1   7
BRANCH   4  19
ATOM     19  C   UNL     1       1.043  -0.373  -3.242  1.00  0.00     0.193 C 
ATOM     20  O   UNL     1       1.915   0.316  -3.765  1.00  0.00    -0.289 OA
BRANCH  19  21
ATOM     21  C   UNL     1       0.300  -1.331  -4.089  1.00  0.00     0.037 A 
ATOM     22  C   UNL     1       1.074  -2.215  -4.858  1.00  0.00     0.013 A 
ATOM     23  C   UNL     1      -1.098  -1.408  -4.141  1.00  0.00     0.071 A 
ATOM     24  C   UNL     1       0.458  -3.197  -5.636  1.00  0.00     0.001 A 
ATOM     25  C   UNL     1      -1.708  -2.411  -4.911  1.00  0.00     0.016 A 
ATOM     26  C   UNL     1      -0.931  -3.302  -5.654  1.00  0.00     0.001 A 
BRANCH  23  27
ATOM     27  C   UNL     1      -2.000  -0.479  -3.435  1.00  0.00     0.336 C 
ATOM     28  O   UNL     1      -3.062  -0.779  -2.924  1.00  0.00    -0.246 OA
BRANCH  27  29
ATOM     29  O   UNL     1      -1.560   0.787  -3.476  1.00  0.00    -0.478 OA
ATOM     30  H   UNL     1      -2.251   1.313  -3.022  1.00  0.00     0.297 HD
ENDBRANCH  27  29
ENDBRANCH  23  27
ENDBRANCH  19  21
ENDBRANCH   4  19
TORSDOF 7
