REMARK SMILES NS(=O)(=O)c1ccc(-c2noc(-c3ccncc3)n2)cc1
REMARK SMILES IDX 5 1 6 2 7 3 8 4 20 5 21 6 2 7 3 8 4 9 1 10 9 13 10 14 19 15
REMARK SMILES IDX 11 16 12 17 13 18 14 19 18 20 15 21 17 22 16 23
REMARK H PARENT 1 11 1 12
ROOT
ATOM      1  C   UNL     1      -0.984  -1.452   3.154  1.00  0.00     0.082 A 
ATOM      2  C   UNL     1       0.160  -0.656   3.245  1.00  0.00     0.022 A 
ATOM      3  C   UNL     1       0.747  -0.155   2.078  1.00  0.00     0.013 A 
ATOM      4  C   UNL     1       0.202  -0.450   0.817  1.00  0.00     0.023 A 
ATOM      5  C   UNL     1      -0.942  -1.262   0.747  1.00  0.00     0.013 A 
ATOM      6  C   UNL     1      -1.534  -1.767   1.909  1.00  0.00     0.022 A 
ENDROOT
BRANCH   1   7
ATOM      7  S   UNL     1      -1.710  -2.113   4.626  1.00  0.00     0.238 S 
ATOM      8  O   UNL     1      -0.718  -2.138   5.675  1.00  0.00    -0.207 OA
ATOM      9  O   UNL     1      -2.507  -3.268   4.285  1.00  0.00    -0.207 OA
BRANCH   7  10
ATOM     10  N   UNL     1      -2.799  -0.908   5.046  1.00  0.00    -0.225 NA
ATOM     11  H   UNL     1      -3.751  -1.274   5.012  1.00  0.00     0.137 HD
ATOM     12  H   UNL     1      -2.544  -0.510   5.950  1.00  0.00     0.137 HD
ENDBRANCH   7  10
ENDBRANCH   1   7
BRANCH   4  13
ATOM     13  C   UNL     1       0.809   0.070  -0.405  1.00  0.00     0.202 A 
ATOM     14  N   UNL     1       1.898   0.856  -0.427  1.00  0.00    -0.057 NA
ATOM     15  N   UNL     1       0.298  -0.211  -1.655  1.00  0.00    -0.187 NA
ATOM     16  O   UNL     1       2.105   1.096  -1.783  1.00  0.00    -0.334 OA
ATOM     17  C   UNL     1       1.119   0.433  -2.455  1.00  0.00     0.258 A 
BRANCH  17  18
ATOM     18  C   UNL     1       1.118   0.531  -3.908  1.00  0.00     0.043 A 
ATOM     19  C   UNL     1       2.078   1.272  -4.604  1.00  0.00     0.034 A 
ATOM     20  C   UNL     1       0.131  -0.133  -4.642  1.00  0.00     0.034 A 
ATOM     21  C   UNL     1       2.008   1.315  -5.987  1.00  0.00     0.112 A 
ATOM     22  C   UNL     1       0.144  -0.029  -6.023  1.00  0.00     0.112 A 
ATOM     23  N   UNL     1       1.061   0.681  -6.709  1.00  0.00    -0.265 NA
ENDBRANCH  17  18
ENDBRANCH   4  13
TORSDOF 4
