REMARK SMILES NS(=O)(=O)c1cc(C(=O)Nn2cnc3ccccc32)c(SC2CCCCC2)cc1Cl
REMARK SMILES IDX 5 1 6 2 7 3 20 4 28 5 29 6 30 7 2 8 3 9 4 10 1 11 8 14 9 15
REMARK SMILES IDX 10 16 11 18 12 19 19 20 13 21 18 22 14 23 17 24 15 25 16 26
REMARK SMILES IDX 21 27 22 28 23 29 27 30 24 31 26 32 25 33
REMARK H PARENT 1 12 1 13 10 17
ROOT
ATOM      1  C   UNL     1      -1.549   0.569   3.185  1.00  0.00     0.101 A 
ATOM      2  C   UNL     1      -1.786  -0.343   2.153  1.00  0.00     0.038 A 
ATOM      3  C   UNL     1      -0.711  -0.994   1.533  1.00  0.00     0.056 A 
ATOM      4  C   UNL     1       0.612  -0.757   1.931  1.00  0.00     0.022 A 
ATOM      5  C   UNL     1       0.822   0.132   2.993  1.00  0.00     0.037 A 
ATOM      6  C   UNL     1      -0.246   0.805   3.611  1.00  0.00     0.062 A 
ATOM      7  Cl  UNL     1       0.152   1.908   4.876  1.00  0.00    -0.083 Cl
ENDROOT
BRANCH   1   8
ATOM      8  S   UNL     1      -2.888   1.428   3.941  1.00  0.00     0.239 S 
ATOM      9  O   UNL     1      -2.843   2.801   3.504  1.00  0.00    -0.207 OA
ATOM     10  O   UNL     1      -2.985   1.031   5.323  1.00  0.00    -0.207 OA
BRANCH   8  11
ATOM     11  N   UNL     1      -4.266   0.792   3.217  1.00  0.00    -0.225 NA
ATOM     12  H   UNL     1      -4.824   0.322   3.928  1.00  0.00     0.137 HD
ATOM     13  H   UNL     1      -4.772   1.543   2.749  1.00  0.00     0.137 HD
ENDBRANCH   8  11
ENDBRANCH   1   8
BRANCH   3  14
ATOM     14  C   UNL     1      -1.053  -1.936   0.449  1.00  0.00     0.271 C 
ATOM     15  O   UNL     1      -1.527  -3.028   0.725  1.00  0.00    -0.267 OA
ATOM     16  N   UNL     1      -0.850  -1.433  -0.805  1.00  0.00    -0.258 N 
ATOM     17  H   UNL     1      -0.517  -0.494  -0.997  1.00  0.00     0.192 HD
BRANCH  16  18
ATOM     18  N   UNL     1      -1.191  -2.167  -1.880  1.00  0.00    -0.240 N 
ATOM     19  C   UNL     1      -0.333  -2.947  -2.585  1.00  0.00     0.222 A 
ATOM     20  C   UNL     1      -2.362  -2.025  -2.571  1.00  0.00     0.090 A 
ATOM     21  N   UNL     1      -0.881  -3.351  -3.713  1.00  0.00    -0.235 NA
ATOM     22  C   UNL     1      -3.558  -1.336  -2.326  1.00  0.00     0.030 A 
ATOM     23  C   UNL     1      -2.141  -2.793  -3.716  1.00  0.00     0.090 A 
ATOM     24  C   UNL     1      -4.556  -1.438  -3.301  1.00  0.00     0.002 A 
ATOM     25  C   UNL     1      -3.155  -2.886  -4.679  1.00  0.00     0.030 A 
ATOM     26  C   UNL     1      -4.358  -2.197  -4.460  1.00  0.00     0.002 A 
ENDBRANCH  16  18
ENDBRANCH   3  14
BRANCH   4  27
ATOM     27  S   UNL     1       1.985  -1.629   1.178  1.00  0.00    -0.122 SA
BRANCH  27  28
ATOM     28  C   UNL     1       3.239  -0.297   0.891  1.00  0.00     0.051 C 
ATOM     29  C   UNL     1       4.580  -0.938   0.474  1.00  0.00     0.015 C 
ATOM     30  C   UNL     1       2.768   0.721  -0.149  1.00  0.00     0.015 C 
ATOM     31  C   UNL     1       4.873  -0.890  -1.027  1.00  0.00     0.001 C 
ATOM     32  C   UNL     1       2.645   0.164  -1.567  1.00  0.00     0.001 C 
ATOM     33  C   UNL     1       3.612  -0.979  -1.870  1.00  0.00     0.000 C 
ENDBRANCH  27  28
ENDBRANCH   4  27
TORSDOF 6
