REMARK SMILES Cc1c2cc(c(C)[n+]1-c1ccc(S(=O)(=O)Nc3nnc(S(N)(=O)=O)s3)cc1)CCCCCCCCC2
REMARK SMILES IDX 16 1 13 3 14 4 15 5 12 6 9 7 10 8 27 9 11 10 26 11 8 12 2 13
REMARK SMILES IDX 3 14 4 15 36 16 6 17 5 18 35 19 28 20 34 21 29 22 33 23
REMARK SMILES IDX 30 24 32 25 31 26 1 27 7 28 17 29 18 30 25 31 19 32 20 33
REMARK SMILES IDX 21 34 23 35 24 36 22 37
REMARK H PARENT 16 2 22 38 22 39
ROOT
ATOM      1  N   UNL     1       4.572  -4.458  -2.447  1.00  0.00    -0.253 N 
ATOM      2  H   UNL     1       4.998  -3.889  -3.172  1.00  0.00     0.182 HD
ENDROOT
BRANCH   1   3
ATOM      3  S   UNL     1       4.941  -3.860  -0.919  1.00  0.00     0.263 S 
ATOM      4  O   UNL     1       6.236  -3.227  -1.017  1.00  0.00    -0.201 OA
ATOM      5  O   UNL     1       4.656  -4.870   0.074  1.00  0.00    -0.201 OA
BRANCH   3   6
ATOM      6  C   UNL     1       3.765  -2.531  -0.672  1.00  0.00     0.088 A 
ATOM      7  C   UNL     1       1.993  -0.458  -0.270  1.00  0.00     0.211 A 
ATOM      8  C   UNL     1       3.091  -0.248  -1.109  1.00  0.00     0.081 A 
ATOM      9  C   UNL     1       1.764  -1.672   0.384  1.00  0.00     0.081 A 
ATOM     10  C   UNL     1       3.988  -1.299  -1.308  1.00  0.00     0.029 A 
ATOM     11  C   UNL     1       2.667  -2.717   0.185  1.00  0.00     0.029 A 
BRANCH   7  12
ATOM     12  N   UNL     1       1.063   0.618  -0.083  1.00  0.00    -0.162 N 
ATOM     13  C   UNL     1      -0.006   0.725  -0.943  1.00  0.00     0.187 A 
ATOM     14  C   UNL     1      -0.938   1.768  -0.754  1.00  0.00     0.020 A 
ATOM     15  C   UNL     1      -0.664   2.742   0.200  1.00  0.00     0.020 A 
ATOM     16  C   UNL     1      -2.261   1.853  -1.495  1.00  0.00     0.042 C 
ATOM     17  C   UNL     1       1.231   1.472   0.981  1.00  0.00     0.187 A 
ATOM     18  C   UNL     1       0.321   2.535   1.158  1.00  0.00     0.020 A 
ATOM     19  C   UNL     1      -3.487   2.150  -0.602  1.00  0.00     0.005 C 
ATOM     20  C   UNL     1       0.207   3.347   2.437  1.00  0.00     0.042 C 
ATOM     21  C   UNL     1      -4.159   0.967   0.103  1.00  0.00     0.000 C 
ATOM     22  C   UNL     1      -0.744   2.683   3.463  1.00  0.00     0.005 C 
ATOM     23  C   UNL     1      -3.339  -0.041   0.910  1.00  0.00     0.000 C 
ATOM     24  C   UNL     1      -2.248   2.775   3.121  1.00  0.00     0.000 C 
ATOM     25  C   UNL     1      -2.457   0.401   2.086  1.00  0.00     0.000 C 
ATOM     26  C   UNL     1      -3.009   1.436   3.071  1.00  0.00     0.000 C 
ATOM     27  C   UNL     1      -0.239  -0.291  -2.040  1.00  0.00     0.124 C 
ATOM     28  C   UNL     1       2.333   1.267   1.996  1.00  0.00     0.124 C 
ENDBRANCH   7  12
ENDBRANCH   3   6
ENDBRANCH   1   3
BRANCH   1  29
ATOM     29  C   UNL     1       3.164  -4.708  -2.660  1.00  0.00     0.220 A 
ATOM     30  N   UNL     1       2.465  -3.894  -3.421  1.00  0.00    -0.118 NA
ATOM     31  S   UNL     1       2.294  -6.022  -2.009  1.00  0.00    -0.062 S 
ATOM     32  N   UNL     1       1.139  -4.280  -3.496  1.00  0.00    -0.123 NA
ATOM     33  C   UNL     1       0.930  -5.395  -2.820  1.00  0.00     0.249 A 
BRANCH  33  34
ATOM     34  S   UNL     1      -0.640  -6.180  -2.617  1.00  0.00     0.267 S 
ATOM     35  O   UNL     1      -1.341  -5.334  -1.675  1.00  0.00    -0.205 OA
ATOM     36  O   UNL     1      -0.378  -7.578  -2.376  1.00  0.00    -0.205 OA
BRANCH  34  37
ATOM     37  N   UNL     1      -1.481  -6.064  -4.067  1.00  0.00    -0.223 NA
ATOM     38  H   UNL     1      -0.959  -6.367  -4.891  1.00  0.00     0.137 HD
ATOM     39  H   UNL     1      -1.979  -5.179  -4.160  1.00  0.00     0.137 HD
ENDBRANCH  34  37
ENDBRANCH  33  34
ENDBRANCH   1  29
TORSDOF 6
