REMARK SMILES NS(=O)(=O)c1nnc(NC(=O)/C(Cc2ccccc2)=N/O)s1
REMARK SMILES IDX 5 1 6 2 7 3 8 4 22 5 2 6 3 7 4 8 1 9 9 12 10 13 11 14 12 16
REMARK SMILES IDX 20 17 13 18 14 19 15 20 19 21 16 22 18 23 17 24 21 25
REMARK H PARENT 1 10 1 11 9 15 21 26
ROOT
ATOM      1  C   UNL     1      -1.992   2.397   2.429  1.00  0.00     0.249 A 
ATOM      2  N   UNL     1      -0.937   2.303   3.213  1.00  0.00    -0.123 NA
ATOM      3  N   UNL     1       0.131   1.733   2.543  1.00  0.00    -0.119 NA
ATOM      4  C   UNL     1      -0.167   1.434   1.298  1.00  0.00     0.213 A 
ATOM      5  S   UNL     1      -1.764   1.816   0.841  1.00  0.00    -0.062 S 
ENDROOT
BRANCH   1   6
ATOM      6  S   UNL     1      -3.562   3.063   2.857  1.00  0.00     0.267 S 
ATOM      7  O   UNL     1      -3.428   3.708   4.143  1.00  0.00    -0.205 OA
ATOM      8  O   UNL     1      -4.543   2.028   2.616  1.00  0.00    -0.205 OA
BRANCH   6   9
ATOM      9  N   UNL     1      -3.951   4.312   1.785  1.00  0.00    -0.223 NA
ATOM     10  H   UNL     1      -3.993   5.186   2.314  1.00  0.00     0.137 HD
ATOM     11  H   UNL     1      -4.845   4.095   1.341  1.00  0.00     0.137 HD
ENDBRANCH   6   9
ENDBRANCH   1   6
BRANCH   4  12
ATOM     12  N   UNL     1       0.732   0.851   0.448  1.00  0.00    -0.295 N 
ATOM     13  C   UNL     1       0.542   0.541  -0.874  1.00  0.00     0.275 C 
ATOM     14  O   UNL     1      -0.429   0.744  -1.584  1.00  0.00    -0.267 OA
ATOM     15  H   UNL     1       1.647   0.662   0.845  1.00  0.00     0.172 HD
BRANCH  13  16
ATOM     16  C   UNL     1       1.765  -0.145  -1.477  1.00  0.00     0.149 C 
ATOM     17  N   UNL     1       2.926   0.162  -0.965  1.00  0.00    -0.088 NA
BRANCH  16  18
ATOM     18  C   UNL     1       1.490  -1.149  -2.575  1.00  0.00     0.101 C 
BRANCH  18  19
ATOM     19  C   UNL     1       0.939  -2.438  -2.015  1.00  0.00    -0.042 A 
ATOM     20  C   UNL     1       1.804  -3.411  -1.496  1.00  0.00     0.004 A 
ATOM     21  C   UNL     1      -0.444  -2.659  -1.963  1.00  0.00     0.004 A 
ATOM     22  C   UNL     1       1.296  -4.587  -0.941  1.00  0.00     0.000 A 
ATOM     23  C   UNL     1      -0.950  -3.835  -1.407  1.00  0.00     0.000 A 
ATOM     24  C   UNL     1      -0.081  -4.798  -0.897  1.00  0.00     0.000 A 
ENDBRANCH  18  19
ENDBRANCH  16  18
BRANCH  17  25
ATOM     25  O   UNL     1       3.963  -0.552  -1.573  1.00  0.00    -0.410 OA
ATOM     26  H   UNL     1       4.759  -0.207  -1.124  1.00  0.00     0.330 HD
ENDBRANCH  17  25
ENDBRANCH  13  16
ENDBRANCH   4  12
TORSDOF 7
