REMARK SMILES NS(=O)(=O)c1ccc(NC(=O)NCCN2CCN(c3ccc(F)cc3)CC2)cc1
REMARK SMILES IDX 9 1 10 2 11 3 12 4 8 7 5 8 6 9 29 10 7 11 28 12 2 13 3 14
REMARK SMILES IDX 4 15 1 16 13 19 14 20 15 21 16 22 27 23 17 24 26 25 18 26
REMARK SMILES IDX 19 27 20 28 25 29 21 30 24 31 22 32 23 33
REMARK H PARENT 9 5 12 6 1 17 1 18
ROOT
ATOM      1  N   UNL     1       1.480   1.349   1.952  1.00  0.00    -0.308 N 
ATOM      2  C   UNL     1       1.331   1.327   0.583  1.00  0.00     0.319 C 
ATOM      3  O   UNL     1       0.283   1.207  -0.036  1.00  0.00    -0.249 OA
ATOM      4  N   UNL     1       2.551   1.508  -0.049  1.00  0.00    -0.337 N 
ATOM      5  H   UNL     1       2.319   1.802   2.283  1.00  0.00     0.171 HD
ATOM      6  H   UNL     1       3.364   1.207   0.470  1.00  0.00     0.165 HD
ENDROOT
BRANCH   1   7
ATOM      7  C   UNL     1       0.469   1.098   2.904  1.00  0.00     0.042 A 
ATOM      8  C   UNL     1      -1.467   0.680   4.887  1.00  0.00     0.082 A 
ATOM      9  C   UNL     1      -0.250   1.272   5.223  1.00  0.00     0.024 A 
ATOM     10  C   UNL     1      -1.714   0.264   3.579  1.00  0.00     0.024 A 
ATOM     11  C   UNL     1       0.717   1.472   4.232  1.00  0.00     0.027 A 
ATOM     12  C   UNL     1      -0.743   0.480   2.593  1.00  0.00     0.027 A 
BRANCH   8  13
ATOM     13  S   UNL     1      -2.719   0.452   6.121  1.00  0.00     0.238 S 
ATOM     14  O   UNL     1      -2.264   1.048   7.357  1.00  0.00    -0.207 OA
ATOM     15  O   UNL     1      -3.183  -0.915   6.037  1.00  0.00    -0.207 OA
BRANCH  13  16
ATOM     16  N   UNL     1      -3.934   1.487   5.580  1.00  0.00    -0.225 NA
ATOM     17  H   UNL     1      -3.991   2.263   6.240  1.00  0.00     0.137 HD
ATOM     18  H   UNL     1      -3.779   1.823   4.633  1.00  0.00     0.137 HD
ENDBRANCH  13  16
ENDBRANCH   8  13
ENDBRANCH   1   7
BRANCH   4  19
ATOM     19  C   UNL     1       2.631   1.365  -1.497  1.00  0.00     0.133 C 
BRANCH  19  20
ATOM     20  C   UNL     1       2.707  -0.118  -1.914  1.00  0.00     0.106 C 
BRANCH  20  21
ATOM     21  N   UNL     1       2.636  -0.357  -3.371  1.00  0.00    -0.298 NA
ATOM     22  C   UNL     1       1.327   0.021  -3.953  1.00  0.00     0.106 C 
ATOM     23  C   UNL     1       2.787  -1.800  -3.652  1.00  0.00     0.106 C 
ATOM     24  C   UNL     1       0.111  -0.694  -3.338  1.00  0.00     0.132 C 
ATOM     25  C   UNL     1       1.654  -2.723  -3.138  1.00  0.00     0.132 C 
ATOM     26  N   UNL     1       0.273  -2.169  -3.208  1.00  0.00    -0.369 N 
BRANCH  26  27
ATOM     27  C   UNL     1      -0.758  -2.907  -2.606  1.00  0.00     0.037 A 
ATOM     28  C   UNL     1      -0.698  -4.311  -2.517  1.00  0.00     0.029 A 
ATOM     29  C   UNL     1      -1.914  -2.303  -2.080  1.00  0.00     0.029 A 
ATOM     30  C   UNL     1      -1.706  -5.059  -1.897  1.00  0.00     0.041 A 
ATOM     31  C   UNL     1      -2.929  -3.041  -1.462  1.00  0.00     0.041 A 
ATOM     32  C   UNL     1      -2.814  -4.413  -1.378  1.00  0.00     0.123 A 
ATOM     33  F   UNL     1      -3.774  -5.120  -0.771  1.00  0.00    -0.207 F 
ENDBRANCH  26  27
ENDBRANCH  20  21
ENDBRANCH  19  20
ENDBRANCH   4  19
TORSDOF 7
