REMARK SMILES NS(=O)(=O)c1cc(C(=O)NCc2ccccc2)c(S(=O)(=O)c2ccccc2)cc1Cl
REMARK SMILES IDX 5 1 6 2 7 3 18 4 28 5 29 6 30 7 2 8 3 9 4 10 1 11 8 14 9 15
REMARK SMILES IDX 10 16 11 18 12 19 13 20 17 21 14 22 16 23 15 24 19 25 20 26
REMARK SMILES IDX 21 27 22 28 23 29 27 30 24 31 26 32 25 33
REMARK H PARENT 1 12 1 13 10 17
ROOT
ATOM      1  C   UNL     1      -0.380  -0.468   3.554  1.00  0.00     0.101 A 
ATOM      2  C   UNL     1      -0.272  -0.196   2.183  1.00  0.00     0.038 A 
ATOM      3  C   UNL     1       0.560  -0.983   1.369  1.00  0.00     0.060 A 
ATOM      4  C   UNL     1       1.292  -2.030   1.929  1.00  0.00     0.086 A 
ATOM      5  C   UNL     1       1.177  -2.298   3.303  1.00  0.00     0.043 A 
ATOM      6  C   UNL     1       0.343  -1.522   4.117  1.00  0.00     0.062 A 
ATOM      7  Cl  UNL     1       0.260  -1.950   5.786  1.00  0.00    -0.083 Cl
ENDROOT
BRANCH   1   8
ATOM      8  S   UNL     1      -1.426   0.521   4.573  1.00  0.00     0.239 S 
ATOM      9  O   UNL     1      -2.586  -0.263   4.926  1.00  0.00    -0.207 OA
ATOM     10  O   UNL     1      -0.613   1.233   5.528  1.00  0.00    -0.207 OA
BRANCH   8  11
ATOM     11  N   UNL     1      -2.017   1.717   3.545  1.00  0.00    -0.225 NA
ATOM     12  H   UNL     1      -3.037   1.655   3.512  1.00  0.00     0.137 HD
ATOM     13  H   UNL     1      -1.689   2.628   3.875  1.00  0.00     0.137 HD
ENDBRANCH   8  11
ENDBRANCH   1   8
BRANCH   3  14
ATOM     14  C   UNL     1       0.657  -0.607  -0.050  1.00  0.00     0.252 C 
ATOM     15  O   UNL     1       1.734  -0.262  -0.509  1.00  0.00    -0.269 OA
ATOM     16  N   UNL     1      -0.524  -0.675  -0.745  1.00  0.00    -0.348 N 
ATOM     17  H   UNL     1      -1.387  -0.913  -0.277  1.00  0.00     0.164 HD
BRANCH  16  18
ATOM     18  C   UNL     1      -0.626  -0.216  -2.113  1.00  0.00     0.152 C 
BRANCH  18  19
ATOM     19  C   UNL     1      -1.316   1.122  -2.158  1.00  0.00    -0.029 A 
ATOM     20  C   UNL     1      -0.596   2.293  -1.879  1.00  0.00     0.005 A 
ATOM     21  C   UNL     1      -2.687   1.216  -2.434  1.00  0.00     0.005 A 
ATOM     22  C   UNL     1      -1.232   3.535  -1.890  1.00  0.00     0.000 A 
ATOM     23  C   UNL     1      -3.321   2.459  -2.444  1.00  0.00     0.000 A 
ATOM     24  C   UNL     1      -2.594   3.617  -2.173  1.00  0.00     0.000 A 
ENDBRANCH  18  19
ENDBRANCH  16  18
ENDBRANCH   3  14
BRANCH   4  25
ATOM     25  S   UNL     1       2.324  -3.111   0.964  1.00  0.00     0.207 S 
ATOM     26  O   UNL     1       2.374  -4.367   1.694  1.00  0.00    -0.218 OA
ATOM     27  O   UNL     1       3.550  -2.387   0.697  1.00  0.00    -0.218 OA
BRANCH  25  28
ATOM     28  C   UNL     1       1.531  -3.520  -0.572  1.00  0.00     0.072 A 
ATOM     29  C   UNL     1       0.349  -4.268  -0.547  1.00  0.00     0.021 A 
ATOM     30  C   UNL     1       2.105  -3.131  -1.784  1.00  0.00     0.021 A 
ATOM     31  C   UNL     1      -0.276  -4.603  -1.748  1.00  0.00     0.001 A 
ATOM     32  C   UNL     1       1.473  -3.468  -2.981  1.00  0.00     0.001 A 
ATOM     33  C   UNL     1       0.284  -4.200  -2.962  1.00  0.00     0.000 A 
ENDBRANCH  25  28
ENDBRANCH   4  25
TORSDOF 7
