REMARK SMILES NS(=O)(=O)c1ccc(CNC(=O)Cc2ccccc2Br)cc1
REMARK SMILES IDX 9 1 8 2 5 3 6 4 22 5 7 6 21 7 2 8 3 9 4 10 1 11 10 14 11 15
REMARK SMILES IDX 12 16 13 18 14 19 15 20 19 21 16 22 18 23 17 24 20 25
REMARK H PARENT 1 12 1 13 10 17
ROOT
ATOM      1  C   UNL     1       0.927  -1.355   0.955  1.00  0.00     0.151 C 
ENDROOT
BRANCH   1   2
ATOM      2  C   UNL     1       0.881   0.008   1.601  1.00  0.00    -0.029 A 
ATOM      3  C   UNL     1       0.741   2.548   2.762  1.00  0.00     0.082 A 
ATOM      4  C   UNL     1      -0.181   1.567   3.136  1.00  0.00     0.022 A 
ATOM      5  C   UNL     1       1.740   2.273   1.824  1.00  0.00     0.022 A 
ATOM      6  C   UNL     1      -0.115   0.304   2.546  1.00  0.00     0.007 A 
ATOM      7  C   UNL     1       1.805   1.005   1.242  1.00  0.00     0.007 A 
BRANCH   3   8
ATOM      8  S   UNL     1       0.639   4.154   3.502  1.00  0.00     0.238 S 
ATOM      9  O   UNL     1       0.181   4.005   4.862  1.00  0.00    -0.207 OA
ATOM     10  O   UNL     1       1.831   4.897   3.158  1.00  0.00    -0.207 OA
BRANCH   8  11
ATOM     11  N   UNL     1      -0.603   4.858   2.607  1.00  0.00    -0.225 NA
ATOM     12  H   UNL     1      -1.097   4.195   2.012  1.00  0.00     0.137 HD
ATOM     13  H   UNL     1      -0.223   5.643   2.075  1.00  0.00     0.137 HD
ENDBRANCH   8  11
ENDBRANCH   3   8
ENDBRANCH   1   2
BRANCH   1  14
ATOM     14  N   UNL     1       0.187  -1.357  -0.284  1.00  0.00    -0.352 N 
ATOM     15  C   UNL     1      -1.137  -1.724  -0.346  1.00  0.00     0.224 C 
ATOM     16  O   UNL     1      -1.775  -2.129   0.622  1.00  0.00    -0.275 OA
ATOM     17  H   UNL     1       0.638  -0.990  -1.112  1.00  0.00     0.163 HD
BRANCH  15  18
ATOM     18  C   UNL     1      -1.763  -1.576  -1.720  1.00  0.00     0.136 C 
BRANCH  18  19
ATOM     19  C   UNL     1      -1.394  -2.704  -2.654  1.00  0.00    -0.024 A 
ATOM     20  C   UNL     1      -2.124  -3.904  -2.561  1.00  0.00     0.005 A 
ATOM     21  C   UNL     1      -0.345  -2.634  -3.586  1.00  0.00     0.021 A 
ATOM     22  C   UNL     1      -1.830  -4.992  -3.385  1.00  0.00     0.000 A 
ATOM     23  C   UNL     1      -0.056  -3.726  -4.413  1.00  0.00     0.016 A 
ATOM     24  C   UNL     1      -0.799  -4.902  -4.314  1.00  0.00     0.001 A 
ATOM     25  Br  UNL     1       0.745  -1.089  -3.786  1.00  0.00    -0.051 Br
ENDBRANCH  18  19
ENDBRANCH  15  18
ENDBRANCH   1  14
TORSDOF 6
