REMARK SMILES NS(=O)(=O)c1ccc(CCn2c(=S)[nH]c3ccccc3c2=O)cc1
REMARK SMILES IDX 5 1 6 2 7 3 8 4 23 5 24 6 2 7 3 8 4 9 1 10 9 13 10 14 11 15
REMARK SMILES IDX 12 16 21 17 13 18 14 19 20 20 22 21 15 22 19 23 16 24 18 25
REMARK SMILES IDX 17 26
REMARK H PARENT 1 11 1 12 14 27
ROOT
ATOM      1  C   UNL     1      -0.643   1.142   3.044  1.00  0.00     0.082 A 
ATOM      2  C   UNL     1       0.439   1.963   2.715  1.00  0.00     0.022 A 
ATOM      3  C   UNL     1       1.445   1.471   1.884  1.00  0.00     0.005 A 
ATOM      4  C   UNL     1       1.378   0.160   1.389  1.00  0.00    -0.046 A 
ATOM      5  C   UNL     1       0.301  -0.662   1.755  1.00  0.00     0.005 A 
ATOM      6  C   UNL     1      -0.710  -0.174   2.583  1.00  0.00     0.022 A 
ENDROOT
BRANCH   1   7
ATOM      7  S   UNL     1      -1.941   1.797   4.055  1.00  0.00     0.238 S 
ATOM      8  O   UNL     1      -1.359   2.697   5.020  1.00  0.00    -0.207 OA
ATOM      9  O   UNL     1      -2.827   0.718   4.429  1.00  0.00    -0.207 OA
BRANCH   7  10
ATOM     10  N   UNL     1      -2.803   2.715   2.934  1.00  0.00    -0.225 NA
ATOM     11  H   UNL     1      -3.734   2.309   2.826  1.00  0.00     0.137 HD
ATOM     12  H   UNL     1      -2.324   2.804   2.038  1.00  0.00     0.137 HD
ENDBRANCH   7  10
ENDBRANCH   1   7
BRANCH   4  13
ATOM     13  C   UNL     1       2.435  -0.349   0.437  1.00  0.00     0.057 C 
BRANCH  13  14
ATOM     14  C   UNL     1       2.170   0.035  -1.031  1.00  0.00     0.133 C 
BRANCH  14  15
ATOM     15  N   UNL     1       0.988  -0.632  -1.611  1.00  0.00    -0.285 N 
ATOM     16  C   UNL     1      -0.220   0.036  -1.817  1.00  0.00     0.180 C 
ATOM     17  C   UNL     1       1.180  -1.987  -1.928  1.00  0.00     0.262 C 
ATOM     18  S   UNL     1      -0.567   1.649  -1.505  1.00  0.00    -0.040 S 
ATOM     19  N   UNL     1      -1.250  -0.699  -2.340  1.00  0.00    -0.332 N 
ATOM     20  C   UNL     1       0.034  -2.724  -2.488  1.00  0.00     0.064 A 
ATOM     21  O   UNL     1       2.241  -2.587  -1.759  1.00  0.00    -0.269 OA
ATOM     22  C   UNL     1      -1.161  -2.046  -2.677  1.00  0.00     0.053 A 
ATOM     23  C   UNL     1       0.136  -4.078  -2.823  1.00  0.00     0.016 A 
ATOM     24  C   UNL     1      -2.270  -2.709  -3.204  1.00  0.00     0.027 A 
ATOM     25  C   UNL     1      -0.970  -4.746  -3.350  1.00  0.00     0.001 A 
ATOM     26  C   UNL     1      -2.172  -4.061  -3.540  1.00  0.00     0.002 A 
ATOM     27  H   UNL     1      -2.123  -0.205  -2.490  1.00  0.00     0.169 HD
ENDBRANCH  14  15
ENDBRANCH  13  14
ENDBRANCH   4  13
TORSDOF 5
