REMARK SMILES O=S1(=O)CCc2ccc(OCc3ccccc3)cc2O1
REMARK SMILES IDX 10 1 9 2 1 3 2 4 3 5 4 6 20 7 5 8 19 9 6 10 18 11 7 12 8 13
REMARK SMILES IDX 11 14 12 15 13 16 17 17 14 18 16 19 15 20
REMARK H PARENT
ROOT
ATOM      1  O   UNL     1       2.306  -0.046  -0.819  1.00  0.00    -0.489 OA
ENDROOT
BRANCH   1   2
ATOM      2  C   UNL     1       1.446  -0.021   0.243  1.00  0.00     0.123 A 
ATOM      3  O   UNL     1      -2.657   2.198   2.957  1.00  0.00    -0.187 OA
ATOM      4  S   UNL     1      -2.979   0.872   2.468  1.00  0.00     0.309 S 
ATOM      5  O   UNL     1      -4.341   0.510   2.128  1.00  0.00    -0.187 OA
ATOM      6  C   UNL     1      -2.369  -0.335   3.621  1.00  0.00     0.185 C 
ATOM      7  O   UNL     1      -2.019   0.509   1.203  1.00  0.00    -0.382 OA
ATOM      8  C   UNL     1      -0.897  -0.101   3.875  1.00  0.00     0.059 C 
ATOM      9  C   UNL     1      -0.685   0.233   1.366  1.00  0.00     0.149 A 
ATOM     10  C   UNL     1      -0.103  -0.080   2.599  1.00  0.00    -0.003 A 
ATOM     11  C   UNL     1       0.080   0.248   0.194  1.00  0.00     0.095 A 
ATOM     12  C   UNL     1       1.271  -0.343   2.643  1.00  0.00     0.011 A 
ATOM     13  C   UNL     1       2.034  -0.320   1.473  1.00  0.00     0.047 A 
ENDBRANCH   1   2
BRANCH   1  14
ATOM     14  C   UNL     1       1.856   0.476  -2.074  1.00  0.00     0.265 C 
BRANCH  14  15
ATOM     15  C   UNL     1       1.106  -0.538  -2.909  1.00  0.00    -0.011 A 
ATOM     16  C   UNL     1       1.445  -1.898  -2.879  1.00  0.00     0.007 A 
ATOM     17  C   UNL     1       0.086  -0.115  -3.774  1.00  0.00     0.007 A 
ATOM     18  C   UNL     1       0.761  -2.818  -3.676  1.00  0.00     0.000 A 
ATOM     19  C   UNL     1      -0.597  -1.036  -4.570  1.00  0.00     0.000 A 
ATOM     20  C   UNL     1      -0.261  -2.387  -4.519  1.00  0.00     0.000 A 
ENDBRANCH  14  15
ENDBRANCH   1  14
TORSDOF 3
