REMARK SMILES NS(=O)(=O)c1nc2ccc(OC(=O)CN(CCN(CCN(CC(=O)O)CC(=O)Oc3ccc4nc(S(N)(=O)=O)sc4c3)CC(=O)O)CC(=O)O)cc2s1
REMARK SMILES IDX 18 1 17 2 16 3 15 4 14 5 12 6 13 7 11 8 10 9 5 10 6 11 53 12
REMARK SMILES IDX 7 13 52 14 8 15 51 16 9 17 2 18 3 19 4 20 1 21 47 24 48 25
REMARK SMILES IDX 49 26 50 27 19 29 20 30 21 31 22 32 23 33 24 34 25 35 26 37
REMARK SMILES IDX 27 38 28 39 29 40 30 41 31 42 42 43 32 44 41 45 33 46 40 47
REMARK SMILES IDX 34 48 35 49 36 50 38 51 39 52 37 53 43 56 44 57 45 58 46 59
REMARK H PARENT 1 22 1 23 50 28 25 36 37 54 37 55 46 60
ROOT
ATOM      1  N   UNL     1      -0.763  -1.592  -3.943  1.00  0.00    -0.291 NA
ENDROOT
BRANCH   1   2
ATOM      2  C   UNL     1      -0.399  -1.083  -5.287  1.00  0.00     0.100 C 
BRANCH   2   3
ATOM      3  C   UNL     1       0.230   0.339  -5.428  1.00  0.00     0.101 C 
BRANCH   3   4
ATOM      4  N   UNL     1       1.618   0.466  -4.932  1.00  0.00    -0.281 NA
BRANCH   4   5
ATOM      5  C   UNL     1       1.972   1.878  -4.652  1.00  0.00     0.208 C 
BRANCH   5   6
ATOM      6  C   UNL     1       1.341   2.377  -3.348  1.00  0.00     0.325 C 
ATOM      7  O   UNL     1       0.761   1.693  -2.512  1.00  0.00    -0.250 OA
BRANCH   6   8
ATOM      8  O   UNL     1       1.566   3.751  -3.256  1.00  0.00    -0.426 OA
BRANCH   8   9
ATOM      9  C   UNL     1       1.054   4.275  -2.066  1.00  0.00     0.132 A 
ATOM     10  C   UNL     1       0.538   5.470   2.438  1.00  0.00     0.225 A 
ATOM     11  N   UNL     1      -0.423   5.695   1.562  1.00  0.00    -0.224 NA
ATOM     12  S   UNL     1       1.992   4.821   1.841  1.00  0.00    -0.101 S 
ATOM     13  C   UNL     1      -0.001   5.265   0.317  1.00  0.00     0.083 A 
ATOM     14  C   UNL     1       1.296   4.742   0.269  1.00  0.00     0.059 A 
ATOM     15  C   UNL     1      -0.763   5.311  -0.874  1.00  0.00     0.034 A 
ATOM     16  C   UNL     1       1.858   4.249  -0.919  1.00  0.00     0.068 A 
ATOM     17  C   UNL     1      -0.224   4.822  -2.068  1.00  0.00     0.049 A 
BRANCH  10  18
ATOM     18  S   UNL     1       0.449   5.841   4.171  1.00  0.00     0.265 S 
ATOM     19  O   UNL     1       0.824   7.231   4.302  1.00  0.00    -0.205 OA
ATOM     20  O   UNL     1       1.132   4.789   4.889  1.00  0.00    -0.205 OA
BRANCH  18  21
ATOM     21  N   UNL     1      -1.168   5.764   4.660  1.00  0.00    -0.223 NA
ATOM     22  H   UNL     1      -1.204   5.515   5.648  1.00  0.00     0.137 HD
ATOM     23  H   UNL     1      -1.633   6.648   4.450  1.00  0.00     0.137 HD
ENDBRANCH  18  21
ENDBRANCH  10  18
ENDBRANCH   8   9
ENDBRANCH   6   8
ENDBRANCH   5   6
ENDBRANCH   4   5
BRANCH   4  24
ATOM     24  C   UNL     1       2.595  -0.168  -5.850  1.00  0.00     0.208 C 
BRANCH  24  25
ATOM     25  C   UNL     1       3.956  -0.396  -5.197  1.00  0.00     0.317 C 
ATOM     26  O   UNL     1       5.034  -0.281  -5.760  1.00  0.00    -0.251 OA
BRANCH  25  27
ATOM     27  O   UNL     1       3.896  -0.802  -3.914  1.00  0.00    -0.480 OA
ATOM     28  H   UNL     1       4.825  -0.963  -3.649  1.00  0.00     0.296 HD
ENDBRANCH  25  27
ENDBRANCH  24  25
ENDBRANCH   4  24
ENDBRANCH   3   4
ENDBRANCH   2   3
ENDBRANCH   1   2
BRANCH   1  29
ATOM     29  C   UNL     1       0.444  -1.759  -3.103  1.00  0.00     0.100 C 
BRANCH  29  30
ATOM     30  C   UNL     1       0.207  -2.519  -1.771  1.00  0.00     0.101 C 
BRANCH  30  31
ATOM     31  N   UNL     1       1.448  -2.854  -1.031  1.00  0.00    -0.281 NA
BRANCH  31  32
ATOM     32  C   UNL     1       2.201  -1.642  -0.628  1.00  0.00     0.208 C 
BRANCH  32  33
ATOM     33  C   UNL     1       3.522  -1.989   0.041  1.00  0.00     0.317 C 
ATOM     34  O   UNL     1       3.730  -2.039   1.246  1.00  0.00    -0.251 OA
BRANCH  33  35
ATOM     35  O   UNL     1       4.500  -2.327  -0.829  1.00  0.00    -0.480 OA
ATOM     36  H   UNL     1       5.245  -2.585  -0.247  1.00  0.00     0.296 HD
ENDBRANCH  33  35
ENDBRANCH  32  33
ENDBRANCH  31  32
BRANCH  31  37
ATOM     37  C   UNL     1       1.164  -3.772   0.104  1.00  0.00     0.208 C 
BRANCH  37  38
ATOM     38  C   UNL     1       0.270  -3.220   1.221  1.00  0.00     0.325 C 
ATOM     39  O   UNL     1      -0.196  -2.089   1.301  1.00  0.00    -0.250 OA
BRANCH  38  40
ATOM     40  O   UNL     1       0.066  -4.253   2.140  1.00  0.00    -0.426 OA
BRANCH  40  41
ATOM     41  C   UNL     1      -0.817  -3.900   3.165  1.00  0.00     0.132 A 
ATOM     42  C   UNL     1      -2.184  -4.057   2.973  1.00  0.00     0.049 A 
ATOM     43  C   UNL     1      -0.277  -3.471   4.382  1.00  0.00     0.068 A 
ATOM     44  C   UNL     1      -3.069  -3.753   4.014  1.00  0.00     0.034 A 
ATOM     45  C   UNL     1      -1.180  -3.172   5.415  1.00  0.00     0.059 A 
ATOM     46  C   UNL     1      -2.566  -3.306   5.255  1.00  0.00     0.083 A 
ATOM     47  S   UNL     1      -0.848  -2.619   7.010  1.00  0.00    -0.101 S 
ATOM     48  N   UNL     1      -3.326  -2.986   6.368  1.00  0.00    -0.224 NA
ATOM     49  C   UNL     1      -2.518  -2.617   7.345  1.00  0.00     0.225 A 
BRANCH  49  50
ATOM     50  S   UNL     1      -3.029  -2.093   8.959  1.00  0.00     0.265 S 
ATOM     51  O   UNL     1      -2.318  -2.900   9.926  1.00  0.00    -0.205 OA
ATOM     52  O   UNL     1      -2.964  -0.646   8.961  1.00  0.00    -0.205 OA
BRANCH  50  53
ATOM     53  N   UNL     1      -4.666  -2.468   9.164  1.00  0.00    -0.223 NA
ATOM     54  H   UNL     1      -5.229  -1.659   8.890  1.00  0.00     0.137 HD
ATOM     55  H   UNL     1      -4.825  -2.740  10.136  1.00  0.00     0.137 HD
ENDBRANCH  50  53
ENDBRANCH  49  50
ENDBRANCH  40  41
ENDBRANCH  38  40
ENDBRANCH  37  38
ENDBRANCH  31  37
ENDBRANCH  30  31
ENDBRANCH  29  30
ENDBRANCH   1  29
BRANCH   1  56
ATOM     56  C   UNL     1      -1.780  -0.750  -3.267  1.00  0.00     0.207 C 
BRANCH  56  57
ATOM     57  C   UNL     1      -3.051  -0.608  -4.090  1.00  0.00     0.317 C 
ATOM     58  O   UNL     1      -3.455   0.426  -4.608  1.00  0.00    -0.251 OA
BRANCH  57  59
ATOM     59  O   UNL     1      -3.726  -1.769  -4.256  1.00  0.00    -0.480 OA
ATOM     60  H   UNL     1      -4.508  -1.535  -4.798  1.00  0.00     0.296 HD
ENDBRANCH  57  59
ENDBRANCH  56  57
ENDBRANCH   1  56
TORSDOF 27
