REMARK SMILES NS(=O)(=O)c1ccc(-c2cnc(C(=O)N3CCOCC3)o2)s1
REMARK SMILES IDX 5 1 6 2 7 3 8 4 22 5 2 6 3 7 4 8 1 9 9 12 10 13 21 14 11 15
REMARK SMILES IDX 12 16 13 17 14 18 15 19 16 20 20 21 17 22 19 23 18 24
REMARK H PARENT 1 10 1 11
ROOT
ATOM      1  C   UNL     1      -0.054  -0.569   4.111  1.00  0.00     0.135 A 
ATOM      2  C   UNL     1       1.033   0.221   4.423  1.00  0.00     0.034 A 
ATOM      3  C   UNL     1       1.711   0.692   3.261  1.00  0.00     0.025 A 
ATOM      4  C   UNL     1       1.123   0.246   2.092  1.00  0.00     0.073 A 
ATOM      5  S   UNL     1      -0.241  -0.739   2.421  1.00  0.00    -0.119 S 
ENDROOT
BRANCH   1   6
ATOM      6  S   UNL     1      -1.246  -1.403   5.118  1.00  0.00     0.247 S 
ATOM      7  O   UNL     1      -2.534  -0.845   4.784  1.00  0.00    -0.206 OA
ATOM      8  O   UNL     1      -0.710  -1.376   6.459  1.00  0.00    -0.206 OA
BRANCH   6   9
ATOM      9  N   UNL     1      -1.289  -3.022   4.672  1.00  0.00    -0.224 NA
ATOM     10  H   UNL     1      -1.001  -3.596   5.466  1.00  0.00     0.137 HD
ATOM     11  H   UNL     1      -2.230  -3.252   4.349  1.00  0.00     0.137 HD
ENDBRANCH   6   9
ENDBRANCH   1   6
BRANCH   4  12
ATOM     12  C   UNL     1       1.525   0.524   0.743  1.00  0.00     0.165 A 
ATOM     13  C   UNL     1       2.570   1.293   0.266  1.00  0.00     0.164 A 
ATOM     14  O   UNL     1       0.879   0.033  -0.367  1.00  0.00    -0.431 OA
ATOM     15  N   UNL     1       2.590   1.296  -1.105  1.00  0.00    -0.213 NA
ATOM     16  C   UNL     1       1.558   0.544  -1.444  1.00  0.00     0.286 A 
BRANCH  16  17
ATOM     17  C   UNL     1       1.164   0.205  -2.815  1.00  0.00     0.309 C 
ATOM     18  O   UNL     1       1.948   0.319  -3.763  1.00  0.00    -0.264 OA
ATOM     19  N   UNL     1      -0.136  -0.268  -3.062  1.00  0.00    -0.330 N 
ATOM     20  C   UNL     1      -0.474  -0.731  -4.408  1.00  0.00     0.148 C 
ATOM     21  C   UNL     1      -1.260  -0.205  -2.121  1.00  0.00     0.148 C 
ATOM     22  C   UNL     1      -1.608  -1.759  -4.362  1.00  0.00     0.181 C 
ATOM     23  C   UNL     1      -2.605  -0.168  -2.856  1.00  0.00     0.181 C 
ATOM     24  O   UNL     1      -2.806  -1.281  -3.734  1.00  0.00    -0.378 OA
ENDBRANCH  16  17
ENDBRANCH   4  12
TORSDOF 4
