REMARK SMILES NS(=O)(=O)c1ccc(C(=O)N2CCc3cc(O)c(O)cc3C2c2ccc(F)cc2)cc1
REMARK SMILES IDX 5 1 6 2 7 3 8 4 30 5 31 6 2 7 3 8 4 9 1 10 9 13 10 14 11 15
REMARK SMILES IDX 12 16 22 17 13 18 21 19 14 20 20 21 15 22 18 23 16 24 23 25
REMARK SMILES IDX 24 26 29 27 25 28 28 29 26 30 27 31 19 32 17 34
REMARK H PARENT 1 11 1 12 19 33 17 35
ROOT
ATOM      1  C   UNL     1       0.924  -1.453   3.898  1.00  0.00     0.082 A 
ATOM      2  C   UNL     1       1.655  -2.360   3.123  1.00  0.00     0.022 A 
ATOM      3  C   UNL     1       2.137  -1.961   1.876  1.00  0.00     0.015 A 
ATOM      4  C   UNL     1       1.869  -0.668   1.410  1.00  0.00     0.040 A 
ATOM      5  C   UNL     1       1.169   0.250   2.201  1.00  0.00     0.015 A 
ATOM      6  C   UNL     1       0.691  -0.146   3.451  1.00  0.00     0.022 A 
ENDROOT
BRANCH   1   7
ATOM      7  S   UNL     1       0.336  -1.930   5.497  1.00  0.00     0.238 S 
ATOM      8  O   UNL     1       0.778  -3.273   5.795  1.00  0.00    -0.207 OA
ATOM      9  O   UNL     1       0.519  -0.826   6.410  1.00  0.00    -0.207 OA
BRANCH   7  10
ATOM     10  N   UNL     1      -1.321  -2.051   5.236  1.00  0.00    -0.225 NA
ATOM     11  H   UNL     1      -1.804  -1.378   5.835  1.00  0.00     0.137 HD
ATOM     12  H   UNL     1      -1.616  -3.017   5.404  1.00  0.00     0.137 HD
ENDBRANCH   7  10
ENDBRANCH   1   7
BRANCH   4  13
ATOM     13  C   UNL     1       2.406  -0.256   0.100  1.00  0.00     0.254 C 
ATOM     14  O   UNL     1       3.629  -0.167   0.009  1.00  0.00    -0.269 OA
BRANCH  13  15
ATOM     15  N   UNL     1       1.525   0.018  -0.944  1.00  0.00    -0.327 N 
ATOM     16  C   UNL     1       2.094   0.509  -2.198  1.00  0.00     0.125 C 
ATOM     17  C   UNL     1       0.089  -0.344  -0.944  1.00  0.00     0.146 C 
ATOM     18  C   UNL     1       1.304   1.697  -2.727  1.00  0.00     0.057 C 
ATOM     19  C   UNL     1      -0.739   0.380  -2.016  1.00  0.00    -0.014 A 
ATOM     20  C   UNL     1      -0.156   1.350  -2.863  1.00  0.00    -0.037 A 
ATOM     21  C   UNL     1      -2.122   0.118  -2.134  1.00  0.00     0.056 A 
ATOM     22  C   UNL     1      -0.942   2.035  -3.802  1.00  0.00     0.054 A 
ATOM     23  C   UNL     1      -2.880   0.792  -3.085  1.00  0.00     0.157 A 
ATOM     24  C   UNL     1      -2.292   1.745  -3.909  1.00  0.00     0.157 A 
BRANCH  17  25
ATOM     25  C   UNL     1      -0.107  -1.865  -0.984  1.00  0.00    -0.021 A 
ATOM     26  C   UNL     1      -0.817  -2.507   0.049  1.00  0.00     0.009 A 
ATOM     27  C   UNL     1       0.384  -2.647  -2.046  1.00  0.00     0.009 A 
ATOM     28  C   UNL     1      -1.015  -3.888   0.026  1.00  0.00     0.039 A 
ATOM     29  C   UNL     1       0.188  -4.029  -2.064  1.00  0.00     0.039 A 
ATOM     30  C   UNL     1      -0.508  -4.636  -1.028  1.00  0.00     0.123 A 
ATOM     31  F   UNL     1      -0.699  -5.961  -1.049  1.00  0.00    -0.207 F 
ENDBRANCH  17  25
BRANCH  23  32
ATOM     32  O   UNL     1      -4.217   0.554  -3.243  1.00  0.00    -0.504 OA
ATOM     33  H   UNL     1      -4.467  -0.185  -2.664  1.00  0.00     0.293 HD
ENDBRANCH  23  32
BRANCH  24  34
ATOM     34  O   UNL     1      -3.043   2.408  -4.834  1.00  0.00    -0.504 OA
ATOM     35  H   UNL     1      -3.946   2.048  -4.723  1.00  0.00     0.293 HD
ENDBRANCH  24  34
ENDBRANCH  13  15
ENDBRANCH   4  13
TORSDOF 7
