REMARK SMILES COc1ccc(OC)c([C@H]2[C@H](c3ccccc3)C(=O)N2c2ccc(S(N)(=O)=O)cc2)c1
REMARK SMILES IDX 21 1 22 2 23 3 24 4 29 5 30 6 20 7 10 8 11 9 18 10 19 11
REMARK SMILES IDX 9 12 3 13 4 14 31 15 5 16 6 17 2 18 1 19 7 20 8 21 12 22
REMARK SMILES IDX 13 23 17 24 14 25 16 26 15 27 25 28 27 29 28 30 26 31
REMARK H PARENT 26 32 26 33
ROOT
ATOM      1  C   UNL     1       0.734   0.541  -1.302  1.00  0.00     0.044 A 
ATOM      2  C   UNL     1       1.900  -0.225  -1.166  1.00  0.00     0.028 A 
ATOM      3  C   UNL     1       3.089   0.164  -1.791  1.00  0.00     0.024 A 
ATOM      4  C   UNL     1       3.110   1.325  -2.563  1.00  0.00     0.082 A 
ATOM      5  C   UNL     1       1.961   2.104  -2.705  1.00  0.00     0.024 A 
ATOM      6  C   UNL     1       0.776   1.706  -2.080  1.00  0.00     0.028 A 
ENDROOT
BRANCH   1   7
ATOM      7  N   UNL     1      -0.439   0.155  -0.655  1.00  0.00    -0.303 N 
ATOM      8  C   UNL     1      -0.726  -1.001   0.205  1.00  0.00     0.141 C 
ATOM      9  C   UNL     1      -2.222  -0.530   0.188  1.00  0.00     0.137 C 
ATOM     10  C   UNL     1      -1.714   0.613  -0.721  1.00  0.00     0.237 C 
ATOM     11  O   UNL     1      -2.217   1.553  -1.295  1.00  0.00    -0.274 OA
BRANCH   8  12
ATOM     12  C   UNL     1      -0.025  -1.078   1.643  1.00  0.00     0.022 A 
ATOM     13  C   UNL     1       1.288  -0.046   3.456  1.00  0.00     0.119 A 
ATOM     14  C   UNL     1       1.218  -1.231   4.180  1.00  0.00     0.050 A 
ATOM     15  C   UNL     1       0.660   0.026   2.212  1.00  0.00     0.056 A 
ATOM     16  C   UNL     1       0.542  -2.338   3.666  1.00  0.00     0.050 A 
ATOM     17  C   UNL     1      -0.071  -2.266   2.412  1.00  0.00     0.124 A 
BRANCH  13  18
ATOM     18  O   UNL     1       1.984   0.960   4.065  1.00  0.00    -0.497 OA
ATOM     19  C   UNL     1       2.227   2.132   3.295  1.00  0.00     0.278 C 
ENDBRANCH  13  18
BRANCH  17  20
ATOM     20  O   UNL     1      -0.762  -3.296   1.824  1.00  0.00    -0.496 OA
ATOM     21  C   UNL     1      -0.808  -4.537   2.519  1.00  0.00     0.278 C 
ENDBRANCH  17  20
ENDBRANCH   8  12
BRANCH   9  22
ATOM     22  C   UNL     1      -3.299  -1.489  -0.480  1.00  0.00    -0.033 A 
ATOM     23  C   UNL     1      -3.766  -1.364  -1.805  1.00  0.00     0.004 A 
ATOM     24  C   UNL     1      -3.846  -2.556   0.266  1.00  0.00     0.004 A 
ATOM     25  C   UNL     1      -4.706  -2.245  -2.351  1.00  0.00     0.000 A 
ATOM     26  C   UNL     1      -4.786  -3.441  -0.269  1.00  0.00     0.000 A 
ATOM     27  C   UNL     1      -5.214  -3.286  -1.583  1.00  0.00     0.000 A 
ENDBRANCH   9  22
ENDBRANCH   1   7
BRANCH   4  28
ATOM     28  S   UNL     1       4.612   1.847  -3.347  1.00  0.00     0.238 S 
ATOM     29  O   UNL     1       5.693   1.020  -2.861  1.00  0.00    -0.207 OA
ATOM     30  O   UNL     1       4.660   3.289  -3.319  1.00  0.00    -0.207 OA
BRANCH  28  31
ATOM     31  N   UNL     1       4.354   1.357  -4.938  1.00  0.00    -0.225 NA
ATOM     32  H   UNL     1       3.400   1.046  -5.117  1.00  0.00     0.137 HD
ATOM     33  H   UNL     1       5.041   0.639  -5.174  1.00  0.00     0.137 HD
ENDBRANCH  28  31
ENDBRANCH   4  28
TORSDOF 7
