REMARK SMILES C[C@H](CCC(=O)Nc1nnc(S(N)(=O)=O)s1)[C@H]1CC[C@H]2[C@@H]3C(=O)C[C@@H]4CC(=O)CC[C@]4(C)[C@H]3CC(=O)[C@]12C
REMARK SMILES IDX 5 1 6 2 7 3 4 5 3 6 2 7 1 8 17 9 18 10 37 11 19 12 35 13
REMARK SMILES IDX 20 14 34 15 36 16 21 17 33 18 22 19 31 20 23 21 24 22 30 23
REMARK SMILES IDX 25 24 29 25 26 26 27 27 28 28 38 29 32 30 8 31 9 32 16 33
REMARK SMILES IDX 10 34 11 35 12 36 14 37 15 38 13 39
REMARK H PARENT 7 4 13 40 13 41
ROOT
ATOM      1  C   UNL     1       1.984  -2.622   3.903  1.00  0.00     0.226 C 
ATOM      2  O   UNL     1       2.242  -3.378   2.973  1.00  0.00    -0.275 OA
ATOM      3  N   UNL     1       2.875  -2.162   4.849  1.00  0.00    -0.301 N 
ATOM      4  H   UNL     1       2.530  -1.688   5.674  1.00  0.00     0.172 HD
ENDROOT
BRANCH   1   5
ATOM      5  C   UNL     1       0.586  -2.068   4.137  1.00  0.00     0.101 C 
BRANCH   5   6
ATOM      6  C   UNL     1      -0.387  -2.417   3.003  1.00  0.00     0.013 C 
BRANCH   6   7
ATOM      7  C   UNL     1      -1.515  -1.400   2.714  1.00  0.00    -0.010 C 
ATOM      8  C   UNL     1      -2.133  -0.870   4.019  1.00  0.00     0.008 C 
BRANCH   7   9
ATOM      9  C   UNL     1      -1.165  -0.218   1.761  1.00  0.00     0.005 C 
ATOM     10  C   UNL     1       0.254   0.375   1.878  1.00  0.00     0.005 C 
ATOM     11  C   UNL     1      -1.315  -0.455   0.232  1.00  0.00     0.033 C 
ATOM     12  C   UNL     1       0.575   1.006   0.513  1.00  0.00     0.006 C 
ATOM     13  C   UNL     1      -2.742  -0.459  -0.297  1.00  0.00     0.139 C 
ATOM     14  C   UNL     1      -0.712   0.867  -0.298  1.00  0.00     0.013 C 
ATOM     15  C   UNL     1      -2.877  -0.411  -1.812  1.00  0.00     0.081 C 
ATOM     16  O   UNL     1      -3.726  -0.552   0.432  1.00  0.00    -0.299 OA
ATOM     17  C   UNL     1      -0.614   0.923  -1.830  1.00  0.00     0.064 C 
ATOM     18  C   UNL     1      -2.021   0.699  -2.468  1.00  0.00     0.013 C 
ATOM     19  C   UNL     1      -0.132   2.299  -2.319  1.00  0.00     0.136 C 
ATOM     20  C   UNL     1      -1.931   0.597  -4.053  1.00  0.00    -0.025 C 
ATOM     21  O   UNL     1       0.490   3.083  -1.601  1.00  0.00    -0.299 OA
ATOM     22  C   UNL     1      -0.470   2.683  -3.749  1.00  0.00     0.080 C 
ATOM     23  C   UNL     1      -3.268   1.146  -4.635  1.00  0.00     0.015 C 
ATOM     24  C   UNL     1      -0.702   1.421  -4.585  1.00  0.00     0.010 C 
ATOM     25  C   UNL     1      -3.266   1.338  -6.145  1.00  0.00     0.076 C 
ATOM     26  C   UNL     1      -0.749   1.752  -6.085  1.00  0.00     0.080 C 
ATOM     27  C   UNL     1      -2.111   2.227  -6.518  1.00  0.00     0.133 C 
ATOM     28  O   UNL     1      -2.261   3.247  -7.185  1.00  0.00    -0.300 OA
ATOM     29  C   UNL     1      -0.596  -1.724  -0.257  1.00  0.00     0.020 C 
ATOM     30  C   UNL     1      -1.739  -0.867  -4.520  1.00  0.00     0.012 C 
ENDBRANCH   7   9
ENDBRANCH   6   7
ENDBRANCH   5   6
ENDBRANCH   1   5
BRANCH   3  31
ATOM     31  C   UNL     1       4.240  -2.305   4.825  1.00  0.00     0.213 A 
ATOM     32  N   UNL     1       5.004  -1.899   5.819  1.00  0.00    -0.119 NA
ATOM     33  S   UNL     1       5.093  -2.919   3.480  1.00  0.00    -0.062 S 
ATOM     34  N   UNL     1       6.351  -2.043   5.533  1.00  0.00    -0.123 NA
ATOM     35  C   UNL     1       6.526  -2.528   4.321  1.00  0.00     0.249 A 
BRANCH  35  36
ATOM     36  S   UNL     1       8.063  -2.779   3.513  1.00  0.00     0.267 S 
ATOM     37  O   UNL     1       8.098  -1.860   2.397  1.00  0.00    -0.205 OA
ATOM     38  O   UNL     1       8.223  -4.205   3.336  1.00  0.00    -0.205 OA
BRANCH  36  39
ATOM     39  N   UNL     1       9.328  -2.297   4.516  1.00  0.00    -0.223 NA
ATOM     40  H   UNL     1       9.763  -1.469   4.110  1.00  0.00     0.137 HD
ATOM     41  H   UNL     1       9.987  -3.072   4.613  1.00  0.00     0.137 HD
ENDBRANCH  36  39
ENDBRANCH  35  36
ENDBRANCH   3  31
TORSDOF 7
