REMARK SMILES NS(=O)(=O)c1ccc(NC(=O)N2CCN(c3ccccn3)CC2)cc1
REMARK SMILES IDX 5 1 6 2 7 3 8 4 24 5 25 6 2 7 3 8 4 9 1 10 9 13 10 14 11 15
REMARK SMILES IDX 12 16 13 17 23 18 14 19 22 20 15 21 16 23 17 24 21 25 18 26
REMARK SMILES IDX 20 27 19 28
REMARK H PARENT 1 11 1 12 9 22
ROOT
ATOM      1  C   UNL     1       4.089  -2.539   3.315  1.00  0.00     0.082 A 
ATOM      2  C   UNL     1       2.983  -1.880   3.856  1.00  0.00     0.024 A 
ATOM      3  C   UNL     1       1.893  -1.570   3.035  1.00  0.00     0.027 A 
ATOM      4  C   UNL     1       1.907  -1.902   1.677  1.00  0.00     0.042 A 
ATOM      5  C   UNL     1       3.040  -2.536   1.145  1.00  0.00     0.027 A 
ATOM      6  C   UNL     1       4.129  -2.861   1.959  1.00  0.00     0.024 A 
ENDROOT
BRANCH   1   7
ATOM      7  S   UNL     1       5.457  -2.939   4.369  1.00  0.00     0.238 S 
ATOM      8  O   UNL     1       6.531  -3.456   3.553  1.00  0.00    -0.207 OA
ATOM      9  O   UNL     1       5.639  -1.855   5.304  1.00  0.00    -0.207 OA
BRANCH   7  10
ATOM     10  N   UNL     1       4.856  -4.267   5.215  1.00  0.00    -0.225 NA
ATOM     11  H   UNL     1       3.855  -4.410   5.084  1.00  0.00     0.137 HD
ATOM     12  H   UNL     1       5.397  -5.096   4.963  1.00  0.00     0.137 HD
ENDBRANCH   7  10
ENDBRANCH   1   7
BRANCH   4  13
ATOM     13  N   UNL     1       0.855  -1.612   0.784  1.00  0.00    -0.308 N 
ATOM     14  C   UNL     1      -0.408  -1.153   1.093  1.00  0.00     0.321 C 
ATOM     15  O   UNL     1      -0.840  -1.036   2.237  1.00  0.00    -0.248 OA
ATOM     16  N   UNL     1      -1.188  -0.820  -0.009  1.00  0.00    -0.321 N 
ATOM     17  C   UNL     1      -0.738  -0.818  -1.409  1.00  0.00     0.143 C 
ATOM     18  C   UNL     1      -2.531  -0.273   0.216  1.00  0.00     0.143 C 
ATOM     19  C   UNL     1      -1.823  -0.376  -2.409  1.00  0.00     0.139 C 
ATOM     20  C   UNL     1      -2.772   1.031  -0.568  1.00  0.00     0.139 C 
ATOM     21  N   UNL     1      -2.404   0.909  -1.995  1.00  0.00    -0.353 N 
ATOM     22  H   UNL     1       1.012  -1.876  -0.173  1.00  0.00     0.171 HD
BRANCH  21  23
ATOM     23  C   UNL     1      -3.284   1.482  -2.917  1.00  0.00     0.128 A 
ATOM     24  C   UNL     1      -3.773   2.776  -2.721  1.00  0.00     0.047 A 
ATOM     25  N   UNL     1      -3.629   0.781  -4.021  1.00  0.00    -0.239 NA
ATOM     26  C   UNL     1      -4.641   3.346  -3.654  1.00  0.00     0.005 A 
ATOM     27  C   UNL     1      -4.473   1.348  -4.912  1.00  0.00     0.113 A 
ATOM     28  C   UNL     1      -5.003   2.616  -4.774  1.00  0.00     0.020 A 
ENDBRANCH  21  23
ENDBRANCH   4  13
TORSDOF 4
