REMARK SMILES Cc1ccc2nc(S)n(-c3ccc(S(N)(=O)=O)cc3)c(=O)c2c1
REMARK SMILES IDX 10 1 11 2 12 3 13 4 18 5 19 6 9 7 2 8 3 9 23 10 4 11 22 12
REMARK SMILES IDX 5 13 20 14 6 15 21 16 7 17 1 18 8 19 14 21 16 22 17 23 15 24
REMARK H PARENT 8 20 15 25 15 26
ROOT
ATOM      1  C   UNL     1       0.702  -1.455  -0.377  1.00  0.00     0.051 A 
ATOM      2  C   UNL     1       1.014  -1.142  -1.711  1.00  0.00     0.028 A 
ATOM      3  C   UNL     1       1.424  -2.135  -2.605  1.00  0.00     0.024 A 
ATOM      4  C   UNL     1       1.500  -3.459  -2.172  1.00  0.00     0.082 A 
ATOM      5  C   UNL     1       1.189  -3.795  -0.853  1.00  0.00     0.024 A 
ATOM      6  C   UNL     1       0.783  -2.795   0.037  1.00  0.00     0.028 A 
ENDROOT
BRANCH   1   7
ATOM      7  N   UNL     1       0.255  -0.429   0.521  1.00  0.00    -0.255 N 
ATOM      8  C   UNL     1      -2.903   3.104   1.681  1.00  0.00    -0.050 A 
ATOM      9  C   UNL     1      -2.325   3.139   2.954  1.00  0.00     0.006 A 
ATOM     10  C   UNL     1      -2.407   2.198   0.736  1.00  0.00     0.019 A 
ATOM     11  C   UNL     1      -1.251   2.301   3.267  1.00  0.00     0.029 A 
ATOM     12  C   UNL     1      -1.329   1.361   1.062  1.00  0.00     0.066 A 
ATOM     13  C   UNL     1      -0.745   1.406   2.322  1.00  0.00     0.079 A 
ATOM     14  C   UNL     1      -0.799   0.388   0.088  1.00  0.00     0.266 C 
ATOM     15  N   UNL     1       0.343   0.604   2.668  1.00  0.00    -0.224 NA
ATOM     16  O   UNL     1      -1.342   0.331  -1.016  1.00  0.00    -0.268 OA
ATOM     17  C   UNL     1       0.790  -0.237   1.794  1.00  0.00     0.172 C 
ATOM     18  C   UNL     1      -4.077   3.978   1.352  1.00  0.00     0.044 C 
BRANCH  17  19
ATOM     19  S   UNL     1       2.240  -1.087   2.295  1.00  0.00    -0.105 SA
ATOM     20  H   UNL     1       2.314  -0.477   3.486  1.00  0.00     0.111 HD
ENDBRANCH  17  19
ENDBRANCH   1   7
BRANCH   4  21
ATOM     21  S   UNL     1       2.012  -4.727  -3.300  1.00  0.00     0.238 S 
ATOM     22  O   UNL     1       2.737  -4.109  -4.386  1.00  0.00    -0.207 OA
ATOM     23  O   UNL     1       2.544  -5.831  -2.538  1.00  0.00    -0.207 OA
BRANCH  21  24
ATOM     24  N   UNL     1       0.536  -5.210  -3.952  1.00  0.00    -0.225 NA
ATOM     25  H   UNL     1       0.529  -4.992  -4.950  1.00  0.00     0.137 HD
ATOM     26  H   UNL     1      -0.269  -4.809  -3.471  1.00  0.00     0.137 HD
ENDBRANCH  21  24
ENDBRANCH   4  21
TORSDOF 4
