REMARK SMILES NS(=O)(=O)c1nnc(NS(=O)(=O)c2ccc(N/C(S)=N/c3ccccc3F)cc2)s1
REMARK SMILES IDX 10 1 11 2 12 3 9 4 8 6 5 7 6 8 30 9 7 10 2 11 3 12 4 13 1 14
REMARK SMILES IDX 13 17 14 18 29 19 15 20 28 21 16 22 17 23 18 24 20 25 19 27
REMARK SMILES IDX 21 29 22 30 26 31 23 32 25 33 24 34 27 35
REMARK H PARENT 9 5 1 15 1 16 17 26 19 28
ROOT
ATOM      1  S   UNL     1       3.533  -0.388  -1.443  1.00  0.00     0.263 S 
ATOM      2  O   UNL     1       3.930  -0.774  -0.107  1.00  0.00    -0.201 OA
ATOM      3  O   UNL     1       4.327  -0.786  -2.588  1.00  0.00    -0.201 OA
ENDROOT
BRANCH   1   4
ATOM      4  N   UNL     1       3.400   1.285  -1.568  1.00  0.00    -0.253 N 
ATOM      5  H   UNL     1       4.083   1.634  -2.237  1.00  0.00     0.182 HD
BRANCH   4   6
ATOM      6  C   UNL     1       3.411   1.942  -0.281  1.00  0.00     0.220 A 
ATOM      7  C   UNL     1       3.782   3.217   1.648  1.00  0.00     0.249 A 
ATOM      8  N   UNL     1       2.625   2.589   1.705  1.00  0.00    -0.123 NA
ATOM      9  S   UNL     1       4.677   2.975   0.213  1.00  0.00    -0.062 S 
ATOM     10  N   UNL     1       2.404   1.850   0.557  1.00  0.00    -0.118 NA
BRANCH   7  11
ATOM     11  S   UNL     1       4.457   4.264   2.886  1.00  0.00     0.267 S 
ATOM     12  O   UNL     1       4.527   5.591   2.315  1.00  0.00    -0.205 OA
ATOM     13  O   UNL     1       5.625   3.589   3.404  1.00  0.00    -0.205 OA
BRANCH  11  14
ATOM     14  N   UNL     1       3.389   4.379   4.183  1.00  0.00    -0.223 NA
ATOM     15  H   UNL     1       3.220   5.361   4.404  1.00  0.00     0.137 HD
ATOM     16  H   UNL     1       3.751   3.849   4.977  1.00  0.00     0.137 HD
ENDBRANCH  11  14
ENDBRANCH   7  11
ENDBRANCH   4   6
ENDBRANCH   1   4
BRANCH   1  17
ATOM     17  C   UNL     1       1.866  -0.919  -1.731  1.00  0.00     0.088 A 
ATOM     18  C   UNL     1       1.463  -1.293  -3.011  1.00  0.00     0.024 A 
ATOM     19  C   UNL     1       0.980  -1.020  -0.659  1.00  0.00     0.024 A 
ATOM     20  C   UNL     1       0.153  -1.741  -3.216  1.00  0.00     0.027 A 
ATOM     21  C   UNL     1      -0.327  -1.472  -0.879  1.00  0.00     0.027 A 
ATOM     22  C   UNL     1      -0.770  -1.827  -2.158  1.00  0.00     0.040 A 
BRANCH  22  23
ATOM     23  N   UNL     1      -2.054  -2.322  -2.439  1.00  0.00    -0.335 N 
ATOM     24  C   UNL     1      -3.084  -2.655  -1.597  1.00  0.00     0.163 C 
ATOM     25  N   UNL     1      -3.021  -2.712  -0.304  1.00  0.00    -0.222 NA
ATOM     26  H   UNL     1      -2.302  -2.341  -3.419  1.00  0.00     0.169 HD
BRANCH  24  27
ATOM     27  S   UNL     1      -4.525  -3.044  -2.554  1.00  0.00    -0.105 SA
ATOM     28  H   UNL     1      -5.284  -3.527  -1.566  1.00  0.00     0.111 HD
ENDBRANCH  24  27
BRANCH  25  29
ATOM     29  C   UNL     1      -4.118  -3.035   0.505  1.00  0.00     0.102 A 
ATOM     30  C   UNL     1      -4.219  -4.323   1.039  1.00  0.00     0.031 A 
ATOM     31  C   UNL     1      -5.095  -2.090   0.847  1.00  0.00     0.148 A 
ATOM     32  C   UNL     1      -5.290  -4.666   1.870  1.00  0.00     0.002 A 
ATOM     33  C   UNL     1      -6.166  -2.425   1.672  1.00  0.00     0.041 A 
ATOM     34  C   UNL     1      -6.264  -3.717   2.185  1.00  0.00     0.003 A 
ATOM     35  F   UNL     1      -5.023  -0.842   0.360  1.00  0.00    -0.205 F 
ENDBRANCH  25  29
ENDBRANCH  22  23
ENDBRANCH   1  17
TORSDOF 8
