REMARK SMILES COc1ccc(C2=NN(C(C)=O)C(c3ccc(OS(N)(=O)=O)cc3)C2)cc1
REMARK SMILES IDX 14 1 15 2 16 3 17 4 23 5 24 6 13 7 7 8 8 9 25 10 9 11 6 12
REMARK SMILES IDX 3 13 4 14 27 15 5 16 26 17 2 18 1 19 10 20 12 21 11 22 18 23
REMARK SMILES IDX 19 24 21 25 22 26 20 27
REMARK H PARENT 20 28 20 29
ROOT
ATOM      1  C   UNL     1       0.019  -2.586  -0.337  1.00  0.00    -0.023 A 
ATOM      2  C   UNL     1       0.038  -3.798  -1.046  1.00  0.00     0.010 A 
ATOM      3  C   UNL     1      -1.028  -4.695  -0.956  1.00  0.00     0.048 A 
ATOM      4  C   UNL     1      -2.117  -4.393  -0.142  1.00  0.00     0.144 A 
ATOM      5  C   UNL     1      -2.170  -3.183   0.545  1.00  0.00     0.048 A 
ATOM      6  C   UNL     1      -1.105  -2.286   0.453  1.00  0.00     0.010 A 
ENDROOT
BRANCH   1   7
ATOM      7  C   UNL     1       1.192  -1.626  -0.459  1.00  0.00     0.147 C 
ATOM      8  C   UNL     1       0.854   0.655  -0.140  1.00  0.00     0.071 C 
ATOM      9  N   UNL     1       1.341   0.237   0.992  1.00  0.00    -0.174 NA
ATOM     10  C   UNL     1       0.823  -0.372  -1.244  1.00  0.00     0.091 C 
ATOM     11  N   UNL     1       1.627  -1.094   0.827  1.00  0.00    -0.226 N 
BRANCH   8  12
ATOM     12  C   UNL     1       0.392   2.047  -0.358  1.00  0.00    -0.002 A 
ATOM     13  C   UNL     1      -0.476   4.698  -0.711  1.00  0.00     0.118 A 
ATOM     14  C   UNL     1      -0.042   4.254   0.540  1.00  0.00     0.047 A 
ATOM     15  C   UNL     1      -0.472   3.810  -1.787  1.00  0.00     0.047 A 
ATOM     16  C   UNL     1       0.390   2.938   0.720  1.00  0.00     0.014 A 
ATOM     17  C   UNL     1      -0.039   2.488  -1.613  1.00  0.00     0.014 A 
BRANCH  13  18
ATOM     18  O   UNL     1      -0.871   6.006  -0.748  1.00  0.00    -0.497 OA
ATOM     19  C   UNL     1      -1.325   6.509  -1.998  1.00  0.00     0.278 C 
ENDBRANCH  13  18
ENDBRANCH   8  12
BRANCH  11  20
ATOM     20  C   UNL     1       2.323  -1.834   1.764  1.00  0.00     0.240 C 
ATOM     21  O   UNL     1       2.654  -3.007   1.588  1.00  0.00    -0.273 OA
ATOM     22  C   UNL     1       2.674  -1.102   3.034  1.00  0.00     0.116 C 
ENDBRANCH  11  20
ENDBRANCH   1   7
BRANCH   4  23
ATOM     23  O   UNL     1      -3.183  -5.243  -0.030  1.00  0.00    -0.371 OA
BRANCH  23  24
ATOM     24  S   UNL     1      -2.991  -6.666   0.745  1.00  0.00     0.380 S 
ATOM     25  O   UNL     1      -4.293  -7.183   1.099  1.00  0.00    -0.171 OA
ATOM     26  O   UNL     1      -2.031  -7.486   0.040  1.00  0.00    -0.171 OA
BRANCH  24  27
ATOM     27  N   UNL     1      -2.259  -6.289   2.212  1.00  0.00    -0.195 NA
ATOM     28  H   UNL     1      -2.647  -6.893   2.936  1.00  0.00     0.140 HD
ATOM     29  H   UNL     1      -1.248  -6.389   2.116  1.00  0.00     0.140 HD
ENDBRANCH  24  27
ENDBRANCH  23  24
ENDBRANCH   4  23
TORSDOF 7
