REMARK SMILES COc1ccc(CNc2ccc(S(N)(=O)=O)cc2)cc1
REMARK SMILES IDX 8 1 7 3 6 4 3 5 4 6 20 7 5 8 19 9 2 10 1 11 9 12 10 13 18 14
REMARK SMILES IDX 11 15 17 16 12 17 13 18 15 19 16 20 14 21
REMARK H PARENT 8 2 14 22 14 23
ROOT
ATOM      1  N   UNL     1       1.606  -1.238   0.886  1.00  0.00    -0.381 N 
ATOM      2  H   UNL     1       2.533  -1.566   1.140  1.00  0.00     0.160 HD
ENDROOT
BRANCH   1   3
ATOM      3  C   UNL     1       0.944  -0.557   1.997  1.00  0.00     0.148 C 
BRANCH   3   4
ATOM      4  C   UNL     1      -0.517  -0.924   2.138  1.00  0.00    -0.029 A 
ATOM      5  C   UNL     1      -3.239  -1.584   2.504  1.00  0.00     0.118 A 
ATOM      6  C   UNL     1      -2.343  -2.522   1.989  1.00  0.00     0.047 A 
ATOM      7  C   UNL     1      -2.771  -0.316   2.848  1.00  0.00     0.047 A 
ATOM      8  C   UNL     1      -0.995  -2.200   1.812  1.00  0.00     0.009 A 
ATOM      9  C   UNL     1      -1.420   0.008   2.671  1.00  0.00     0.009 A 
BRANCH   5  10
ATOM     10  O   UNL     1      -4.526  -2.028   2.626  1.00  0.00    -0.497 OA
ATOM     11  C   UNL     1      -5.484  -1.097   3.113  1.00  0.00     0.278 C 
ENDBRANCH   5  10
ENDBRANCH   3   4
ENDBRANCH   1   3
BRANCH   1  12
ATOM     12  C   UNL     1       1.575  -0.714  -0.408  1.00  0.00     0.034 A 
ATOM     13  C   UNL     1       2.501  -1.203  -1.345  1.00  0.00     0.027 A 
ATOM     14  C   UNL     1       0.588   0.166  -0.870  1.00  0.00     0.027 A 
ATOM     15  C   UNL     1       2.493  -0.775  -2.676  1.00  0.00     0.024 A 
ATOM     16  C   UNL     1       0.566   0.604  -2.200  1.00  0.00     0.024 A 
ATOM     17  C   UNL     1       1.531   0.143  -3.093  1.00  0.00     0.082 A 
BRANCH  17  18
ATOM     18  S   UNL     1       1.487   0.663  -4.781  1.00  0.00     0.238 S 
ATOM     19  O   UNL     1       2.170  -0.311  -5.601  1.00  0.00    -0.207 OA
ATOM     20  O   UNL     1       0.166   1.154  -5.099  1.00  0.00    -0.207 OA
BRANCH  18  21
ATOM     21  N   UNL     1       2.483   2.016  -4.753  1.00  0.00    -0.225 NA
ATOM     22  H   UNL     1       3.296   1.856  -5.347  1.00  0.00     0.137 HD
ATOM     23  H   UNL     1       1.943   2.844  -5.005  1.00  0.00     0.137 HD
ENDBRANCH  18  21
ENDBRANCH  17  18
ENDBRANCH   1  12
TORSDOF 6
