REMARK SMILES Nc1ccc(S(=O)(=O)NC2NN=C(S(N)(=O)=O)S2)cc1
REMARK SMILES IDX 9 1 6 3 7 4 8 5 5 6 2 7 3 8 20 9 4 10 19 11 1 12 10 15 11 16
REMARK SMILES IDX 18 17 12 18 13 19 14 21 16 22 17 23 15 24
REMARK H PARENT 9 2 1 13 1 14 11 20 15 25 15 26
ROOT
ATOM      1  N   UNL     1       0.698   1.166   0.205  1.00  0.00    -0.179 NA
ATOM      2  H   UNL     1       0.595   2.172   0.291  1.00  0.00     0.144 HD
ENDROOT
BRANCH   1   3
ATOM      3  S   UNL     1       1.515   0.449   1.465  1.00  0.00     0.243 S 
ATOM      4  O   UNL     1       2.776  -0.038   0.951  1.00  0.00    -0.207 OA
ATOM      5  O   UNL     1       1.445   1.365   2.581  1.00  0.00    -0.207 OA
BRANCH   3   6
ATOM      6  C   UNL     1       0.472  -0.934   1.838  1.00  0.00     0.082 A 
ATOM      7  C   UNL     1      -1.180  -3.105   2.458  1.00  0.00     0.031 A 
ATOM      8  C   UNL     1      -1.615  -1.796   2.683  1.00  0.00     0.027 A 
ATOM      9  C   UNL     1       0.065  -3.309   1.853  1.00  0.00     0.027 A 
ATOM     10  C   UNL     1      -0.786  -0.708   2.399  1.00  0.00     0.024 A 
ATOM     11  C   UNL     1       0.906  -2.231   1.563  1.00  0.00     0.024 A 
BRANCH   7  12
ATOM     12  N   UNL     1      -2.060  -4.178   2.628  1.00  0.00    -0.399 N 
ATOM     13  H   UNL     1      -2.775  -4.020   3.332  1.00  0.00     0.156 HD
ATOM     14  H   UNL     1      -1.598  -5.074   2.750  1.00  0.00     0.156 HD
ENDBRANCH   7  12
ENDBRANCH   3   6
ENDBRANCH   1   3
BRANCH   1  15
ATOM     15  C   UNL     1       0.936   0.656  -1.109  1.00  0.00     0.246 C 
ATOM     16  N   UNL     1       1.909   1.458  -1.817  1.00  0.00    -0.280 N 
ATOM     17  S   UNL     1      -0.581   0.848  -2.083  1.00  0.00    -0.048 SA
ATOM     18  N   UNL     1       1.685   1.619  -3.153  1.00  0.00    -0.157 NA
ATOM     19  C   UNL     1       0.433   1.374  -3.430  1.00  0.00     0.226 C 
ATOM     20  H   UNL     1       2.865   1.168  -1.599  1.00  0.00     0.186 HD
BRANCH  19  21
ATOM     21  S   UNL     1      -0.205   1.517  -5.093  1.00  0.00     0.263 S 
ATOM     22  O   UNL     1       0.285   2.761  -5.644  1.00  0.00    -0.205 OA
ATOM     23  O   UNL     1       0.010   0.233  -5.723  1.00  0.00    -0.205 OA
BRANCH  21  24
ATOM     24  N   UNL     1      -1.884   1.721  -4.965  1.00  0.00    -0.223 NA
ATOM     25  H   UNL     1      -2.133   2.709  -4.912  1.00  0.00     0.137 HD
ATOM     26  H   UNL     1      -2.319   1.122  -4.265  1.00  0.00     0.137 HD
ENDBRANCH  21  24
ENDBRANCH  19  21
ENDBRANCH   1  15
TORSDOF 6
