REMARK SMILES N#Cc1ccc(-c2nc(-c3ccc(S(N)(=O)=O)cc3)no2)cc1
REMARK SMILES IDX 10 1 11 2 12 3 13 4 18 5 19 6 9 7 7 8 8 9 21 10 20 11 6 12
REMARK SMILES IDX 1 13 2 14 3 15 4 16 23 17 5 18 22 19 14 20 16 21 17 22 15 23
REMARK H PARENT 15 24 15 25
ROOT
ATOM      1  C   UNL     1       0.935  -0.432  -1.445  1.00  0.00     0.023 A 
ATOM      2  C   UNL     1      -0.201  -0.382  -2.270  1.00  0.00     0.013 A 
ATOM      3  C   UNL     1      -0.085  -0.516  -3.657  1.00  0.00     0.022 A 
ATOM      4  C   UNL     1       1.176  -0.709  -4.225  1.00  0.00     0.082 A 
ATOM      5  C   UNL     1       2.320  -0.749  -3.424  1.00  0.00     0.022 A 
ATOM      6  C   UNL     1       2.196  -0.615  -2.038  1.00  0.00     0.013 A 
ENDROOT
BRANCH   1   7
ATOM      7  C   UNL     1       0.797  -0.290   0.002  1.00  0.00     0.202 A 
ATOM      8  C   UNL     1      -0.111  -0.020   1.881  1.00  0.00     0.258 A 
ATOM      9  N   UNL     1      -0.426  -0.097   0.608  1.00  0.00    -0.187 NA
ATOM     10  O   UNL     1       1.228  -0.159   2.107  1.00  0.00    -0.334 OA
ATOM     11  N   UNL     1       1.828  -0.339   0.862  1.00  0.00    -0.057 NA
BRANCH   8  12
ATOM     12  C   UNL     1      -0.967   0.184   3.044  1.00  0.00     0.040 A 
ATOM     13  N   UNL     1      -4.250   0.944   7.285  1.00  0.00    -0.192 NA
ATOM     14  C   UNL     1      -3.547   0.782   6.376  1.00  0.00     0.099 C 
ATOM     15  C   UNL     1      -2.679   0.581   5.253  1.00  0.00     0.052 A 
ATOM     16  C   UNL     1      -3.202   0.534   3.959  1.00  0.00     0.020 A 
ATOM     17  C   UNL     1      -1.303   0.431   5.446  1.00  0.00     0.020 A 
ATOM     18  C   UNL     1      -2.352   0.337   2.865  1.00  0.00     0.015 A 
ATOM     19  C   UNL     1      -0.454   0.234   4.350  1.00  0.00     0.015 A 
ENDBRANCH   8  12
ENDBRANCH   1   7
BRANCH   4  20
ATOM     20  S   UNL     1       1.341  -0.869  -5.984  1.00  0.00     0.238 S 
ATOM     21  O   UNL     1       0.108  -0.439  -6.601  1.00  0.00    -0.207 OA
ATOM     22  O   UNL     1       2.630  -0.347  -6.369  1.00  0.00    -0.207 OA
BRANCH  20  23
ATOM     23  N   UNL     1       1.379  -2.543  -6.167  1.00  0.00    -0.225 NA
ATOM     24  H   UNL     1       1.459  -3.046  -5.285  1.00  0.00     0.137 HD
ATOM     25  H   UNL     1       0.559  -2.835  -6.702  1.00  0.00     0.137 HD
ENDBRANCH  20  23
ENDBRANCH   4  20
TORSDOF 4
