REMARK SMILES CCCCC[C@H](O)/C=C/[C@@H]1[C@@H](C/C=C\CCCC(=O)Nc2nnc(S(N)(=O)=O)s2)[C@@H](O)C[C@H]1O
REMARK SMILES IDX 13 1 14 2 12 3 11 4 10 5 33 6 30 7 32 8 9 9 8 10 6 11 5 12
REMARK SMILES IDX 4 13 3 14 2 15 1 16 7 17 34 19 31 21 15 23 16 24 17 25 18 26
REMARK SMILES IDX 19 27 20 28 21 30 22 31 29 32 23 33 24 34 25 35 27 36 28 37
REMARK SMILES IDX 26 38
REMARK H PARENT 7 18 34 20 31 22 20 29 26 39 26 40
ROOT
ATOM      1  C   UNL     1       0.422   3.449   0.144  1.00  0.00    -0.031 C 
ATOM      2  C   UNL     1       0.279   3.501  -1.190  1.00  0.00    -0.031 C 
ENDROOT
BRANCH   1   3
ATOM      3  C   UNL     1       1.128   2.448   1.019  1.00  0.00     0.034 C 
BRANCH   3   4
ATOM      4  C   UNL     1       2.606   2.158   0.723  1.00  0.00     0.031 C 
ATOM      5  C   UNL     1       3.324   1.375   1.842  1.00  0.00     0.046 C 
ATOM      6  C   UNL     1       4.793   1.468   1.380  1.00  0.00     0.124 C 
ATOM      7  C   UNL     1       3.512   3.389   0.570  1.00  0.00     0.121 C 
ATOM      8  C   UNL     1       4.938   2.858   0.746  1.00  0.00     0.064 C 
BRANCH   5   9
ATOM      9  C   UNL     1       2.747  -0.004   2.093  1.00  0.00    -0.022 C 
ATOM     10  C   UNL     1       3.251  -1.188   1.705  1.00  0.00     0.000 C 
BRANCH  10  11
ATOM     11  C   UNL     1       2.701  -2.566   1.964  1.00  0.00     0.137 C 
BRANCH  11  12
ATOM     12  C   UNL     1       1.332  -2.706   2.645  1.00  0.00     0.036 C 
BRANCH  12  13
ATOM     13  C   UNL     1       0.161  -2.309   1.743  1.00  0.00     0.003 C 
BRANCH  13  14
ATOM     14  C   UNL     1      -1.178  -2.535   2.447  1.00  0.00    -0.000 C 
BRANCH  14  15
ATOM     15  C   UNL     1      -2.353  -2.141   1.553  1.00  0.00    -0.003 C 
ATOM     16  C   UNL     1      -3.688  -2.371   2.245  1.00  0.00     0.004 C 
ENDBRANCH  14  15
ENDBRANCH  13  14
ENDBRANCH  12  13
ENDBRANCH  11  12
BRANCH  11  17
ATOM     17  O   UNL     1       3.672  -3.228   2.772  1.00  0.00    -0.389 OA
ATOM     18  H   UNL     1       3.725  -2.743   3.614  1.00  0.00     0.211 HD
ENDBRANCH  11  17
ENDBRANCH  10  11
ENDBRANCH   5   9
BRANCH   6  19
ATOM     19  O   UNL     1       5.705   1.319   2.458  1.00  0.00    -0.392 OA
ATOM     20  H   UNL     1       5.426   0.539   2.969  1.00  0.00     0.210 HD
ENDBRANCH   6  19
BRANCH   7  21
ATOM     21  O   UNL     1       3.234   4.342   1.596  1.00  0.00    -0.393 OA
ATOM     22  H   UNL     1       3.881   5.064   1.501  1.00  0.00     0.210 HD
ENDBRANCH   7  21
ENDBRANCH   3   4
ENDBRANCH   1   3
BRANCH   2  23
ATOM     23  C   UNL     1       0.811   2.575  -2.243  1.00  0.00     0.027 C 
BRANCH  23  24
ATOM     24  C   UNL     1      -0.284   1.832  -3.009  1.00  0.00     0.014 C 
BRANCH  24  25
ATOM     25  C   UNL     1      -1.029   0.820  -2.136  1.00  0.00     0.101 C 
BRANCH  25  26
ATOM     26  C   UNL     1      -1.884  -0.133  -2.958  1.00  0.00     0.226 C 
ATOM     27  O   UNL     1      -2.011  -0.024  -4.171  1.00  0.00    -0.275 OA
ATOM     28  N   UNL     1      -2.474  -1.093  -2.160  1.00  0.00    -0.301 N 
ATOM     29  H   UNL     1      -2.420  -1.004  -1.155  1.00  0.00     0.172 HD
BRANCH  28  30
ATOM     30  C   UNL     1      -3.239  -2.150  -2.582  1.00  0.00     0.213 A 
ATOM     31  N   UNL     1      -3.915  -2.905  -1.742  1.00  0.00    -0.119 NA
ATOM     32  S   UNL     1      -3.352  -2.631  -4.214  1.00  0.00    -0.062 S 
ATOM     33  N   UNL     1      -4.576  -3.935  -2.384  1.00  0.00    -0.123 NA
ATOM     34  C   UNL     1      -4.338  -3.916  -3.679  1.00  0.00     0.249 A 
BRANCH  34  35
ATOM     35  S   UNL     1      -4.946  -5.054  -4.882  1.00  0.00     0.267 S 
ATOM     36  O   UNL     1      -3.776  -5.664  -5.473  1.00  0.00    -0.205 OA
ATOM     37  O   UNL     1      -5.976  -5.825  -4.227  1.00  0.00    -0.205 OA
BRANCH  35  38
ATOM     38  N   UNL     1      -5.717  -4.188  -6.105  1.00  0.00    -0.223 NA
ATOM     39  H   UNL     1      -6.602  -3.778  -5.807  1.00  0.00     0.137 HD
ATOM     40  H   UNL     1      -5.088  -3.591  -6.643  1.00  0.00     0.137 HD
ENDBRANCH  35  38
ENDBRANCH  34  35
ENDBRANCH  28  30
ENDBRANCH  25  26
ENDBRANCH  24  25
ENDBRANCH  23  24
ENDBRANCH   2  23
TORSDOF 18
